Title
55513
    1DOPE     N    1   3.644   3.969   7.304  0.0598 -0.0360  0.7239
    1DOPE   HN1    2   3.546   3.942   7.284  0.4790 -0.2444 -1.1922
    1DOPE   HN2    3   3.704   3.887   7.327 -0.5135 -0.6366  0.1087
    1DOPE   HN3    4   3.654   4.040   7.380 -0.2028  1.6883 -0.7729
    1DOPE   C12    5   3.678   4.002   7.158  0.0096 -0.0952 -0.0493
    1DOPE  H12A    6   3.777   4.053   7.156 -0.0187 -0.0554 -0.7777
    1DOPE  H12B    7   3.602   4.070   7.113 -0.4222 -1.0999 -0.8799
    1DOPE   C11    8   3.704   3.871   7.079  0.0264  0.1404 -0.1234
    1DOPE  H11A    9   3.747   3.897   6.980  1.7714 -0.8954  0.3138
    1DOPE  H11B   10   3.613   3.811   7.060  2.0528 -3.0051 -0.7387
    1DOPE     P   11   3.951   3.800   7.154  0.2600 -0.0788 -0.1372
    1DOPE   O13   12   4.002   3.678   7.219  0.7549  0.1919 -0.4411
    1DOPE   O14   13   3.999   3.926   7.203 -0.1985 -0.0785 -0.6141
    1DOPE   O11   14   3.970   3.787   6.996  0.4661  0.1269 -0.0225
    1DOPE   O12   15   3.791   3.795   7.162 -0.5474 -0.3026 -0.1811
    1DOPE    C1   16   3.997   3.664   6.926  0.0647 -0.1770 -0.3172
    1DOPE    HA   17   3.933   3.660   6.835  1.1786  1.9088 -1.2514
    1DOPE    HB   18   3.976   3.566   6.975  1.3391 -0.8215 -1.0278
    1DOPE    C2   19   4.140   3.675   6.865 -0.8475  0.6343 -0.1976
    1DOPE    HS   20   4.197   3.753   6.920  1.1235 -0.6446 -0.3161
    1DOPE   O21   21   4.145   3.713   6.727  0.2024  0.5236 -0.3526
    1DOPE   C21   22   4.263   3.751   6.681  0.3956 -0.9115 -0.2946
    1DOPE   O22   23   4.362   3.778   6.746  0.0533  0.4606 -0.5635
    1DOPE   C22   24   4.238   3.785   6.540 -0.2873 -0.3775  0.6975
    1DOPE   H2R   25   4.148   3.850   6.538  0.1023  0.1647 -0.4581
    1DOPE   H2S   26   4.213   3.693   6.485 -0.2065 -0.6162  1.0548
    1DOPE    C3   27   4.205   3.534   6.861  0.2078 -0.2555 -0.8330
    1DOPE    HX   28   4.201   3.504   6.968 -0.3258 -1.8715 -1.2900
    1DOPE    HY   29   4.311   3.528   6.828  0.3116  1.2416 -0.8770
    1DOPE   O31   30   4.120   3.449   6.785 -0.3150  0.9460 -0.0525
    1DOPE   C31   31   4.180   3.385   6.680  1.3225 -0.5758 -0.0407
    1DOPE   O32   32   4.296   3.390   6.651  0.7691 -0.6062 -0.2465
    1DOPE   C32   33   4.082   3.298   6.594  0.5201  0.2152  0.2561
    1DOPE   H2X   34   4.065   3.213   6.664  0.1247  0.4916  0.5012
    1DOPE   H2Y   35   3.991   3.361   6.579  1.2215  1.3909  0.7904
    1DOPE   C23   36   4.354   3.865   6.466 -0.2602  0.2675 -0.5187
    1DOPE   H3R   37   4.408   3.926   6.542 -2.1676 -0.4521  1.5239
    1DOPE   H3S   38   4.290   3.932   6.404  0.1287  0.4064 -0.7735
    1DOPE   C24   39   4.440   3.772   6.381  0.6315 -0.6575  0.0863
    1DOPE   H4R   40   4.460   3.676   6.434 -0.1476 -0.4923  0.7029
    1DOPE   H4S   41   4.540   3.817   6.363  0.0479  0.0662 -1.5491
    1DOPE   C25   42   4.373   3.750   6.241 -0.0400  0.4776  1.0420
    1DOPE   H5R   43   4.262   3.742   6.241  0.0880 -3.0708  0.5407
    1DOPE   H5S   44   4.413   3.649   6.217  0.1585  0.6203  0.7561
    1DOPE   C26   45   4.407   3.853   6.136 -0.1747  0.1881  0.0847
    1DOPE   H6R   46   4.359   3.950   6.156  1.6937  0.9105  1.2748
    1DOPE   H6S   47   4.351   3.811   6.049  1.2012  0.8237 -1.1595
    1DOPE   C27   48   4.549   3.887   6.107  0.0979  0.1486 -0.9164
    1DOPE   H7R   49   4.596   3.788   6.086  0.2313 -0.0125  0.0824
    1DOPE   H7S   50   4.598   3.923   6.200 -1.1249  1.2361 -0.6713
    1DOPE   C28   51   4.570   3.980   5.984 -0.3353  0.1377 -0.2150
    1DOPE   H8R   52   4.515   4.074   6.005  0.6479  0.7729 -0.3923
    1DOPE   H8S   53   4.526   3.940   5.890 -1.1013  0.6042 -0.0652
    1DOPE   C29   54   4.712   4.016   5.945  0.1909  0.2659  0.1602
    1DOPE   H9R   55   4.774   3.929   5.920 -1.9731 -0.7379 -2.1172
    1DOPE  C210   56   4.770   4.135   5.940  0.9150 -0.0760  0.0128
    1DOPE  H10R   57   4.879   4.150   5.929  0.7689  0.9151 -0.2167
    1DOPE  C211   58   4.703   4.268   5.972 -0.3151  0.0894 -0.6394
    1DOPE  H11R   59   4.594   4.246   5.968 -0.1407 -0.8242 -0.6399
    1DOPE  H11S   60   4.736   4.338   5.892  1.7744 -1.5948 -1.3661
    1DOPE  C212   61   4.735   4.329   6.108  0.0108  0.3999 -0.1865
    1DOPE  H12R   62   4.840   4.364   6.103  1.1435 -2.7627 -0.7798
    1DOPE  H12S   63   4.726   4.248   6.184  0.8703 -2.0727 -2.5693
    1DOPE  C213   64   4.630   4.436   6.149 -0.3500 -0.0903 -0.2344
    1DOPE  H13R   65   4.529   4.391   6.151  0.5083 -2.1980 -1.3445
    1DOPE  H13S   66   4.629   4.514   6.069 -2.1323  0.3454  0.1574
    1DOPE  C214   67   4.680   4.496   6.282 -0.2714 -0.3847 -0.4219
    1DOPE  H14R   68   4.786   4.528   6.269 -0.7006  1.0807 -0.4916
    1DOPE  H14S   69   4.659   4.425   6.364  0.4989 -0.7948 -0.5712
    1DOPE  C215   70   4.611   4.622   6.346 -0.1760 -0.0896 -0.7329
    1DOPE  H15R   71   4.661   4.636   6.444 -2.3431  0.7175  0.3252
    1DOPE  H15S   72   4.503   4.600   6.363  0.3499 -1.2545  1.5307
    1DOPE  C216   73   4.630   4.746   6.261  0.3413 -0.1805 -0.1158
    1DOPE  H16R   74   4.571   4.751   6.167 -0.1327 -2.1633  0.0468
    1DOPE  H16S   75   4.733   4.744   6.219  0.7531 -3.1270  0.8519
    1DOPE  C217   76   4.600   4.879   6.324  0.2102 -0.0822 -0.2314
    1DOPE  H17R   77   4.666   4.901   6.411  0.4414 -2.1249  0.1574
    1DOPE  H17S   78   4.497   4.874   6.364 -0.2189 -0.8299 -1.3715
    1DOPE  C218   79   4.614   4.995   6.227  0.0629 -0.3360 -0.0837
    1DOPE  H18R   80   4.722   5.022   6.225 -0.3056  1.2469 -0.2387
    1DOPE  H18S   81   4.555   5.081   6.267 -1.5639 -1.4546  0.0138
    1DOPE  H18T   82   4.575   4.978   6.124 -0.4632 -0.8414  0.1894
    1DOPE   C33   83   4.143   3.254   6.455  0.2172 -1.0005 -0.1491
    1DOPE   H3X   84   4.242   3.209   6.475 -0.4712 -3.3337 -1.6409
    1DOPE   H3Y   85   4.142   3.342   6.388 -1.3652 -2.6870 -2.5099
    1DOPE   C34   86   4.056   3.147   6.385  0.2085 -0.2094 -0.3512
    1DOPE   H4X   87   4.042   3.059   6.452  0.8461 -1.3057 -1.6075
    1DOPE   H4Y   88   3.955   3.184   6.357 -0.9234 -1.8377  1.2954
    1DOPE   C35   89   4.127   3.098   6.259 -0.0830  0.4568 -0.0575
    1DOPE   H5X   90   4.205   3.019   6.264 -0.4691 -0.3085 -3.5918
    1DOPE   H5Y   91   4.172   3.189   6.213  1.1440 -0.2309 -0.2569
    1DOPE   C36   92   4.031   3.050   6.150 -0.0459 -0.2207  0.0138
    1DOPE   H6X   93   3.973   3.140   6.118  0.8325  0.1503 -0.5591
    1DOPE   H6Y   94   3.955   2.979   6.189 -0.3925  0.3199  0.3565
    1DOPE   C37   95   4.109   2.987   6.035 -0.0153 -0.5610 -0.3753
    1DOPE   H7X   96   4.183   3.057   5.991 -2.0590 -0.1609 -3.4940
    1DOPE   H7Y   97   4.156   2.891   6.064  0.4298 -0.5292 -0.9714
    1DOPE   C38   98   4.013   2.939   5.922 -0.0288 -0.1385  0.4770
    1DOPE   H8X   99   3.941   2.872   5.974  3.1439 -3.2318  1.2957
    1DOPE   H8Y  100   4.073   2.879   5.851 -0.6704  0.4359 -0.5750
    1DOPE   C39  101   3.948   3.062   5.852 -0.3985 -0.1916 -0.5529
    1DOPE   H9X  102   4.009   3.151   5.830  1.4709 -1.2481  0.0811
    1DOPE  C310  103   3.814   3.082   5.844  0.1210  0.1267 -0.1041
    1DOPE  H10X  104   3.774   3.176   5.801  0.6177  0.2204 -0.3744
    1DOPE  C311  105   3.715   2.972   5.880 -0.7196 -1.0220  0.7244
    1DOPE  H11X  106   3.620   2.984   5.824 -1.0455  0.2941  1.5185
    1DOPE  H11Y  107   3.767   2.877   5.853  0.2774 -0.4426  0.5382
    1DOPE  C312  108   3.676   2.969   6.026  0.2046  0.0778 -0.6789
    1DOPE  H12X  109   3.769   2.968   6.088  0.9133 -3.0209 -1.6192
    1DOPE  H12Y  110   3.628   2.870   6.042 -1.1863  0.6442 -1.1865
    1DOPE  C313  111   3.572   3.077   6.056 -0.3627  0.3894  0.0259
    1DOPE  H13X  112   3.614   3.167   6.006 -0.7415 -0.4968 -1.9816
    1DOPE  H13Y  113   3.488   3.056   5.987  1.0956 -2.1824 -1.1064
    1DOPE  C314  114   3.542   3.096   6.203 -0.4833  0.2814  0.0376
    1DOPE  H14X  115   3.501   3.000   6.241  2.5126 -1.2661 -0.3005
    1DOPE  H14Y  116   3.461   3.170   6.216 -1.5816 -0.9308  0.3084
    1DOPE  C315  117   3.668   3.138   6.283  0.2923 -0.4026  0.3970
    1DOPE  H15X  118   3.721   3.226   6.241 -2.5913  1.8103  1.0359
    1DOPE  H15Y  119   3.734   3.050   6.295  0.3523 -0.1823  2.0347
    1DOPE  C316  120   3.619   3.173   6.431 -0.3795  0.5416  0.9433
    1DOPE  H16X  121   3.561   3.091   6.479  0.1211  0.5947  1.6572
    1DOPE  H16Y  122   3.543   3.254   6.426 -0.5458  0.3816  0.8670
    1DOPE  C317  123   3.740   3.211   6.522 -0.1071  0.2302  0.2892
    1DOPE  H17X  124   3.799   3.118   6.540  1.5601  0.9835 -0.9637
    1DOPE  H17Y  125   3.804   3.287   6.470  0.4967  1.1160  2.2501
    1DOPE  C318  126   3.694   3.274   6.647  0.3838 -0.3553 -0.1405
    1DOPE  H18X  127   3.618   3.354   6.629  1.0410 -0.2028 -2.4833
    1DOPE  H18Y  128   3.651   3.201   6.719 -0.8118 -0.6108 -1.0934
    1DOPE  H18Z  129   3.783   3.320   6.696  0.2750 -1.1148  0.7923
    2DOPE     N  130   4.109   4.172   7.241  0.0237 -0.2542 -0.0198
    2DOPE   HN1  131   4.203   4.188   7.198 -0.0998 -0.4849 -0.3819
    2DOPE   HN2  132   4.070   4.077   7.222  0.7832 -0.5285 -0.2567
    2DOPE   HN3  133   4.047   4.246   7.202  0.8428 -0.1156 -1.1216
    2DOPE   C12  134   4.120   4.187   7.390 -0.0921  0.1717  0.4727
    2DOPE  H12A  135   4.193   4.110   7.424  0.2215  1.2524  2.3182
    2DOPE  H12B  136   4.016   4.173   7.427 -0.5044 -1.4158 -1.1205
    2DOPE   C11  137   4.187   4.320   7.433  0.2289 -0.0135 -0.5224
    2DOPE  H11A  138   4.285   4.326   7.380  1.0809  0.4322  1.0390
    2DOPE  H11B  139   4.204   4.300   7.541 -0.8761 -2.4719 -0.7471
    2DOPE     P  140   4.146   4.572   7.388 -0.4784 -0.1088 -0.1657
    2DOPE   O13  141   4.249   4.597   7.492  0.0341 -0.4340 -0.2701
    2DOPE   O14  142   4.030   4.663   7.398 -0.3130 -0.0210  0.5621
    2DOPE   O11  143   4.204   4.578   7.242  0.0128 -0.0718 -0.6460
    2DOPE   O12  144   4.103   4.425   7.397  0.6857 -0.3896 -0.1651
    2DOPE    C1  145   4.129   4.523   7.136  0.7676 -0.3681  0.2315
    2DOPE    HA  146   4.044   4.458   7.166  1.2905 -1.0023  0.3641
    2DOPE    HB  147   4.196   4.446   7.093  3.2465  1.4728  0.5339
    2DOPE    C2  148   4.094   4.614   7.020 -1.4380  0.2712 -0.0306
    2DOPE    HS  149   4.010   4.680   7.053 -2.0883  0.2361 -1.5039
    2DOPE   O21  150   4.068   4.542   6.901 -0.5327  0.0595 -0.3563
    2DOPE   C21  151   3.950   4.490   6.896  0.7315  0.3085  0.1474
    2DOPE   O22  152   3.870   4.480   6.988 -0.0054  0.0849  0.2655
    2DOPE   C22  153   3.917   4.449   6.759 -0.4751  0.3850  0.0277
    2DOPE   H2R  154   3.828   4.381   6.760  2.8215 -4.4628  0.9614
    2DOPE   H2S  155   4.004   4.400   6.710 -1.9960 -1.4135 -1.0363
    2DOPE    C3  156   4.213   4.706   6.990  0.4005 -0.0164  0.2686
    2DOPE    HX  157   4.303   4.644   6.971 -2.0803 -3.9954  0.2378
    2DOPE    HY  158   4.229   4.771   7.079  1.0259  1.5230 -0.9264
    2DOPE   O31  159   4.180   4.790   6.877  0.3461 -0.1093  0.5752
    2DOPE   C31  160   4.094   4.892   6.898 -0.1545 -0.8003  0.5451
    2DOPE   O32  161   4.030   4.904   6.998  0.1407  0.2358 -0.2259
    2DOPE   C32  162   4.075   4.960   6.767  0.3070 -0.3798 -0.3432
    2DOPE   H2X  163   4.017   4.886   6.708  0.0109 -0.8819  0.5561
    2DOPE   H2Y  164   4.006   5.045   6.783 -0.8328 -1.3212 -0.1037
    2DOPE   C23  165   3.871   4.563   6.666  0.4607 -0.2694 -0.4753
    2DOPE   H3R  166   3.961   4.629   6.668 -2.1084  3.6001  0.7678
    2DOPE   H3S  167   3.790   4.617   6.721  1.3202  0.4931  0.0696
    2DOPE   C24  168   3.819   4.510   6.531 -0.3117  0.0873  0.1720
    2DOPE   H4R  169   3.735   4.439   6.542 -0.0360 -0.3637 -0.6120
    2DOPE   H4S  170   3.900   4.454   6.479  1.1208  1.7313  0.5393
    2DOPE   C25  171   3.773   4.613   6.424 -0.5770  0.0735  0.0947
    2DOPE   H5R  172   3.850   4.693   6.422 -2.3955  1.9189  0.0792
    2DOPE   H5S  173   3.679   4.662   6.460 -0.1361  0.8950  0.1561
    2DOPE   C26  174   3.763   4.552   6.282  0.1737  0.2426  0.6149
    2DOPE   H6R  175   3.679   4.479   6.271  1.9701 -2.1699  1.9065
    2DOPE   H6S  176   3.857   4.497   6.262 -0.7724 -0.8280 -1.2857
    2DOPE   C27  177   3.754   4.650   6.160 -0.4530  0.5421  0.1107
    2DOPE   H7R  178   3.851   4.705   6.155 -0.5942  0.7594 -0.3161
    2DOPE   H7S  179   3.669   4.721   6.161 -0.2060  0.8840 -1.2954
    2DOPE   C28  180   3.751   4.561   6.029 -0.4087  0.3822  0.6870
    2DOPE   H8R  181   3.668   4.487   6.034 -0.5161  0.4274 -0.2028
    2DOPE   H8S  182   3.850   4.510   6.021 -0.2386  0.4526  2.0810
    2DOPE   C29  183   3.731   4.647   5.908  0.0562 -0.1586 -0.3423
    2DOPE   H9R  184   3.686   4.746   5.924  0.1449 -0.3356  1.1041
    2DOPE  C210  185   3.736   4.609   5.779 -0.2973  0.4806  0.1476
    2DOPE  H10R  186   3.741   4.683   5.697  1.7635 -0.3932 -0.5860
    2DOPE  C211  187   3.782   4.471   5.738 -0.1541 -0.2031 -0.2848
    2DOPE  H11R  188   3.719   4.434   5.653  0.9184  1.3579 -1.8330
    2DOPE  H11S  189   3.768   4.400   5.822 -0.8561  0.7621  0.4443
    2DOPE  C212  190   3.924   4.446   5.688 -0.4013 -0.4137  0.1960
    2DOPE  H12R  191   3.919   4.352   5.629 -1.2304 -1.1642  1.3989
    2DOPE  H12S  192   4.001   4.418   5.763  0.7814 -2.3845 -1.6526
    2DOPE  C213  193   3.964   4.548   5.577 -1.0513 -0.3220  0.6549
    2DOPE  H13R  194   3.999   4.643   5.622  3.1296 -0.7353 -1.2665
    2DOPE  H13S  195   3.878   4.545   5.508 -0.9390  0.7898  0.4570
    2DOPE  C214  196   4.087   4.511   5.483  0.7368  0.1051  0.8538
    2DOPE  H14R  197   4.181   4.498   5.541  0.6714 -0.9040  0.7446
    2DOPE  H14S  198   4.101   4.594   5.410  1.4389 -0.2504  0.5670
    2DOPE  C215  199   4.065   4.385   5.404  0.0054 -0.1992  0.4156
    2DOPE  H15R  200   3.972   4.376   5.344  0.7231  1.1460 -0.9605
    2DOPE  H15S  201   4.054   4.310   5.486  0.7009 -0.0795  0.6187
    2DOPE  C216  202   4.180   4.348   5.308 -0.0453  0.4413 -0.2325
    2DOPE  H16R  203   4.268   4.304   5.359 -0.4466  0.0644  0.1481
    2DOPE  H16S  204   4.217   4.425   5.237  0.4145 -1.3804 -2.0630
    2DOPE  C217  205   4.140   4.237   5.201 -0.2556 -0.1119  0.1327
    2DOPE  H17R  206   4.058   4.270   5.134  0.7008  0.3596 -0.8254
    2DOPE  H17S  207   4.098   4.144   5.245  0.2423 -0.4515 -0.1031
    2DOPE  C218  208   4.261   4.203   5.117  0.5873 -0.2565  0.5635
    2DOPE  H18R  209   4.255   4.148   5.021  2.9052  0.6222 -0.1378
    2DOPE  H18S  210   4.343   4.150   5.170  0.9900 -2.2641 -1.8956
    2DOPE  H18T  211   4.316   4.296   5.089  0.5850 -0.4309 -0.0245
    2DOPE   C33  212   4.208   4.985   6.693  0.4428  0.2135  0.4089
    2DOPE   H3X  213   4.266   4.891   6.678  0.7934  0.3724  0.7468
    2DOPE   H3Y  214   4.264   5.062   6.750  2.9002 -0.7471 -0.5410
    2DOPE   C34  215   4.190   5.048   6.551  0.1887 -0.2532  0.2199
    2DOPE   H4X  216   4.110   5.125   6.561 -2.1684 -2.5656  0.1012
    2DOPE   H4Y  217   4.282   5.097   6.511 -0.9082  0.6486 -1.3299
    2DOPE   C35  218   4.138   4.951   6.447  0.1139  0.6261 -0.3440
    2DOPE   H5X  219   4.039   4.903   6.455 -0.8359  2.1146 -2.2001
    2DOPE   H5Y  220   4.215   4.871   6.447  2.7990  3.0213 -0.1739
    2DOPE   C36  221   4.155   4.992   6.295  0.6936 -0.1363  0.8714
    2DOPE   H6X  222   4.259   5.029   6.282  0.2364  0.6168 -1.0730
    2DOPE   H6Y  223   4.087   5.075   6.267 -1.2591 -1.8098  0.4326
    2DOPE   C37  224   4.126   4.883   6.183  0.4528  0.1697 -0.2560
    2DOPE   H7X  225   4.190   4.796   6.211  0.3009  0.1970  0.1798
    2DOPE   H7Y  226   4.017   4.865   6.187  0.7354 -1.7817 -0.0116
    2DOPE   C38  227   4.169   4.931   6.039 -0.1085  0.0462 -0.2784
    2DOPE   H8X  228   4.277   4.953   6.052  0.1642 -1.8601  1.1219
    2DOPE   H8Y  229   4.119   5.029   6.021  0.4901  0.5042  0.4861
    2DOPE   C39  230   4.136   4.844   5.918 -0.7745 -0.3774 -0.0646
    2DOPE   H9X  231   4.034   4.846   5.878  0.0242 -3.4716 -2.6195
    2DOPE  C310  232   4.223   4.788   5.834 -0.6035  0.3497  0.6818
    2DOPE  H10X  233   4.175   4.735   5.751 -0.0345 -0.8022  1.0589
    2DOPE  C311  234   4.373   4.776   5.847 -0.0660  0.3304  0.2888
    2DOPE  H11X  235   4.423   4.826   5.761 -0.3841  2.9574  1.5200
    2DOPE  H11Y  236   4.402   4.832   5.939 -0.8738  0.1131  0.6885
    2DOPE  C312  237   4.403   4.628   5.863 -0.0109 -0.6052 -0.2963
    2DOPE  H12X  238   4.336   4.590   5.943 -0.2694  1.0478  0.3205
    2DOPE  H12Y  239   4.504   4.619   5.907 -0.1337 -0.5736 -0.0084
    2DOPE  C313  240   4.379   4.542   5.740  1.5719 -0.4721 -0.5803
    2DOPE  H13X  241   4.269   4.530   5.729  1.6568 -1.6217 -0.2874
    2DOPE  H13Y  242   4.416   4.596   5.650  0.8533  1.5633  0.3064
    2DOPE  C314  243   4.449   4.407   5.739  0.2445  0.8104  0.2290
    2DOPE  H14X  244   4.398   4.351   5.820 -1.4799 -2.3949 -2.8282
    2DOPE  H14Y  245   4.558   4.413   5.762 -0.1004  1.4507  1.8620
    2DOPE  C315  246   4.429   4.329   5.613 -0.5375 -0.5392  0.5081
    2DOPE  H15X  247   4.489   4.388   5.539 -1.8352  0.9320  0.5855
    2DOPE  H15Y  248   4.325   4.303   5.583  0.2503 -2.7117 -0.5704
    2DOPE  C316  249   4.501   4.189   5.616 -0.0431 -0.2023  0.6891
    2DOPE  H16X  250   4.493   4.138   5.715  2.2473 -3.8825 -0.8204
    2DOPE  H16Y  251   4.611   4.202   5.608 -0.2091  0.4275 -0.7256
    2DOPE  C317  252   4.465   4.094   5.505  0.4561  0.1338  0.3666
    2DOPE  H17X  253   4.356   4.092   5.483  0.2956  0.9128  1.0416
    2DOPE  H17Y  254   4.506   4.128   5.407  0.5344 -0.4927  0.1791
    2DOPE  C318  255   4.510   3.954   5.535  0.6812 -0.2805  0.0747
    2DOPE  H18X  256   4.481   3.910   5.633  1.5500 -1.0913 -0.0249
    2DOPE  H18Y  257   4.457   3.891   5.460  2.6519  0.2913 -1.8998
    2DOPE  H18Z  258   4.620   3.942   5.537  0.6869 -0.3990 -0.8083
    3DOPE     N  259   2.331   4.164   6.925 -0.2919 -0.0973 -0.0481
    3DOPE   HN1  260   2.381   4.249   6.893  0.1959 -0.4179 -0.1473
    3DOPE   HN2  261   2.228   4.173   6.917 -0.2302  0.4841 -0.2357
    3DOPE   HN3  262   2.344   4.164   7.028  0.5596  0.5438 -0.1415
    3DOPE   C12  263   2.398   4.044   6.871 -0.2985  0.2051 -0.4432
    3DOPE  H12A  264   2.466   4.066   6.787  1.1711 -3.7006 -0.4554
    3DOPE  H12B  265   2.313   3.981   6.837 -0.6748  0.7381 -0.5108
    3DOPE   C11  266   2.470   3.970   6.987  0.1068 -0.0198  0.7365
    3DOPE  H11A  267   2.541   3.895   6.946  2.0944  1.0596  2.0190
    3DOPE  H11B  268   2.390   3.922   7.048  1.1188 -3.0512 -0.1422
    3DOPE     P  269   2.680   4.005   7.138 -0.1109 -0.2375  0.4432
    3DOPE   O13  270   2.641   3.889   7.226  0.0303  0.2031  0.0553
    3DOPE   O14  271   2.748   4.122   7.213  0.0314  0.2042  0.3065
    3DOPE   O11  272   2.773   3.963   7.011  0.4736  0.0709 -0.4052
    3DOPE   O12  273   2.546   4.063   7.065 -0.5382 -0.2728 -0.1308
    3DOPE    C1  274   2.801   4.063   6.912 -0.3921 -0.2348 -0.8384
    3DOPE    HA  275   2.856   4.149   6.955  1.4783 -1.1482 -1.2939
    3DOPE    HB  276   2.709   4.105   6.866 -0.0019  0.6545 -0.8254
    3DOPE    C2  277   2.882   4.004   6.789 -0.0762 -0.1502  0.1912
    3DOPE    HS  278   2.865   4.083   6.713  0.6955 -0.4042 -0.2448
    3DOPE   O21  279   2.827   3.877   6.748 -0.1711 -0.6951 -0.0698
    3DOPE   C21  280   2.812   3.850   6.617  0.1895  0.6317 -0.1205
    3DOPE   O22  281   2.838   3.925   6.530 -0.0425 -0.1415  0.1674
    3DOPE   C22  282   2.778   3.694   6.602  0.8152  0.4687  0.1118
    3DOPE   H2R  283   2.677   3.684   6.556  0.1676 -1.4540  1.7987
    3DOPE   H2S  284   2.764   3.646   6.701  0.3231 -1.1029 -0.6976
    3DOPE    C3  285   3.025   4.000   6.829 -0.1222  0.2567  0.2266
    3DOPE    HX  286   3.037   3.934   6.918  1.2914 -2.0223 -1.5319
    3DOPE    HY  287   3.075   4.092   6.865 -1.5798  1.4539 -0.7036
    3DOPE   O31  288   3.104   3.942   6.721  0.2134  0.4216 -0.2092
    3DOPE   C31  289   3.129   4.015   6.610 -0.1411  0.2068 -0.8704
    3DOPE   O32  290   3.108   4.137   6.600 -0.1147  0.3113 -0.2778
    3DOPE   C32  291   3.189   3.935   6.497  0.4314  0.2969 -0.9252
    3DOPE   H2X  292   3.188   3.826   6.518 -3.6538  0.0280 -1.6192
    3DOPE   H2Y  293   3.112   3.959   6.420  1.3479 -0.7298 -2.2182
    3DOPE   C23  294   2.877   3.609   6.528  0.0912  0.1085 -0.0930
    3DOPE   H3R  295   2.869   3.504   6.563  1.3871  0.0577  0.0873
    3DOPE   H3S  296   2.983   3.639   6.539 -0.5312  2.5973 -0.2209
    3DOPE   C24  297   2.866   3.611   6.377 -0.0070 -0.2498  0.1366
    3DOPE   H4R  298   2.877   3.719   6.352 -2.2947 -0.0957 -0.4231
    3DOPE   H4S  299   2.766   3.586   6.338 -0.0755  0.6770 -0.3207
    3DOPE   C25  300   2.961   3.516   6.304 -0.4564  0.6797 -0.1335
    3DOPE   H5R  301   2.942   3.412   6.338  2.5252  0.1378  0.1669
    3DOPE   H5S  302   3.066   3.535   6.335 -0.3382 -0.8794  0.5143
    3DOPE   C26  303   2.944   3.521   6.150 -0.4674  0.4435 -0.1416
    3DOPE   H6R  304   2.849   3.468   6.124  0.7776 -1.3518 -1.3204
    3DOPE   H6S  305   3.022   3.464   6.094 -0.7956 -0.3121  0.1572
    3DOPE   C27  306   2.932   3.664   6.096 -0.6054  0.1089  0.8693
    3DOPE   H7R  307   3.023   3.711   6.138 -0.6699 -1.9117  3.5810
    3DOPE   H7S  308   2.841   3.710   6.140 -1.0098  0.3620 -0.1964
    3DOPE   C28  309   2.910   3.680   5.942  0.0489  0.9120 -0.7136
    3DOPE   H8R  310   2.807   3.649   5.916 -0.1004  0.1995  0.6485
    3DOPE   H8S  311   2.980   3.617   5.884  2.8689  0.8378  2.4254
    3DOPE   C29  312   2.935   3.824   5.911  0.0361  0.1541  0.3369
    3DOPE   H9R  313   2.860   3.896   5.947  1.2148  1.7611 -0.3146
    3DOPE  C210  314   3.032   3.881   5.841  0.4136  0.0358 -0.2885
    3DOPE  H10R  315   3.012   3.982   5.804 -1.3078 -1.0706 -2.7079
    3DOPE  C211  316   3.147   3.806   5.779  0.5663  0.3526 -0.4182
    3DOPE  H11R  317   3.162   3.708   5.830  1.2875 -0.2284 -1.6884
    3DOPE  H11S  318   3.242   3.860   5.795  0.8556 -0.3632  0.3710
    3DOPE  C212  319   3.121   3.815   5.634 -0.2303 -0.3562  0.7866
    3DOPE  H12R  320   3.129   3.921   5.600 -5.1445 -0.0409 -0.1649
    3DOPE  H12S  321   3.016   3.792   5.607 -0.4707  2.1241 -0.7589
    3DOPE  C213  322   3.211   3.719   5.556 -0.2988 -0.5830 -0.1401
    3DOPE  H13R  323   3.173   3.696   5.454  1.4101 -3.3760 -0.2652
    3DOPE  H13S  324   3.205   3.630   5.622  0.2402  0.2452  1.0764
    3DOPE  C214  325   3.357   3.763   5.534 -0.7958  0.3798 -0.0919
    3DOPE  H14R  326   3.415   3.676   5.496 -1.9572 -0.9585  1.0996
    3DOPE  H14S  327   3.407   3.812   5.620  0.9700 -2.3822  0.5918
    3DOPE  C215  328   3.377   3.870   5.428 -0.8836 -0.5191  0.0807
    3DOPE  H15R  329   3.324   3.965   5.449 -0.3770 -0.3292  0.5299
    3DOPE  H15S  330   3.353   3.841   5.323 -1.6055  2.1246 -0.5822
    3DOPE  C216  331   3.528   3.912   5.429 -0.0952  0.5061  0.2307
    3DOPE  H16R  332   3.592   3.828   5.463 -0.1633  0.9934  1.6489
    3DOPE  H16S  333   3.540   3.986   5.512 -2.9548 -0.3070  1.4961
    3DOPE  C217  334   3.576   3.985   5.300  0.5821 -0.0593 -0.0574
    3DOPE  H17R  335   3.515   4.076   5.279  0.5275  0.5793  2.4632
    3DOPE  H17S  336   3.555   3.921   5.212 -3.3812  1.7960 -0.7174
    3DOPE  C218  337   3.723   4.034   5.312 -0.4971 -0.3233  0.0541
    3DOPE  H18R  338   3.722   4.096   5.404 -2.2681 -1.7995  1.1006
    3DOPE  H18S  339   3.758   4.097   5.228 -1.6430  0.9819  0.5140
    3DOPE  H18T  340   3.786   3.944   5.325 -0.1875 -0.1645 -0.3343
    3DOPE   C33  341   3.329   3.985   6.458 -0.6912 -0.3003 -0.3386
    3DOPE   H3X  342   3.400   3.900   6.465  0.4216  0.6643  0.3917
    3DOPE   H3Y  343   3.377   4.050   6.534  0.9140  1.1203 -2.4852
    3DOPE   C34  344   3.335   4.060   6.327  0.6207 -0.4517  0.5944
    3DOPE   H4X  345   3.264   4.145   6.315  0.7683 -0.1543  1.7565
    3DOPE   H4Y  346   3.438   4.100   6.322  1.1623 -1.7363  1.2533
    3DOPE   C35  347   3.331   3.959   6.211  0.4071 -0.4221 -0.0363
    3DOPE   H5X  348   3.224   3.931   6.210  0.3330 -0.2007  0.7460
    3DOPE   H5Y  349   3.388   3.864   6.214 -0.6327 -1.0494  0.7300
    3DOPE   C36  350   3.359   4.035   6.076  0.5158  0.0784 -0.3587
    3DOPE   H6X  351   3.303   4.129   6.058  0.6164  0.6165  1.8118
    3DOPE   H6Y  352   3.314   3.969   5.999  1.5206 -0.9361 -0.1090
    3DOPE   C37  353   3.508   4.055   6.042 -0.5017  0.3752  0.0240
    3DOPE   H7X  354   3.549   4.131   6.112 -0.6340  0.7387 -0.2927
    3DOPE   H7Y  355   3.563   3.960   6.060 -0.5092  0.4653  0.5243
    3DOPE   C38  356   3.529   4.109   5.890 -0.4148 -0.3653 -0.4355
    3DOPE   H8X  357   3.484   4.030   5.826 -1.6434 -0.3763  0.4112
    3DOPE   H8Y  358   3.639   4.119   5.874 -0.3018  1.8469  1.2421
    3DOPE   C39  359   3.471   4.244   5.879  0.0117 -1.3203  0.0895
    3DOPE   H9X  360   3.468   4.314   5.965  0.8424  2.2829 -2.5604
    3DOPE  C310  361   3.395   4.284   5.780 -0.2068 -0.5480 -0.2123
    3DOPE  H10X  362   3.338   4.378   5.786  0.5078 -0.2004  1.6967
    3DOPE  C311  363   3.370   4.204   5.652 -0.4889  0.0346 -0.4988
    3DOPE  H11X  364   3.459   4.214   5.586  0.3579  3.3908  0.9252
    3DOPE  H11Y  365   3.350   4.098   5.677 -1.9548  0.0336 -1.5445
    3DOPE  C312  366   3.243   4.242   5.565 -0.7164 -0.0050 -0.3789
    3DOPE  H12X  367   3.225   4.152   5.503  0.0312 -0.3334 -0.1372
    3DOPE  H12Y  368   3.275   4.324   5.497  1.0804 -1.3427 -1.2353
    3DOPE  C313  369   3.118   4.269   5.644  0.0567  0.2884 -0.6518
    3DOPE  H13X  370   3.103   4.210   5.737  2.3891 -0.2553 -0.5508
    3DOPE  H13Y  371   3.132   4.371   5.686 -3.6327  0.9469 -0.7535
    3DOPE  C314  372   2.982   4.254   5.560 -0.5637  0.1790  0.2078
    3DOPE  H14X  373   2.893   4.257   5.627 -0.3152 -1.9958  0.7173
    3DOPE  H14Y  374   2.982   4.161   5.500 -0.7572  0.9214 -0.9771
    3DOPE  C315  375   2.965   4.377   5.461  0.5760  0.5380  1.1062
    3DOPE  H15X  376   3.035   4.371   5.375  0.9566  2.0869  1.2893
    3DOPE  H15Y  377   2.982   4.470   5.519 -1.7118  0.6917  1.6405
    3DOPE  C316  378   2.817   4.385   5.403 -0.2856 -0.3158 -0.0354
    3DOPE  H16X  379   2.750   4.401   5.490  1.7315  0.7209  1.3853
    3DOPE  H16Y  380   2.795   4.285   5.359  1.8087 -1.0754  0.5523
    3DOPE  C317  381   2.801   4.500   5.311  0.6257  0.1647  0.4496
    3DOPE  H17X  382   2.787   4.590   5.374  0.6600 -0.6787  1.6867
    3DOPE  H17Y  383   2.893   4.516   5.250  1.4417 -0.9904  1.3097
    3DOPE  C318  384   2.687   4.479   5.212 -0.0581 -0.4097  0.0238
    3DOPE  H18X  385   2.680   4.563   5.140 -1.2246  0.0630  0.6466
    3DOPE  H18Y  386   2.691   4.378   5.166  0.6030  1.0694 -3.4798
    3DOPE  H18Z  387   2.587   4.485   5.262  0.4056 -0.1155  0.9329
    4DOPE     N  388   4.922   1.682   7.056 -0.1881 -0.2858 -0.5760
    4DOPE   HN1  389   4.856   1.750   7.099 -0.4309  0.4494 -2.0619
    4DOPE   HN2  390   4.900   1.592   7.102  1.4715  0.2634  1.4913
    4DOPE   HN3  391   5.023   1.700   7.074 -0.3160  1.2617 -1.2035
    4DOPE   C12  392   4.904   1.682   6.911 -0.2585  0.3032  0.4554
    4DOPE  H12A  393   4.961   1.596   6.869 -1.3394 -0.7652  1.1023
    4DOPE  H12B  394   4.958   1.766   6.863  0.1209  0.6513  1.4576
    4DOPE   C11  395   4.759   1.649   6.881  0.1115  0.9236 -0.4335
    4DOPE  H11A  396   4.724   1.560   6.938 -0.3057  1.4522  0.1483
    4DOPE  H11B  397   4.745   1.621   6.774 -1.0187 -1.4659  0.2546
    4DOPE     P  398   4.541   1.790   6.860  0.1094  0.5563  0.0970
    4DOPE   O13  399   4.507   1.939   6.869 -0.5939  0.5686  0.5407
    4DOPE   O14  400   4.450   1.697   6.918  0.2928 -0.2288 -0.2983
    4DOPE   O11  401   4.554   1.756   6.708 -0.3791 -0.5125 -0.1742
    4DOPE   O12  402   4.682   1.762   6.919  0.4682 -0.3177  0.5553
    4DOPE    C1  403   4.590   1.851   6.606  0.0282  0.5332  0.1560
    4DOPE    HA  404   4.553   1.955   6.623  0.0630  0.2715  2.1188
    4DOPE    HB  405   4.555   1.806   6.511  2.6912  1.6379 -1.4598
    4DOPE    C2  406   4.752   1.863   6.582  0.7102  0.3073  0.6022
    4DOPE    HS  407   4.789   1.860   6.686  1.8730  1.0247  0.2310
    4DOPE   O21  408   4.781   1.998   6.530 -0.1639  0.1170 -0.3416
    4DOPE   C21  409   4.906   2.026   6.504 -0.5551  0.4136  0.1960
    4DOPE   O22  410   5.000   1.964   6.550  0.1360  0.5401  0.1583
    4DOPE   C22  411   4.920   2.158   6.424 -1.3049 -0.3891 -0.7370
    4DOPE   H2R  412   4.907   2.247   6.489  3.4200  0.6825 -0.8958
    4DOPE   H2S  413   4.845   2.154   6.341 -0.0164 -4.0353 -1.9241
    4DOPE    C3  414   4.819   1.748   6.500  0.6274  0.2803 -0.1938
    4DOPE    HX  415   4.794   1.653   6.552  0.5154  1.9119  2.9856
    4DOPE    HY  416   4.930   1.751   6.511  0.6206 -1.4332  0.6141
    4DOPE   O31  417   4.770   1.763   6.363  0.1987 -0.0988  0.2586
    4DOPE   C31  418   4.822   1.670   6.287  0.1943 -0.5712  0.2155
    4DOPE   O32  419   4.892   1.582   6.327  0.5669 -0.6101  0.2868
    4DOPE   C32  420   4.796   1.708   6.137 -0.4890 -0.6295 -0.6365
    4DOPE   H2X  421   4.686   1.694   6.125 -0.4333 -0.2688 -1.5989
    4DOPE   H2Y  422   4.820   1.816   6.131  0.1095 -0.7432 -0.3272
    4DOPE   C23  423   5.066   2.166   6.371 -0.3101  0.4467 -0.1661
    4DOPE   H3R  424   5.149   2.165   6.445 -1.4970  0.7706  1.2076
    4DOPE   H3S  425   5.071   2.269   6.329 -0.2399  1.1626  1.5054
    4DOPE   C24  426   5.087   2.067   6.255  0.5154 -0.1933  0.9442
    4DOPE   H4R  427   4.987   2.057   6.208  0.5432 -2.7211  1.2710
    4DOPE   H4S  428   5.119   1.966   6.289 -1.5776 -1.1175  0.3674
    4DOPE   C25  429   5.185   2.121   6.147 -0.6461  0.6913  0.3826
    4DOPE   H5R  430   5.281   2.152   6.192 -0.3355  2.6782 -1.5039
    4DOPE   H5S  431   5.142   2.206   6.090  1.3010 -0.9588 -4.0533
    4DOPE   C26  432   5.211   2.012   6.042 -0.1926 -0.6222  0.7157
    4DOPE   H6R  433   5.124   1.950   6.010 -0.6302 -0.0085  0.7098
    4DOPE   H6S  434   5.278   1.936   6.088 -1.0525 -2.1344 -0.4101
    4DOPE   C27  435   5.277   2.060   5.914  0.7674  0.4956 -0.2026
    4DOPE   H7R  436   5.353   2.137   5.936  1.6788 -0.1205 -1.1336
    4DOPE   H7S  437   5.193   2.111   5.862 -0.1478  0.2788  1.0086
    4DOPE   C28  438   5.325   1.943   5.828  0.2047 -0.7567  0.2616
    4DOPE   H8R  439   5.330   1.977   5.722  0.1328 -1.1027  0.1453
    4DOPE   H8S  440   5.254   1.858   5.839 -1.8857  0.9506  0.6666
    4DOPE   C29  441   5.460   1.899   5.874  0.8422 -0.1609 -0.2875
    4DOPE   H9R  442   5.492   1.929   5.975  1.8963  1.4742 -1.0758
    4DOPE  C210  443   5.546   1.837   5.792 -0.1463  0.6449 -0.8641
    4DOPE  H10R  444   5.650   1.817   5.821 -0.3166 -1.6336 -1.6311
    4DOPE  C211  445   5.519   1.807   5.647  0.3521  0.4668  0.5896
    4DOPE  H11R  446   5.510   1.900   5.587  0.2156  0.5852  0.7898
    4DOPE  H11S  447   5.415   1.767   5.643 -0.2566  1.9870  0.4666
    4DOPE  C212  448   5.615   1.710   5.576  0.1568  0.0770  0.9581
    4DOPE  H12R  449   5.597   1.608   5.616  0.6827  0.1821  1.4818
    4DOPE  H12S  450   5.724   1.726   5.592  0.5104 -2.5038  1.5046
    4DOPE  C213  451   5.605   1.727   5.417 -0.7377  0.5017  0.1338
    4DOPE  H13R  452   5.646   1.828   5.398 -0.0824  0.3415  0.6278
    4DOPE  H13S  453   5.502   1.709   5.379 -0.2634  0.3451 -1.1053
    4DOPE  C214  454   5.701   1.638   5.343  0.3079  0.4083  0.3924
    4DOPE  H14R  455   5.713   1.549   5.408 -1.0355 -3.0457 -3.6248
    4DOPE  H14S  456   5.797   1.688   5.319  0.3966 -0.1640 -0.4957
    4DOPE  C215  457   5.639   1.584   5.209 -0.6018 -0.4077 -0.1918
    4DOPE  H15R  458   5.623   1.667   5.137 -2.7653 -0.7308 -0.1672
    4DOPE  H15S  459   5.546   1.533   5.242  0.7536 -1.7293  1.8096
    4DOPE  C216  460   5.725   1.479   5.134  0.0606  0.6319  0.2106
    4DOPE  H16R  461   5.754   1.407   5.213 -0.0895  0.9668  0.5779
    4DOPE  H16S  462   5.822   1.528   5.108 -0.0135  0.4966 -0.3299
    4DOPE  C217  463   5.662   1.405   5.013 -0.8101  0.0533 -0.2482
    4DOPE  H17R  464   5.599   1.474   4.953 -0.1798  1.1305  0.2964
    4DOPE  H17S  465   5.600   1.318   5.044 -1.4801  1.2178  1.9164
    4DOPE  C218  466   5.764   1.337   4.928 -0.1953 -0.8799  0.0548
    4DOPE  H18R  467   5.843   1.414   4.913  0.7795 -1.2552  2.7713
    4DOPE  H18S  468   5.720   1.299   4.833 -0.7749  1.0672 -0.5045
    4DOPE  H18T  469   5.811   1.253   4.984 -0.3243 -0.3351  0.9964
    4DOPE   C33  470   4.875   1.621   6.038  0.5873  0.4299  0.4634
    4DOPE   H3X  471   4.855   1.515   6.067 -1.2102  1.2199  2.3301
    4DOPE   H3Y  472   4.985   1.633   6.036  0.8148 -0.5883  3.0781
    4DOPE   C34  473   4.811   1.642   5.901 -0.1689  0.4837 -0.6654
    4DOPE   H4X  474   4.700   1.639   5.907 -0.2003  1.5265 -0.5686
    4DOPE   H4Y  475   4.844   1.746   5.879  1.3172 -0.0348 -0.9772
    4DOPE   C35  476   4.873   1.569   5.785 -0.5150 -0.4573  0.2579
    4DOPE   H5X  477   4.797   1.574   5.704  0.7009  0.4243 -0.8778
    4DOPE   H5Y  478   4.879   1.465   5.823 -1.6664  0.0866  2.0309
    4DOPE   C36  479   5.010   1.615   5.739 -0.1318 -0.1590  0.8846
    4DOPE   H6X  480   5.070   1.579   5.825  0.1179 -0.0916  0.7400
    4DOPE   H6Y  481   5.028   1.724   5.727 -0.8524 -0.3552 -3.2075
    4DOPE   C37  482   5.071   1.541   5.621 -0.2595  0.2875  0.3735
    4DOPE   H7X  483   5.175   1.578   5.615 -1.1423  2.7170 -1.6808
    4DOPE   H7Y  484   5.075   1.431   5.635  0.8897  0.2661 -0.0442
    4DOPE   C38  485   5.025   1.589   5.485 -0.2137  0.4145 -0.3153
    4DOPE   H8X  486   5.107   1.606   5.412 -0.4504  2.5876 -0.1555
    4DOPE   H8Y  487   4.980   1.689   5.506 -0.2957  0.2174  0.4598
    4DOPE   C39  488   4.921   1.508   5.425  0.4800 -0.1095  0.7827
    4DOPE   H9X  489   4.819   1.533   5.456  0.5928  1.0515  0.2661
    4DOPE  C310  490   4.934   1.401   5.345  0.8125 -0.2304 -0.3698
    4DOPE  H10X  491   4.842   1.364   5.298  1.7241  0.7251 -3.1183
    4DOPE  C311  492   5.063   1.335   5.305 -0.0010 -0.4849  1.0389
    4DOPE  H11X  493   5.151   1.398   5.331 -0.6103 -0.0741  2.1392
    4DOPE  H11Y  494   5.081   1.237   5.353  3.4272  0.3073  1.6435
    4DOPE  C312  495   5.065   1.310   5.153  0.1791  0.5081  0.0066
    4DOPE  H12X  496   5.079   1.405   5.098  1.1793  0.3395 -0.0430
    4DOPE  H12Y  497   4.973   1.257   5.120 -0.3790  0.1888  1.9586
    4DOPE  C313  498   5.188   1.225   5.132  0.0491  0.2238  0.5664
    4DOPE  H13X  499   5.284   1.267   5.169  0.4906  2.3949 -2.6050
    4DOPE  H13Y  500   5.160   1.131   5.185 -2.1115  0.2287 -0.4643
    4DOPE  C314  501   5.221   1.202   4.982 -0.6101 -0.6696  0.1265
    4DOPE  H14X  502   5.129   1.174   4.925 -0.2518  1.6260 -1.7499
    4DOPE  H14Y  503   5.290   1.115   4.977 -1.1580 -1.0711 -0.6024
    4DOPE  C315  504   5.282   1.322   4.911  0.1801 -0.5459  0.5288
    4DOPE  H15X  505   5.382   1.360   4.944  0.8681  0.4768 -2.4440
    4DOPE  H15Y  506   5.210   1.405   4.898  0.6311 -0.5151 -2.3157
    4DOPE  C316  507   5.314   1.273   4.775 -0.7132  0.1978  0.3354
    4DOPE  H16X  508   5.216   1.235   4.738 -1.3533  1.0316  1.1043
    4DOPE  H16Y  509   5.386   1.191   4.795 -0.2646  0.4841 -0.1115
    4DOPE  C317  510   5.375   1.368   4.673 -0.7815 -0.4252  0.1635
    4DOPE  H17X  511   5.324   1.465   4.659 -0.9309 -0.8097 -2.4217
    4DOPE  H17Y  512   5.483   1.383   4.695 -0.0404  1.1784 -3.6835
    4DOPE  C318  513   5.387   1.302   4.535 -0.1196 -0.0879 -0.4917
    4DOPE  H18X  514   5.410   1.194   4.539  0.8822  0.1166 -0.2820
    4DOPE  H18Y  515   5.289   1.313   4.485 -0.6366  0.9536  0.6898
    4DOPE  H18Z  516   5.460   1.354   4.469  0.3781  0.7403  0.6688
    5DOPE     N  517   0.828   3.003   7.128  0.0065 -0.3170 -0.0882
    5DOPE   HN1  518   0.810   2.908   7.167  1.3082  0.1676  1.8734
    5DOPE   HN2  519   0.889   3.056   7.194  0.2728  2.5322 -2.4206
    5DOPE   HN3  520   0.739   3.057   7.130  0.1035 -0.1012 -1.0309
    5DOPE   C12  521   0.890   2.996   6.986  0.1240  0.0028  0.4981
    5DOPE  H12A  522   0.811   2.945   6.927  1.4284  1.3057 -2.5728
    5DOPE  H12B  523   0.988   2.943   6.995  0.1452  0.0337  0.4465
    5DOPE   C11  524   0.910   3.132   6.910 -0.1955  0.9034 -0.4698
    5DOPE  H11A  525   0.824   3.202   6.901 -0.2403  1.0783  1.0479
    5DOPE  H11B  526   0.937   3.110   6.804 -0.3300  0.8064 -0.4841
    5DOPE     P  527   1.002   3.345   7.028 -0.6072  0.0091 -0.4133
    5DOPE   O13  528   1.124   3.395   7.093  0.2698 -0.1172 -0.1652
    5DOPE   O14  529   0.887   3.331   7.119 -0.1416 -0.1706  0.5701
    5DOPE   O11  530   0.966   3.444   6.902  0.4641 -0.3488  0.3941
    5DOPE   O12  531   1.022   3.206   6.960  0.2279  0.1162 -0.2288
    5DOPE    C1  532   1.055   3.462   6.792  0.6487 -0.1525 -0.6499
    5DOPE    HA  533   1.157   3.420   6.803  0.1760 -1.4736 -1.1024
    5DOPE    HB  534   1.068   3.571   6.775  1.8820 -0.4147 -1.5118
    5DOPE    C2  535   0.997   3.410   6.658  0.8898  0.5110  0.2109
    5DOPE    HS  536   1.014   3.300   6.652 -1.6010  0.1396 -2.3742
    5DOPE   O21  537   1.058   3.479   6.551 -0.4048 -0.1044  0.1452
    5DOPE   C21  538   1.159   3.423   6.504  0.1566 -0.3905 -0.5409
    5DOPE   O22  539   1.216   3.323   6.538 -0.1949 -0.2906  0.0729
    5DOPE   C22  540   1.237   3.512   6.406  0.3122  0.1089 -1.3577
    5DOPE   H2R  541   1.344   3.484   6.416  0.3246  0.2191 -1.1949
    5DOPE   H2S  542   1.214   3.618   6.430 -0.1663 -0.0113 -1.2850
    5DOPE    C3  543   0.843   3.431   6.650  0.3505 -0.1474  0.5778
    5DOPE    HX  544   0.825   3.539   6.670 -0.6346 -0.0827 -0.5762
    5DOPE    HY  545   0.791   3.370   6.726 -1.0625 -1.6745 -1.5142
    5DOPE   O31  546   0.795   3.392   6.517  0.0495 -0.6054  0.0262
    5DOPE   C31  547   0.781   3.494   6.439  0.0935 -0.0700 -0.8410
    5DOPE   O32  548   0.771   3.611   6.472 -0.2375  0.1064  0.3355
    5DOPE   C32  549   0.778   3.434   6.294  0.3541 -0.4023 -0.4190
    5DOPE   H2X  550   0.877   3.386   6.276  1.2129  0.5815  1.3760
    5DOPE   H2Y  551   0.686   3.372   6.301  0.6037 -0.8407 -0.9252
    5DOPE   C23  552   1.181   3.488   6.264 -0.7880 -0.1730 -0.7967
    5DOPE   H3R  553   1.070   3.496   6.265 -0.6970  1.3937  0.0083
    5DOPE   H3S  554   1.211   3.393   6.215 -2.6572 -1.4886  0.4546
    5DOPE   C24  555   1.231   3.606   6.172  0.2466  0.4018 -0.0670
    5DOPE   H4R  556   1.200   3.703   6.215  0.7915  1.0503 -1.0874
    5DOPE   H4S  557   1.192   3.597   6.068 -0.2473 -0.9047  0.2104
    5DOPE   C25  558   1.383   3.610   6.165 -0.3380 -0.6368  0.3877
    5DOPE   H5R  559   1.408   3.518   6.107  0.4400 -1.8281  2.4990
    5DOPE   H5S  560   1.434   3.594   6.262 -1.3246 -2.4177  0.6410
    5DOPE   C26  561   1.431   3.732   6.085  0.0695 -0.3686  0.0216
    5DOPE   H6R  562   1.538   3.752   6.108 -0.0623 -0.3274  0.5982
    5DOPE   H6S  563   1.373   3.822   6.114 -0.5804 -1.1722  1.2949
    5DOPE   C27  564   1.407   3.720   5.938 -0.0343 -0.6557  0.7492
    5DOPE   H7R  565   1.300   3.690   5.927  0.0376 -0.7164  0.2029
    5DOPE   H7S  566   1.467   3.641   5.889 -0.2611  0.2841 -1.1580
    5DOPE   C28  567   1.413   3.852   5.859 -0.6760  0.2399  0.0135
    5DOPE   H8R  568   1.332   3.914   5.903 -1.1333  0.6156 -1.3225
    5DOPE   H8S  569   1.393   3.834   5.752  1.7932 -0.3335 -0.4266
    5DOPE   C29  570   1.545   3.923   5.884 -0.0980  0.2365  0.1077
    5DOPE   H9R  571   1.567   3.948   5.988 -0.4981 -1.4933  0.6395
    5DOPE  C210  572   1.640   3.967   5.793  0.1263 -0.2368 -0.0087
    5DOPE  H10R  573   1.730   4.020   5.827 -1.1861  2.1205  0.0048
    5DOPE  C211  574   1.624   3.953   5.640 -0.0429 -0.2697  0.4114
    5DOPE  H11R  575   1.519   3.968   5.608 -0.0360 -1.4778 -0.2519
    5DOPE  H11S  576   1.629   3.845   5.612 -1.5585 -0.3126  0.2469
    5DOPE  C212  577   1.693   4.064   5.554 -0.2005  0.1379  0.5708
    5DOPE  H12R  578   1.800   4.081   5.580  0.2517 -1.8627  0.2243
    5DOPE  H12S  579   1.639   4.160   5.567 -0.0050  0.1473  1.3891
    5DOPE  C213  580   1.690   4.025   5.406 -0.2134  0.6661  0.2878
    5DOPE  H13R  581   1.602   3.972   5.365  1.2431  0.1029 -2.3348
    5DOPE  H13S  582   1.775   3.956   5.387 -1.4052 -1.1644  1.3216
    5DOPE  C214  583   1.700   4.148   5.311  0.8252  0.5317 -0.2780
    5DOPE  H14R  584   1.787   4.200   5.355  0.1095  1.0536  0.5533
    5DOPE  H14S  585   1.609   4.211   5.324  0.1788 -0.4389 -0.0392
    5DOPE  C215  586   1.722   4.120   5.166  0.0561 -0.1607  0.4965
    5DOPE  H15R  587   1.795   4.040   5.144  0.1506  0.2646 -0.8418
    5DOPE  H15S  588   1.772   4.207   5.119  1.2389 -1.6589 -1.1631
    5DOPE  C216  589   1.594   4.093   5.086 -0.5027 -0.1220 -0.4962
    5DOPE  H16R  590   1.539   4.190   5.084 -0.6597 -0.2131 -0.5658
    5DOPE  H16S  591   1.535   4.024   5.150 -1.0540  0.9372  0.1603
    5DOPE  C217  592   1.615   4.067   4.937 -0.1027  0.0892 -0.4150
    5DOPE  H17R  593   1.662   4.159   4.897 -0.4143  0.9051  1.0167
    5DOPE  H17S  594   1.514   4.060   4.892  0.0885 -1.8914 -0.6416
    5DOPE  C218  595   1.691   3.934   4.894 -0.0846  0.2436 -0.0066
    5DOPE  H18R  596   1.696   3.938   4.783  0.6499  0.0532  0.0181
    5DOPE  H18S  597   1.636   3.848   4.940 -0.4069  0.7961  0.6671
    5DOPE  H18T  598   1.795   3.931   4.933 -0.0101  0.7342 -0.1625
    5DOPE   C33  599   0.760   3.538   6.191  0.3282  0.0175 -0.0451
    5DOPE   H3X  600   0.849   3.605   6.197  1.9275 -1.7961 -1.8082
    5DOPE   H3Y  601   0.686   3.617   6.213  0.5900  0.2749 -0.0865
    5DOPE   C34  602   0.720   3.480   6.048 -0.7224 -0.2067  0.2658
    5DOPE   H4X  603   0.630   3.415   6.046 -1.3414  0.4436  2.7914
    5DOPE   H4Y  604   0.692   3.574   5.996  2.5453  0.4979 -0.4643
    5DOPE   C35  605   0.833   3.404   5.976  0.6155 -0.1717 -0.2675
    5DOPE   H5X  606   0.845   3.319   6.046 -0.8124 -1.8031 -1.9034
    5DOPE   H5Y  607   0.925   3.467   5.976 -0.1647  1.0692  1.8250
    5DOPE   C36  608   0.790   3.359   5.838 -0.2617 -0.0663 -0.3221
    5DOPE   H6X  609   0.693   3.305   5.851 -1.2402  1.8367  0.6238
    5DOPE   H6Y  610   0.854   3.282   5.790 -1.5725 -0.7304 -1.0807
    5DOPE   C37  611   0.785   3.475   5.743  0.2353  0.6996  0.1343
    5DOPE   H7X  612   0.716   3.552   5.785 -2.6345 -1.4476 -0.2908
    5DOPE   H7Y  613   0.878   3.528   5.716  1.0138 -0.8124 -0.2788
    5DOPE   C38  614   0.730   3.435   5.597  0.2505  0.3364 -0.0542
    5DOPE   H8X  615   0.723   3.533   5.546  1.6216  0.2802 -0.3965
    5DOPE   H8Y  616   0.631   3.386   5.609 -0.1356  0.4919 -2.1947
    5DOPE   C39  617   0.826   3.349   5.516 -0.4566  0.5214  0.2323
    5DOPE   H9X  618   0.926   3.352   5.563 -0.9730 -0.2404  1.4286
    5DOPE  C310  619   0.809   3.267   5.415 -0.5283 -0.0728  0.1347
    5DOPE  H10X  620   0.899   3.227   5.367 -1.1957  0.1206 -1.3303
    5DOPE  C311  621   0.680   3.238   5.345  1.0969  0.5385  0.5246
    5DOPE  H11X  622   0.593   3.208   5.407  0.6528 -0.0584 -0.3699
    5DOPE  H11Y  623   0.636   3.332   5.306 -0.9081 -0.2396  0.7722
    5DOPE  C312  624   0.705   3.143   5.231 -0.2539  0.2237  1.1887
    5DOPE  H12X  625   0.742   3.047   5.274 -0.4457 -1.0787 -1.3565
    5DOPE  H12Y  626   0.785   3.190   5.170 -0.4627  1.2378  1.6819
    5DOPE  C313  627   0.572   3.116   5.163 -0.2251 -0.7628 -0.5831
    5DOPE  H13X  628   0.497   3.061   5.223  0.0361 -0.1427  0.3350
    5DOPE  H13Y  629   0.513   3.207   5.137 -1.9626 -1.8787 -0.7378
    5DOPE  C314  630   0.580   3.044   5.030 -0.6801  0.1910 -0.4180
    5DOPE  H14X  631   0.498   2.975   5.003 -0.9191  1.2942 -2.8093
    5DOPE  H14Y  632   0.676   2.987   5.028 -1.6438 -1.5315  0.3167
    5DOPE  C315  633   0.579   3.134   4.911 -0.1046 -0.4433 -0.5368
    5DOPE  H15X  634   0.658   3.210   4.924 -0.2839 -0.0663 -1.5980
    5DOPE  H15Y  635   0.478   3.179   4.908 -0.7535 -1.5492  2.0168
    5DOPE  C316  636   0.598   3.068   4.774  0.1278  0.3048 -0.1054
    5DOPE  H16X  637   0.527   2.983   4.778  1.2225 -0.5770  1.8271
    5DOPE  H16Y  638   0.702   3.036   4.757 -0.3469 -0.9897 -0.6635
    5DOPE  C317  639   0.546   3.149   4.655 -1.0754 -0.2739  0.4599
    5DOPE  H17X  640   0.439   3.169   4.677 -1.0056 -1.8236  2.6087
    5DOPE  H17Y  641   0.600   3.245   4.644 -2.4571  0.7911  2.3818
    5DOPE  C318  642   0.555   3.074   4.517 -1.0671  0.1672  0.0567
    5DOPE  H18X  643   0.473   3.003   4.495 -0.5703 -0.3228 -0.2459
    5DOPE  H18Y  644   0.558   3.153   4.440  2.1126 -0.1899 -0.3423
    5DOPE  H18Z  645   0.655   3.025   4.514  0.2017  2.5978  0.6034
    6DOPE     N  646   2.893   4.589   6.835  0.1948 -0.4585  0.0723
    6DOPE   HN1  647   2.907   4.691   6.823 -0.6279 -0.5526 -2.0498
    6DOPE   HN2  648   2.856   4.576   6.931  2.2526 -0.7585  0.8897
    6DOPE   HN3  649   2.983   4.538   6.846 -0.0230 -0.8554  0.0305
    6DOPE   C12  650   2.812   4.534   6.711 -1.2879  0.1008 -0.8336
    6DOPE  H12A  651   2.815   4.425   6.735  4.7869  0.2935  1.1964
    6DOPE  H12B  652   2.881   4.541   6.624 -1.8432 -1.1335 -1.3998
    6DOPE   C11  653   2.684   4.602   6.681 -0.3346 -0.7419  0.1043
    6DOPE  H11A  654   2.638   4.553   6.593  3.2465 -1.3909 -1.5843
    6DOPE  H11B  655   2.702   4.705   6.642  1.0968 -1.8746 -2.5013
    6DOPE     P  656   2.466   4.523   6.824 -0.5308 -0.2268  0.1051
    6DOPE   O13  657   2.401   4.588   6.938  0.2393  0.5719  0.4064
    6DOPE   O14  658   2.485   4.377   6.835 -0.0583  0.5684  0.1812
    6DOPE   O11  659   2.398   4.546   6.692  0.8308  0.1606  0.2359
    6DOPE   O12  660   2.599   4.606   6.791  0.2870 -0.6113  0.3285
    6DOPE    C1  661   2.255   4.545   6.669  0.1277 -0.0949 -0.2925
    6DOPE    HA  662   2.240   4.611   6.580 -1.1632 -0.7057 -0.5455
    6DOPE    HB  663   2.196   4.591   6.751 -0.0107 -1.0704  0.1701
    6DOPE    C2  664   2.197   4.405   6.645  0.0762  0.4027  0.0382
    6DOPE    HS  665   2.221   4.345   6.735  0.2984  0.0647 -0.2430
    6DOPE   O21  666   2.257   4.345   6.530 -0.5823 -0.5414  0.3095
    6DOPE   C21  667   2.264   4.212   6.512  0.0688 -0.5459 -0.5046
    6DOPE   O22  668   2.209   4.137   6.592 -0.5842 -0.1125 -0.3070
    6DOPE   C22  669   2.336   4.179   6.385 -0.3183  0.3983 -0.1467
    6DOPE   H2R  670   2.341   4.068   6.373 -2.2845  0.3124 -0.4273
    6DOPE   H2S  671   2.439   4.217   6.402 -0.1031  0.0902 -0.7371
    6DOPE    C3  672   2.046   4.412   6.631 -0.0305  0.4050 -0.0172
    6DOPE    HX  673   2.006   4.443   6.730  1.7520 -0.5071  1.0296
    6DOPE    HY  674   2.001   4.312   6.611 -0.1470  0.0999  1.6101
    6DOPE   O31  675   2.006   4.515   6.530 -0.4821 -0.0986  0.9383
    6DOPE   C31  676   1.994   4.465   6.407  0.2770  0.6868  0.4077
    6DOPE   O32  677   1.985   4.349   6.369 -0.2009 -0.3022 -0.0871
    6DOPE   C32  678   2.006   4.587   6.314  0.0065 -0.0732  0.2117
    6DOPE   H2X  679   1.915   4.651   6.327  0.9558  2.2907 -3.2123
    6DOPE   H2Y  680   2.096   4.641   6.351  0.3213 -0.8379  0.5749
    6DOPE   C23  681   2.278   4.245   6.259  0.3471 -0.1999  0.0446
    6DOPE   H3R  682   2.262   4.352   6.284  3.7386  0.0532  1.7781
    6DOPE   H3S  683   2.176   4.215   6.229  0.9814 -2.6013  0.0676
    6DOPE   C24  684   2.372   4.250   6.138 -0.0113 -0.1161 -0.2154
    6DOPE   H4R  685   2.411   4.150   6.108 -0.6974  0.0109 -1.6006
    6DOPE   H4S  686   2.464   4.299   6.177  0.3773 -1.0734  0.1024
    6DOPE   C25  687   2.317   4.321   6.017  0.6998  0.2948 -0.2620
    6DOPE   H5R  688   2.347   4.427   6.019 -1.2095  0.8665  2.3674
    6DOPE   H5S  689   2.207   4.312   6.009  0.7372  0.7765 -1.4590
    6DOPE   C26  690   2.379   4.272   5.882  0.1299  0.3213 -0.2401
    6DOPE   H6R  691   2.349   4.168   5.858  1.2502  0.4781 -2.6236
    6DOPE   H6S  692   2.490   4.267   5.890  0.1293 -1.1660 -0.9611
    6DOPE   C27  693   2.351   4.363   5.755  0.0547 -0.4341 -0.7655
    6DOPE   H7R  694   2.372   4.471   5.766  0.7983 -0.5881 -0.6628
    6DOPE   H7S  695   2.240   4.359   5.749  0.0654 -1.9410 -0.5216
    6DOPE   C28  696   2.418   4.307   5.629  0.1491 -0.0193 -0.3726
    6DOPE   H8R  697   2.406   4.198   5.614  2.2063  0.0110 -2.7614
    6DOPE   H8S  698   2.527   4.317   5.647  0.0191  1.5276 -0.2915
    6DOPE   C29  699   2.376   4.396   5.512  0.4167 -0.1361 -0.0079
    6DOPE   H9R  700   2.327   4.489   5.544 -0.2682 -1.3515  2.7699
    6DOPE  C210  701   2.370   4.349   5.386 -0.2592  0.2217  0.3607
    6DOPE  H10R  702   2.352   4.418   5.302 -0.0114 -0.4180 -0.2280
    6DOPE  C211  703   2.416   4.210   5.339  0.5932  0.3357 -0.5411
    6DOPE  H11R  704   2.393   4.131   5.413  0.8123  0.2033 -0.6145
    6DOPE  H11S  705   2.522   4.210   5.305  1.5204  1.1206  2.1031
    6DOPE  C212  706   2.337   4.156   5.224 -0.3324 -0.0698 -0.5094
    6DOPE  H12R  707   2.230   4.143   5.251 -0.1786 -1.4610 -0.4740
    6DOPE  H12S  708   2.379   4.054   5.211  0.2603  0.3632 -2.2931
    6DOPE  C213  709   2.367   4.241   5.099  0.4978  0.2200  0.1742
    6DOPE  H13R  710   2.475   4.266   5.085  0.2856  2.1007  1.4998
    6DOPE  H13S  711   2.311   4.332   5.129 -2.8428 -1.8852  0.8156
    6DOPE  C214  712   2.307   4.180   4.970  0.1810 -0.4896 -0.1200
    6DOPE  H14R  713   2.360   4.085   4.948  0.0748 -0.7862  0.8885
    6DOPE  H14S  714   2.318   4.252   4.886 -3.7507 -1.6882 -1.9074
    6DOPE  C215  715   2.154   4.140   4.975 -0.0936  0.0093  0.6232
    6DOPE  H15R  716   2.132   4.061   5.050 -0.9928 -0.4119 -0.0721
    6DOPE  H15S  717   2.138   4.090   4.878 -0.7238  1.1675  0.1104
    6DOPE  C216  718   2.058   4.260   4.971  0.0418  0.1444  0.3230
    6DOPE  H16R  719   2.120   4.351   4.956 -0.4942  0.7017  1.3668
    6DOPE  H16S  720   1.998   4.282   5.062 -2.0784 -0.3370 -0.8817
    6DOPE  C217  721   1.950   4.252   4.860 -0.4976  0.3173  0.0630
    6DOPE  H17R  722   1.886   4.165   4.883  0.7377 -0.5446  0.3581
    6DOPE  H17S  723   2.005   4.228   4.766  0.3361  0.9428  0.3766
    6DOPE  C218  724   1.871   4.378   4.838  0.1640  0.2627 -0.1393
    6DOPE  H18R  725   1.816   4.408   4.930 -0.2568  0.1280 -0.3448
    6DOPE  H18S  726   1.797   4.360   4.757 -0.8490  1.0405  0.5857
    6DOPE  H18T  727   1.933   4.464   4.805 -0.6609  0.5138 -1.1030
    6DOPE   C33  728   2.027   4.544   6.168  0.2580 -0.0398  0.9949
    6DOPE   H3X  729   1.954   4.469   6.132 -0.0998 -0.5745  2.7453
    6DOPE   H3Y  730   2.124   4.491   6.159 -0.0678 -0.4350 -0.4341
    6DOPE   C34  731   2.029   4.669   6.082  0.4959 -0.2705 -0.1082
    6DOPE   H4X  732   1.923   4.691   6.056  0.3574 -3.1142 -2.4760
    6DOPE   H4Y  733   2.087   4.751   6.128  0.5289 -0.3965  0.0735
    6DOPE   C35  734   2.110   4.643   5.950 -0.4460  0.0248  0.7960
    6DOPE   H5X  735   2.068   4.551   5.904 -0.3918  1.0251 -1.3833
    6DOPE   H5Y  736   2.217   4.625   5.973  0.5390  1.3097 -2.2593
    6DOPE   C36  737   2.107   4.748   5.841  0.3127 -0.7095  0.0065
    6DOPE   H6X  738   2.130   4.847   5.887 -0.5739 -0.0926 -0.8256
    6DOPE   H6Y  739   2.004   4.754   5.798 -0.1032 -1.8238  0.8081
    6DOPE   C37  740   2.211   4.722   5.730  0.1905 -0.0138  0.6593
    6DOPE   H7X  741   2.229   4.615   5.704  0.4390  0.2730 -0.4037
    6DOPE   H7Y  742   2.162   4.770   5.643 -0.7612 -1.7686  0.1714
    6DOPE   C38  743   2.344   4.786   5.765 -0.2097 -0.2577  0.2889
    6DOPE   H8X  744   2.379   4.712   5.840  0.3695 -0.7908 -0.4925
    6DOPE   H8Y  745   2.333   4.888   5.808 -0.6487  0.7808 -2.1081
    6DOPE   C39  746   2.435   4.801   5.647 -0.8047  0.1737  0.3594
    6DOPE   H9X  747   2.395   4.847   5.555  4.8091 -0.4977 -2.8697
    6DOPE  C310  748   2.562   4.761   5.646 -0.9404 -0.1871 -0.5042
    6DOPE  H10X  749   2.632   4.784   5.564 -1.4581  1.5672 -0.4820
    6DOPE  C311  750   2.637   4.707   5.767  1.0733 -0.2331  0.0967
    6DOPE  H11X  751   2.684   4.793   5.819 -0.5702  0.0154  1.2391
    6DOPE  H11Y  752   2.565   4.653   5.833 -0.1001  1.7559  0.5496
    6DOPE  C312  753   2.742   4.606   5.728 -0.4688  0.0405  0.1155
    6DOPE  H12X  754   2.814   4.662   5.664 -1.5616  0.4693 -0.7765
    6DOPE  H12Y  755   2.698   4.528   5.663  1.0572 -0.4874 -0.3360
    6DOPE  C313  756   2.822   4.548   5.845  0.0449  0.1156  0.5894
    6DOPE  H13X  757   2.912   4.503   5.799 -0.0007  0.3119  0.3077
    6DOPE  H13Y  758   2.863   4.628   5.911  1.3216  0.1852 -0.2658
    6DOPE  C314  759   2.753   4.435   5.930  0.4791 -0.5195 -0.0958
    6DOPE  H14X  760   2.718   4.367   5.849 -2.8518  1.7593 -0.7431
    6DOPE  H14Y  761   2.660   4.471   5.978  1.1797  0.9823  0.1694
    6DOPE  C315  762   2.850   4.368   6.025 -0.0761  0.0683 -0.1267
    6DOPE  H15X  763   2.857   4.423   6.121  2.2510 -0.3708 -0.0062
    6DOPE  H15Y  764   2.951   4.373   5.980 -0.2983  1.5054 -0.5260
    6DOPE  C316  765   2.804   4.229   6.056 -0.6355  0.4048 -0.5007
    6DOPE  H16X  766   2.810   4.173   5.960  1.3866  0.7886 -0.6529
    6DOPE  H16Y  767   2.698   4.238   6.086 -1.7534 -0.0468 -3.9415
    6DOPE  C317  768   2.907   4.154   6.153  1.2810 -0.0832  0.0147
    6DOPE  H17X  769   2.992   4.123   6.089  2.0069  0.4324  0.7011
    6DOPE  H17Y  770   2.938   4.230   6.228  0.3231  0.3158  0.0252
    6DOPE  C318  771   2.857   4.020   6.215 -0.5458  0.2509 -0.0407
    6DOPE  H18X  772   2.894   3.941   6.147 -0.2503  0.7437 -0.4651
    6DOPE  H18Y  773   2.909   4.006   6.313 -1.2503  0.8350  0.4250
    6DOPE  H18Z  774   2.751   4.003   6.242  0.0347 -1.3590  1.3872
    7DOPE     N  775   4.185   6.426   6.628  0.2841  0.5804 -0.4226
    7DOPE   HN1  776   4.189   6.512   6.686  1.8968 -0.4575  1.0933
    7DOPE   HN2  777   4.204   6.445   6.527  3.2901 -2.5798 -0.6283
    7DOPE   HN3  778   4.086   6.394   6.632 -1.0122  3.9622 -1.3639
    7DOPE   C12  779   4.282   6.325   6.681 -0.0517 -0.4781  0.1384
    7DOPE  H12A  780   4.328   6.270   6.596 -1.8855 -1.0007 -0.5667
    7DOPE  H12B  781   4.225   6.249   6.738 -0.6450  0.2683  0.5574
    7DOPE   C11  782   4.389   6.395   6.769 -0.8300 -0.2379  0.5810
    7DOPE  H11A  783   4.420   6.315   6.840 -0.2505 -1.9892 -1.5194
    7DOPE  H11B  784   4.341   6.482   6.819 -2.1529  0.6090 -1.9808
    7DOPE     P  785   4.636   6.488   6.766 -0.2724  0.0857  0.2672
    7DOPE   O13  786   4.717   6.368   6.807  0.4457  1.1696 -0.6283
    7DOPE   O14  787   4.612   6.583   6.879  0.2270 -0.1627  0.4697
    7DOPE   O11  788   4.715   6.567   6.657  0.7973  0.5610  0.4756
    7DOPE   O12  789   4.504   6.445   6.690  0.5297 -0.0766 -0.4738
    7DOPE    C1  790   4.775   6.505   6.546  0.6163 -0.2007 -0.3656
    7DOPE    HA  791   4.843   6.423   6.577  0.0526 -0.1754  1.0293
    7DOPE    HB  792   4.824   6.585   6.487  2.8187 -1.8699 -0.9346
    7DOPE    C2  793   4.667   6.459   6.445 -0.5754  1.2170 -0.0305
    7DOPE    HS  794   4.618   6.379   6.504  1.0636  1.3379  1.5653
    7DOPE   O21  795   4.738   6.404   6.332 -0.8137  0.0047 -0.0300
    7DOPE   C21  796   4.678   6.318   6.259  0.2961  0.0291 -0.4071
    7DOPE   O22  797   4.573   6.263   6.287  0.2258  0.6470 -0.0470
    7DOPE   C22  798   4.756   6.278   6.132 -0.0740 -0.2709 -0.7405
    7DOPE   H2R  799   4.864   6.292   6.154  0.0482 -1.7201 -0.2770
    7DOPE   H2S  800   4.720   6.341   6.048 -1.2974  0.0713 -0.0029
    7DOPE    C3  801   4.565   6.570   6.403 -0.6114  0.0059  0.1051
    7DOPE    HX  802   4.636   6.650   6.374  0.4143 -0.4503  1.2550
    7DOPE    HY  803   4.498   6.597   6.487  0.3676  0.1169  0.8654
    7DOPE   O31  804   4.492   6.529   6.280  0.9585  0.1980  0.6555
    7DOPE   C31  805   4.363   6.519   6.297 -0.1442  0.8129 -0.5906
    7DOPE   O32  806   4.304   6.517   6.400  0.2526 -0.1146 -0.0852
    7DOPE   C32  807   4.296   6.517   6.162 -0.0291  0.3587  0.1577
    7DOPE   H2X  808   4.332   6.424   6.113 -1.1703 -0.9086  1.6084
    7DOPE   H2Y  809   4.188   6.491   6.172 -0.2768  1.5634  0.7331
    7DOPE   C23  810   4.740   6.133   6.090  0.2856  0.7543 -0.2973
    7DOPE   H3R  811   4.635   6.124   6.055  0.8171 -1.7008 -1.4842
    7DOPE   H3S  812   4.754   6.064   6.177 -3.3353 -0.2043 -0.3309
    7DOPE   C24  813   4.836   6.092   5.986  0.4069  1.0671 -0.1578
    7DOPE   H4R  814   4.943   6.096   6.018  0.0736  1.8556  0.9374
    7DOPE   H4S  815   4.836   6.169   5.906 -0.8778  0.8917 -0.3486
    7DOPE   C25  816   4.802   5.950   5.937 -0.0137  0.6727 -0.5024
    7DOPE   H5R  817   4.802   5.955   5.826  0.3946 -1.2778 -0.6351
    7DOPE   H5S  818   4.698   5.926   5.966  0.9451 -1.1801  1.7370
    7DOPE   C26  819   4.899   5.832   5.993 -0.3403  0.2341 -0.8514
    7DOPE   H6R  820   4.886   5.816   6.102  0.3044 -0.3216 -0.8533
    7DOPE   H6S  821   5.003   5.864   5.967 -0.2962  0.1711 -0.7523
    7DOPE   C27  822   4.854   5.697   5.927 -0.2415  0.1536 -0.5221
    7DOPE   H7R  823   4.927   5.615   5.944 -0.4038 -0.1019 -1.0605
    7DOPE   H7S  824   4.851   5.724   5.820 -0.2321  3.4275  0.2065
    7DOPE   C28  825   4.725   5.643   5.986  0.2743 -0.0365 -0.5562
    7DOPE   H8R  826   4.652   5.727   5.991  2.8967  2.6884 -3.3416
    7DOPE   H8S  827   4.737   5.590   6.082 -0.2824  0.2604 -0.3153
    7DOPE   C29  828   4.670   5.539   5.893  0.4530  0.2098  0.4938
    7DOPE   H9R  829   4.740   5.457   5.872  0.5709  0.6615 -0.9919
    7DOPE  C210  830   4.557   5.548   5.809 -0.8069  0.5781 -0.9124
    7DOPE  H10R  831   4.530   5.462   5.746 -1.1225 -1.0314  1.3015
    7DOPE  C211  832   4.458   5.650   5.814  0.4703 -0.3148  1.0387
    7DOPE  H11R  833   4.483   5.739   5.876 -2.2989  0.4328  1.2374
    7DOPE  H11S  834   4.366   5.609   5.861 -1.1909  0.2943 -1.4955
    7DOPE  C212  835   4.447   5.713   5.676 -0.5061 -0.7099 -0.0625
    7DOPE  H12R  836   4.366   5.789   5.685 -1.9686 -2.3954  1.8471
    7DOPE  H12S  837   4.414   5.635   5.605  1.0991 -1.4330 -0.0514
    7DOPE  C213  838   4.578   5.782   5.626 -0.6681 -0.3188 -0.1407
    7DOPE  H13R  839   4.646   5.703   5.587  0.1043  1.7075 -3.2837
    7DOPE  H13S  840   4.633   5.842   5.702 -0.8766 -1.7537  1.1869
    7DOPE  C214  841   4.553   5.869   5.499  0.1565 -0.0119 -0.5230
    7DOPE  H14R  842   4.461   5.929   5.514  0.6477  0.3446  1.2961
    7DOPE  H14S  843   4.544   5.802   5.410 -2.8482  0.0607 -0.3854
    7DOPE  C215  844   4.671   5.971   5.467  0.3171  0.6594 -0.5222
    7DOPE  H15R  845   4.755   5.899   5.451 -2.4580 -3.5066  1.7937
    7DOPE  H15S  846   4.693   6.024   5.562 -1.0068 -0.0601  0.1992
    7DOPE  C216  847   4.644   6.064   5.349 -0.2680 -0.1750  0.1121
    7DOPE  H16R  848   4.562   6.135   5.372 -0.5797 -0.5233  0.0929
    7DOPE  H16S  849   4.620   6.004   5.258  3.7791  1.3707 -2.2141
    7DOPE  C217  850   4.776   6.137   5.337  0.1598 -0.5835  0.6795
    7DOPE  H17R  851   4.855   6.061   5.322 -1.3825 -1.6821 -3.2580
    7DOPE  H17S  852   4.795   6.197   5.428 -1.1127  1.3435 -0.2599
    7DOPE  C218  853   4.781   6.228   5.211 -0.8089 -0.3298 -0.1088
    7DOPE  H18R  854   4.775   6.167   5.118 -3.1326 -0.5630  0.1394
    7DOPE  H18S  855   4.878   6.281   5.206 -0.2655 -0.9527  2.4559
    7DOPE  H18T  856   4.696   6.299   5.206 -2.7335 -2.4018  1.0019
    7DOPE   C33  857   4.305   6.642   6.077  0.3438  0.0764  0.6537
    7DOPE   H3X  858   4.270   6.735   6.127 -1.0270  0.2999 -0.6336
    7DOPE   H3Y  859   4.243   6.636   5.984  0.5341  0.6590  0.4854
    7DOPE   C34  860   4.449   6.663   6.022 -0.2287  0.2795 -0.4446
    7DOPE   H4X  861   4.442   6.764   5.977  1.5024  1.4424  1.6748
    7DOPE   H4Y  862   4.522   6.682   6.104 -2.5095  2.0056  1.3291
    7DOPE   C35  863   4.496   6.564   5.924 -1.3321  0.9116  0.5504
    7DOPE   H5X  864   4.417   6.559   5.846 -1.0198 -3.0875  0.2815
    7DOPE   H5Y  865   4.504   6.461   5.967 -0.1158  0.2323 -1.1919
    7DOPE   C36  866   4.639   6.601   5.873  0.5179  0.9477  1.2243
    7DOPE   H6X  867   4.707   6.621   5.958  1.3427 -0.5060  0.9407
    7DOPE   H6Y  868   4.639   6.696   5.815  0.2546 -0.2641 -0.8876
    7DOPE   C37  869   4.701   6.495   5.784 -0.2694 -0.1270  0.2783
    7DOPE   H7X  870   4.701   6.394   5.830 -0.7986 -0.2156  0.0876
    7DOPE   H7Y  871   4.645   6.480   5.689 -1.9765 -0.5216  1.3150
    7DOPE   C38  872   4.846   6.526   5.762 -1.1868  0.3295  0.1706
    7DOPE   H8X  873   4.859   6.635   5.743  0.3747  0.3868  1.4108
    7DOPE   H8Y  874   4.883   6.474   5.671  1.2749  1.2127  0.5885
    7DOPE   C39  875   4.935   6.484   5.875  0.6523 -0.8043 -0.1544
    7DOPE   H9X  876   4.911   6.544   5.963 -1.7563 -1.9936  0.0636
    7DOPE  C310  877   5.040   6.403   5.879 -0.7464  0.1271 -0.4293
    7DOPE  H10X  878   5.096   6.386   5.972 -0.0412  2.0230 -0.4610
    7DOPE  C311  879   5.101   6.335   5.757  0.3632 -0.2022  0.4415
    7DOPE  H11X  880   5.088   6.403   5.670 -1.8171 -0.7792  0.2550
    7DOPE  H11Y  881   5.207   6.312   5.781 -0.3246 -1.1742  2.8010
    7DOPE  C312  882   5.044   6.200   5.717 -0.8050  0.3291  0.0941
    7DOPE  H12X  883   4.934   6.208   5.724 -0.9645  0.2850 -1.7824
    7DOPE  H12Y  884   5.075   6.129   5.797  0.8120  0.9345  0.0509
    7DOPE  C313  885   5.098   6.137   5.583  0.0781  0.5164 -0.1716
    7DOPE  H13X  886   5.055   6.199   5.502 -2.4801 -0.4505  0.3514
    7DOPE  H13Y  887   5.209   6.144   5.581 -0.0359  3.1754 -0.1270
    7DOPE  C314  888   5.052   5.997   5.566  0.1883 -0.6827 -0.2815
    7DOPE  H14X  889   4.950   6.000   5.522  0.6194  1.4286 -1.2574
    7DOPE  H14Y  890   5.042   5.938   5.660  0.4321  0.2957  0.3646
    7DOPE  C315  891   5.135   5.916   5.460 -0.1274  0.3502 -0.2993
    7DOPE  H15X  892   5.244   5.902   5.475 -0.3903 -2.6556 -0.6993
    7DOPE  H15Y  893   5.120   5.969   5.364  0.2871 -0.4831 -0.8275
    7DOPE  C316  894   5.072   5.775   5.448  0.0171 -0.7144 -0.2353
    7DOPE  H16X  895   4.961   5.781   5.458 -0.1031 -1.0402 -1.2932
    7DOPE  H16Y  896   5.094   5.725   5.545 -1.1666  0.8721  0.9049
    7DOPE  C317  897   5.105   5.698   5.319 -0.2278  0.4404  0.2530
    7DOPE  H17X  898   5.211   5.711   5.288 -1.0892  1.0027 -2.7170
    7DOPE  H17Y  899   5.098   5.589   5.339  0.0132  0.2194 -0.8219
    7DOPE  C318  900   5.000   5.733   5.211 -0.3795 -0.6368  0.5131
    7DOPE  H18X  901   4.898   5.724   5.253 -0.7532 -0.1803 -0.2546
    7DOPE  H18Y  902   5.009   5.839   5.178  0.6056 -0.4873  1.2143
    7DOPE  H18Z  903   5.002   5.682   5.112 -0.7074  1.0992 -0.4463
    8DOPE     N  904   5.310   5.695   6.856 -0.5483 -0.1488  0.1340
    8DOPE   HN1  905   5.394   5.636   6.866  0.4346  1.5263  3.7001
    8DOPE   HN2  906   5.234   5.659   6.794 -0.7611 -0.3568  0.5117
    8DOPE   HN3  907   5.346   5.777   6.803  0.8609 -0.1991  0.9674
    8DOPE   C12  908   5.241   5.748   6.982 -0.5693  0.0876 -0.2458
    8DOPE  H12A  909   5.311   5.817   7.035 -0.3952 -0.8361  0.7589
    8DOPE  H12B  910   5.236   5.666   7.057 -1.4826 -1.4174 -1.8719
    8DOPE   C11  911   5.105   5.807   6.948 -0.0181  0.3030 -0.2907
    8DOPE  H11A  912   5.058   5.842   7.042  1.9854  0.7337  0.6138
    8DOPE  H11B  913   5.045   5.722   6.910 -0.8357  0.9799 -0.5475
    8DOPE     P  914   4.991   5.959   6.779  0.2986  0.0839  0.3585
    8DOPE   O13  915   4.883   6.006   6.872 -0.4052 -0.1067 -0.1106
    8DOPE   O14  916   4.953   5.840   6.689 -0.2592 -0.6173 -0.3990
    8DOPE   O11  917   5.051   6.071   6.683  0.1088  0.5431 -0.5347
    8DOPE   O12  918   5.118   5.917   6.855  0.0722  0.0160 -0.5803
    8DOPE    C1  919   4.987   6.187   6.637 -0.2982 -0.3747 -0.4843
    8DOPE    HA  920   5.049   6.276   6.661 -0.6232 -0.6021  1.4069
    8DOPE    HB  921   4.892   6.208   6.691  1.3856  1.6318  1.9259
    8DOPE    C2  922   4.968   6.177   6.482 -0.1134  0.7554  0.0181
    8DOPE    HS  923   4.886   6.246   6.454  0.3003  0.7801 -1.1903
    8DOPE   O21  924   4.941   6.045   6.443 -0.4000  0.3835 -0.4810
    8DOPE   C21  925   4.816   6.006   6.462 -0.9463 -0.4117 -1.0816
    8DOPE   O22  926   4.728   6.072   6.519  0.1766  0.4375 -0.1493
    8DOPE   C22  927   4.808   5.867   6.396  0.6606 -0.1177 -0.5615
    8DOPE   H2R  928   4.889   5.804   6.437 -1.0858 -0.5460  2.5661
    8DOPE   H2S  929   4.831   5.883   6.289  3.5394 -1.1390 -0.1832
    8DOPE    C3  930   5.097   6.220   6.410 -0.2515  0.5476 -0.0382
    8DOPE    HX  931   5.100   6.192   6.302  1.1524 -1.0508  0.3599
    8DOPE    HY  932   5.175   6.159   6.461 -0.5084  1.7379  1.8738
    8DOPE   O31  933   5.127   6.365   6.428 -0.6387  0.5164  0.0304
    8DOPE   C31  934   5.101   6.445   6.328 -0.4775  0.2685 -0.0353
    8DOPE   O32  935   5.057   6.411   6.219  0.1007  0.8335  0.2047
    8DOPE   C32  936   5.120   6.579   6.386 -0.3106 -0.1991 -0.2530
    8DOPE   H2X  937   5.045   6.593   6.467  0.4727 -0.8898  0.6234
    8DOPE   H2Y  938   5.219   6.581   6.437 -0.3944  2.0183 -0.0645
    8DOPE   C23  939   4.673   5.802   6.401  0.1199  0.6703 -1.0027
    8DOPE   H3R  940   4.621   5.831   6.495  0.4770 -1.1651 -0.1921
    8DOPE   H3S  941   4.665   5.693   6.421 -0.4643  0.7269 -0.9237
    8DOPE   C24  942   4.579   5.841   6.291  0.2513 -0.0209 -0.0106
    8DOPE   H4R  943   4.611   5.777   6.205  1.4349  0.4642  0.0489
    8DOPE   H4S  944   4.590   5.950   6.272 -0.6094  0.1113  0.2163
    8DOPE   C25  945   4.425   5.794   6.314 -0.2123  0.1189  1.0065
    8DOPE   H5R  946   4.382   5.875   6.376 -1.4401 -0.2876  0.7168
    8DOPE   H5S  947   4.416   5.704   6.378 -0.3931 -0.0199  0.7889
    8DOPE   C26  948   4.355   5.780   6.169  0.2709  0.5268 -0.2428
    8DOPE   H6R  949   4.248   5.754   6.179  0.5275 -0.4485  0.1169
    8DOPE   H6S  950   4.401   5.691   6.121  0.0072  0.3626 -0.1945
    8DOPE   C27  951   4.364   5.905   6.075 -0.6322  0.0454  0.0992
    8DOPE   H7R  952   4.304   5.885   5.984  0.3825 -0.3090 -0.5157
    8DOPE   H7S  953   4.472   5.923   6.051 -0.7283  2.7552  1.3450
    8DOPE   C28  954   4.314   6.031   6.143 -0.0641 -0.3073  0.2004
    8DOPE   H8R  955   4.377   6.047   6.233 -3.5957  0.6980  2.7421
    8DOPE   H8S  956   4.215   6.010   6.189 -0.2954 -1.1827 -0.6483
    8DOPE   C29  957   4.320   6.143   6.045  0.2713  0.2604  0.0115
    8DOPE   H9R  958   4.388   6.228   6.060 -0.6967  1.0338  0.1358
    8DOPE  C210  959   4.235   6.157   5.937  0.6685  0.8501 -0.2043
    8DOPE  H10R  960   4.249   6.243   5.870  1.5523  0.2063 -0.8684
    8DOPE  C211  961   4.118   6.067   5.919  0.5490 -0.2506 -0.1345
    8DOPE  H11R  962   4.114   5.979   5.987  1.1978  1.1537  1.8340
    8DOPE  H11S  963   4.120   6.023   5.817  1.0246 -1.8912  0.5532
    8DOPE  C212  964   3.993   6.151   5.950 -0.2680  0.2045 -0.4321
    8DOPE  H12R  965   3.901   6.101   5.913  0.3983 -0.0471 -1.8024
    8DOPE  H12S  966   4.000   6.231   5.873 -1.0976  0.4655 -0.2494
    8DOPE  C213  967   3.972   6.204   6.091  0.4110  0.4948 -0.4320
    8DOPE  H13R  968   4.061   6.262   6.123  0.7315 -0.6656  0.8984
    8DOPE  H13S  969   3.952   6.122   6.163  1.4517  0.9888  0.4436
    8DOPE  C214  970   3.846   6.296   6.092 -0.3484 -0.3447  0.1293
    8DOPE  H14R  971   3.762   6.237   6.049 -0.0991 -0.3356 -0.3877
    8DOPE  H14S  972   3.857   6.392   6.037  0.6286 -0.3802  0.2406
    8DOPE  C215  973   3.797   6.337   6.230  0.2902  0.7950 -0.1727
    8DOPE  H15R  974   3.882   6.370   6.293  1.2673  0.4036 -1.2363
    8DOPE  H15S  975   3.743   6.252   6.275 -0.4739  0.6241 -1.3528
    8DOPE  C216  976   3.697   6.451   6.237  0.4057 -0.5214  0.2076
    8DOPE  H16R  977   3.613   6.439   6.166  0.1771  1.6953  0.0418
    8DOPE  H16S  978   3.746   6.541   6.192  0.4819 -0.6552  0.0206
    8DOPE  C217  979   3.660   6.494   6.375  0.6897 -0.2464  1.0360
    8DOPE  H17R  980   3.730   6.559   6.433 -0.6496  1.0266  1.2844
    8DOPE  H17S  981   3.651   6.401   6.435  1.9266 -0.8824  0.2666
    8DOPE  C218  982   3.519   6.552   6.378  0.0585 -0.6420  0.2532
    8DOPE  H18R  983   3.442   6.487   6.331  0.6621 -1.4027  0.3086
    8DOPE  H18S  984   3.517   6.643   6.314 -2.4604  0.7123  2.0885
    8DOPE  H18T  985   3.497   6.587   6.481  1.1759 -0.1060  0.3267
    8DOPE   C33  986   5.108   6.693   6.278 -0.5417 -0.0198  0.1178
    8DOPE   H3X  987   5.147   6.671   6.176  1.4694  1.0489  0.5966
    8DOPE   H3Y  988   5.165   6.780   6.316 -0.9445  0.5964 -0.6758
    8DOPE   C34  989   4.965   6.742   6.276  0.1553  0.4409  0.5324
    8DOPE   H4X  990   4.894   6.659   6.292  1.2011 -0.6065 -0.1241
    8DOPE   H4Y  991   4.945   6.812   6.360  0.3741 -0.5619  1.4487
    8DOPE   C35  992   4.935   6.816   6.142 -0.0009 -0.4588 -0.0218
    8DOPE   H5X  993   4.961   6.755   6.053 -0.1896  0.1666 -0.5119
    8DOPE   H5Y  994   4.984   6.915   6.133 -0.0985 -0.3356  0.7088
    8DOPE   C36  995   4.788   6.842   6.130  0.4220 -0.1789 -0.0609
    8DOPE   H6X  996   4.729   6.748   6.139  1.3713 -0.7102  0.7910
    8DOPE   H6Y  997   4.766   6.876   6.026  1.2781 -2.1114 -0.9070
    8DOPE   C37  998   4.735   6.954   6.213  0.7189  0.1416 -0.7882
    8DOPE   H7X  999   4.785   6.944   6.312  0.7329 -0.5919 -0.8633
    8DOPE   H7Y 1000   4.775   7.048   6.171 -0.9390  0.7594 -1.0510
    8DOPE   C38 1001   4.581   6.955   6.236  0.7554 -0.0880  0.6677
    8DOPE   H8X 1002   4.566   6.892   6.327 -1.2104  1.4744  1.5096
    8DOPE   H8Y 1003   4.531   6.901   6.153 -0.6266  0.4648  1.1016
    8DOPE   C39 1004   4.521   7.092   6.257  0.3166 -0.4720  0.6645
    8DOPE   H9X 1005   4.513   7.133   6.359 -2.1456 -0.8139  0.6531
    8DOPE  C310 1006   4.472   7.165   6.155  0.0428  1.1018 -0.5219
    8DOPE  H10X 1007   4.420   7.259   6.179  1.3788  1.2914  2.0409
    8DOPE  C311 1008   4.450   7.116   6.016  0.1199 -0.5390 -1.2784
    8DOPE  H11X 1009   4.494   7.192   5.948  0.6984 -0.0222 -0.3433
    8DOPE  H11Y 1010   4.487   7.014   5.991  0.6334 -0.7864  0.3974
    8DOPE  C312 1011   4.293   7.115   5.999 -0.4440  0.3878 -0.1306
    8DOPE  H12X 1012   4.245   7.203   6.046 -1.5962 -1.0167  1.4686
    8DOPE  H12Y 1013   4.258   7.034   6.067  0.9612 -1.4443 -1.4855
    8DOPE  C313 1014   4.246   7.102   5.854  0.8004 -0.3849  0.9247
    8DOPE  H13X 1015   4.303   7.170   5.787 -0.4880 -1.1923 -1.0873
    8DOPE  H13Y 1016   4.262   6.999   5.816 -0.1017 -0.3541  0.4324
    8DOPE  C314 1017   4.094   7.146   5.834  0.2985  0.3935  0.4749
    8DOPE  H14X 1018   4.071   7.251   5.864  0.1567  0.7747 -0.9051
    8DOPE  H14Y 1019   4.029   7.088   5.904 -0.4775  1.1425  0.3965
    8DOPE  C315 1020   4.041   7.111   5.686 -0.2553 -0.3247 -0.3480
    8DOPE  H15X 1021   4.035   7.000   5.680  0.8244 -0.3150 -2.0730
    8DOPE  H15Y 1022   4.104   7.149   5.603 -1.0260 -0.0875 -0.8269
    8DOPE  C316 1023   3.903   7.175   5.661  0.4778 -0.4084 -0.2622
    8DOPE  H16X 1024   3.910   7.282   5.688  1.3527 -0.3614 -0.6632
    8DOPE  H16Y 1025   3.830   7.123   5.728 -1.7972  1.0783 -1.4493
    8DOPE  C317 1026   3.853   7.163   5.515  0.4359 -0.0620 -0.4989
    8DOPE  H17X 1027   3.910   7.241   5.461  1.3386  1.1887  2.0857
    8DOPE  H17Y 1028   3.899   7.071   5.473 -0.4384  0.4336 -2.6880
    8DOPE  C318 1029   3.708   7.162   5.482 -0.2317 -0.1168  0.4791
    8DOPE  H18X 1030   3.656   7.078   5.533 -0.6696 -0.7162 -0.9068
    8DOPE  H18Y 1031   3.688   7.143   5.374 -0.5721 -2.9748  0.9584
    8DOPE  H18Z 1032   3.671   7.257   5.526  1.0038  0.4054  0.4420
    9DOPE     N 1033   1.442   3.731   6.868 -0.0584  0.0739  0.0100
    9DOPE   HN1 1034   1.490   3.779   6.946 -0.2341  2.5910 -1.3225
    9DOPE   HN2 1035   1.342   3.745   6.895  0.6965  0.2899  2.9359
    9DOPE   HN3 1036   1.458   3.628   6.867 -2.6882 -0.4171 -1.2477
    9DOPE   C12 1037   1.469   3.782   6.728  0.0769  0.0281  0.0579
    9DOPE  H12A 1038   1.567   3.745   6.690 -0.5370 -0.1594 -1.4009
    9DOPE  H12B 1039   1.456   3.892   6.737  1.0098  0.2075 -0.5827
    9DOPE   C11 1040   1.354   3.728   6.640 -0.0289 -0.5989 -0.1203
    9DOPE  H11A 1041   1.388   3.625   6.616  2.0606  0.2829 -1.2027
    9DOPE  H11B 1042   1.363   3.778   6.541  0.0826 -0.1111  0.1329
    9DOPE     P 1043   1.139   3.851   6.705 -0.2250  0.0346 -0.1513
    9DOPE   O13 1044   1.178   3.912   6.833  0.4143 -0.6425  0.0826
    9DOPE   O14 1045   0.996   3.825   6.679  0.4446  0.3669  0.0216
    9DOPE   O11 1046   1.195   3.941   6.587 -0.5945  0.4186  0.0395
    9DOPE   O12 1047   1.225   3.718   6.695  0.1705 -0.0154  0.4064
    9DOPE    C1 1048   1.138   3.923   6.455 -0.6829  0.3782 -0.0393
    9DOPE    HA 1049   1.030   3.949   6.458 -0.9503 -0.7517  0.9891
    9DOPE    HB 1050   1.153   3.817   6.425 -0.2572  0.5239 -0.3431
    9DOPE    C2 1051   1.216   4.018   6.361  0.1422  0.2805  1.0635
    9DOPE    HS 1052   1.192   4.122   6.390 -1.3873 -0.4956  2.7624
    9DOPE   O21 1053   1.181   3.992   6.224 -0.2064  0.1226 -0.5760
    9DOPE   C21 1054   1.068   4.043   6.184 -0.1088 -0.3019 -0.1645
    9DOPE   O22 1055   1.006   4.133   6.236  0.2879 -0.5419  0.3208
    9DOPE   C22 1056   1.039   3.998   6.039  0.3088 -0.1037 -0.4825
    9DOPE   H2R 1057   0.948   3.935   6.053  0.7915 -0.3741  1.8018
    9DOPE   H2S 1058   1.117   3.928   6.002 -0.3286 -0.3276 -1.4440
    9DOPE    C3 1059   1.372   4.001   6.360 -0.1492  0.0234 -0.1795
    9DOPE    HX 1060   1.398   3.894   6.351  0.6357  0.3199 -1.8348
    9DOPE    HY 1061   1.411   4.037   6.457 -1.2826  0.7167  0.0452
    9DOPE   O31 1062   1.448   4.072   6.257 -0.2050  0.1491  0.0899
    9DOPE   C31 1063   1.459   4.207   6.272  0.2297 -0.3988  0.8581
    9DOPE   O32 1064   1.411   4.274   6.364 -0.0202  0.7076  0.1884
    9DOPE   C32 1065   1.522   4.262   6.143  0.3657  0.0619  0.9033
    9DOPE   H2X 1066   1.630   4.238   6.156  0.5933  1.4535  1.6677
    9DOPE   H2Y 1067   1.471   4.211   6.058 -0.7989  2.5980 -0.0186
    9DOPE   C23 1068   1.020   4.111   5.940  0.9743 -1.4049 -0.4404
    9DOPE   H3R 1069   1.122   4.156   5.942  0.5795 -0.5153 -0.0457
    9DOPE   H3S 1070   0.940   4.184   5.963  1.0951 -1.3980 -0.0440
    9DOPE   C24 1071   0.984   4.064   5.801 -0.0380  0.3225 -0.0689
    9DOPE   H4R 1072   0.996   4.160   5.746  2.8153  1.5078  2.3457
    9DOPE   H4S 1073   0.878   4.030   5.791  0.9003 -2.3054 -2.1902
    9DOPE   C25 1074   1.080   3.966   5.733 -0.1819 -0.4035  0.6639
    9DOPE   H5R 1075   1.091   3.881   5.804 -0.5696 -0.6219  0.4608
    9DOPE   H5S 1076   1.181   4.013   5.726  0.0314 -0.6773  1.6659
    9DOPE   C26 1077   1.047   3.914   5.587  0.5417 -0.6918 -0.4263
    9DOPE   H6R 1078   1.034   3.997   5.514 -0.7780 -1.6733 -1.3519
    9DOPE   H6S 1079   0.959   3.847   5.599 -0.6817  0.8588 -0.3468
    9DOPE   C27 1080   1.172   3.839   5.530 -0.3540  0.2424 -0.6436
    9DOPE   H7R 1081   1.194   3.759   5.605  1.4228  0.0902 -1.2730
    9DOPE   H7S 1082   1.259   3.909   5.534 -1.3760  1.5116 -0.0251
    9DOPE   C28 1083   1.155   3.784   5.391 -0.6600  0.3369  0.5689
    9DOPE   H8R 1084   1.254   3.752   5.353 -1.2329 -1.9011  0.8439
    9DOPE   H8S 1085   1.125   3.862   5.318  0.4071 -0.9903 -1.3735
    9DOPE   C29 1086   1.069   3.657   5.390 -0.2582  0.2215  0.3473
    9DOPE   H9R 1087   1.105   3.576   5.455  2.4866  0.2035 -1.0508
    9DOPE  C210 1088   0.958   3.627   5.319 -0.5161  0.2848  0.1154
    9DOPE  H10R 1089   0.898   3.540   5.352  0.8395 -0.1295  1.6063
    9DOPE  C211 1090   0.876   3.728   5.238  0.2433  0.5856  0.1002
    9DOPE  H11R 1091   0.934   3.820   5.214 -0.3210  1.2009  1.0198
    9DOPE  H11S 1092   0.789   3.766   5.296  0.5213  3.6928 -1.3368
    9DOPE  C212 1093   0.820   3.681   5.104  0.1356  0.6322 -0.2788
    9DOPE  H12R 1094   0.908   3.640   5.050  0.1499 -0.6242  0.6690
    9DOPE  H12S 1095   0.775   3.762   5.043  0.4763  0.5543 -0.6366
    9DOPE  C213 1096   0.718   3.570   5.132  0.3928  0.0755 -0.0367
    9DOPE  H13R 1097   0.632   3.607   5.192  1.1195  2.3196 -0.2929
    9DOPE  H13S 1098   0.765   3.492   5.195 -0.9321 -0.0643  0.8125
    9DOPE  C214 1099   0.657   3.493   5.019  0.1130  0.6052 -0.6539
    9DOPE  H14R 1100   0.573   3.434   5.062  1.0728 -1.5651 -1.6108
    9DOPE  H14S 1101   0.726   3.421   4.969 -0.3476  0.4057 -1.0207
    9DOPE  C215 1102   0.595   3.582   4.915 -0.3144 -0.0923  0.2938
    9DOPE  H15R 1103   0.672   3.653   4.878  0.7231 -0.5399  1.5410
    9DOPE  H15S 1104   0.505   3.630   4.959  0.0804 -0.2996  1.3673
    9DOPE  C216 1105   0.550   3.499   4.798 -0.1627  0.3789  0.5321
    9DOPE  H16R 1106   0.485   3.418   4.837 -1.4464  1.2191  0.2026
    9DOPE  H16S 1107   0.636   3.452   4.746 -0.5635 -0.2309  0.4095
    9DOPE  C217 1108   0.473   3.581   4.688 -0.4903 -0.0725  0.3833
    9DOPE  H17R 1109   0.542   3.664   4.662  0.3160 -0.7853  0.2015
    9DOPE  H17S 1110   0.388   3.632   4.739  1.3260  3.3999  0.2237
    9DOPE  C218 1111   0.442   3.509   4.550 -0.3466 -0.0193 -0.4124
    9DOPE  H18R 1112   0.374   3.425   4.575  1.6650 -2.0718 -1.3900
    9DOPE  H18S 1113   0.537   3.467   4.509 -0.3619 -0.1720 -0.2901
    9DOPE  H18T 1114   0.386   3.573   4.479 -2.9001 -0.2667  1.2555
    9DOPE   C33 1115   1.529   4.414   6.133  0.4768 -0.2536 -0.0056
    9DOPE   H3X 1116   1.601   4.438   6.215  1.3207 -1.5902 -0.3352
    9DOPE   H3Y 1117   1.436   4.474   6.141  1.2463  0.9841 -0.0008
    9DOPE   C34 1118   1.589   4.460   5.998  0.1132 -0.5984 -0.8225
    9DOPE   H4X 1119   1.511   4.440   5.921 -0.7086  0.8532 -0.4056
    9DOPE   H4Y 1120   1.605   4.570   6.002  1.1109 -0.7615  1.0835
    9DOPE   C35 1121   1.717   4.383   5.958  0.4068  0.3470  0.5588
    9DOPE   H5X 1122   1.697   4.277   5.932 -0.3003 -0.2900  3.3169
    9DOPE   H5Y 1123   1.792   4.381   6.040 -0.1831 -1.1395  1.0848
    9DOPE   C36 1124   1.774   4.456   5.829  0.2643 -0.0460 -0.5132
    9DOPE   H6X 1125   1.795   4.562   5.855 -0.8229 -0.2048  1.1915
    9DOPE   H6Y 1126   1.688   4.473   5.760 -1.1880 -0.7974  1.0186
    9DOPE   C37 1127   1.873   4.370   5.749  0.2719  0.1353 -0.1346
    9DOPE   H7X 1128   1.955   4.357   5.823  1.2151 -0.5986 -1.2660
    9DOPE   H7Y 1129   1.824   4.271   5.735 -1.1417  0.8276 -0.2475
    9DOPE   C38 1130   1.936   4.429   5.624  0.6056 -0.1005  0.5254
    9DOPE   H8X 1131   1.992   4.514   5.669  1.0313  0.0662 -0.3003
    9DOPE   H8Y 1132   1.851   4.461   5.561  0.9977 -1.3333 -0.6713
    9DOPE   C39 1133   2.022   4.331   5.555  0.6498 -0.2029  0.1952
    9DOPE   H9X 1134   2.075   4.262   5.622 -0.6392  0.3120  1.8037
    9DOPE  C310 1135   2.022   4.319   5.421  0.2545  0.2766  0.0254
    9DOPE  H10X 1136   2.090   4.244   5.378 -0.6688 -1.3623  1.2770
    9DOPE  C311 1137   1.946   4.406   5.316 -0.3030 -0.2650  0.1077
    9DOPE  H11X 1138   1.904   4.348   5.230  0.5773 -0.2912 -0.3124
    9DOPE  H11Y 1139   1.867   4.473   5.357 -0.0673 -0.1332  0.3433
    9DOPE  C312 1140   2.049   4.518   5.262 -0.0203 -0.0196  0.2950
    9DOPE  H12X 1141   2.148   4.478   5.230  0.0563  0.3783  0.0249
    9DOPE  H12Y 1142   2.072   4.599   5.334  0.6865  1.0809 -1.1193
    9DOPE  C313 1143   1.987   4.604   5.148 -0.0664  0.7382  0.2148
    9DOPE  H13X 1144   1.946   4.546   5.062 -0.5439  3.6204 -1.6162
    9DOPE  H13Y 1145   1.908   4.658   5.205 -0.1502  3.3892 -2.2274
    9DOPE  C314 1146   2.097   4.690   5.089  0.1113 -0.3686  0.0544
    9DOPE  H14X 1147   2.176   4.710   5.166 -0.5617  4.2833 -0.1923
    9DOPE  H14Y 1148   2.057   4.786   5.050  1.3370 -0.0679 -0.5170
    9DOPE  C315 1149   2.181   4.623   4.984  0.0487  1.2678  0.0093
    9DOPE  H15X 1150   2.141   4.606   4.882  2.4079 -0.2464 -0.7469
    9DOPE  H15Y 1151   2.208   4.521   5.019 -0.1108  0.5692 -1.7951
    9DOPE  C316 1152   2.325   4.683   4.963  0.4877 -0.1812 -0.0641
    9DOPE  H16X 1153   2.372   4.638   4.873  3.0701  0.8259  0.6904
    9DOPE  H16Y 1154   2.382   4.660   5.056  1.2590 -0.0576 -0.4990
    9DOPE  C317 1155   2.324   4.827   4.931  0.3956 -0.3114 -0.3608
    9DOPE  H17X 1156   2.234   4.838   4.867 -0.0524 -0.8325  0.1632
    9DOPE  H17Y 1157   2.322   4.891   5.023  3.9494  1.9884 -1.6583
    9DOPE  C318 1158   2.450   4.881   4.866 -0.3873  0.2944  0.5842
    9DOPE  H18X 1159   2.529   4.890   4.944  0.4156 -2.1130  0.1168
    9DOPE  H18Y 1160   2.490   4.814   4.786 -1.2122 -2.4726  2.3835
    9DOPE  H18Z 1161   2.427   4.978   4.816 -1.0660 -0.4720 -0.6523
   10DOPE     N 1162   0.912   4.558   7.242 -0.3857 -0.5056 -0.7536
   10DOPE   HN1 1163   0.876   4.532   7.336  1.5675 -0.8330 -0.0427
   10DOPE   HN2 1164   0.896   4.491   7.164 -2.7508 -0.5594 -0.2722
   10DOPE   HN3 1165   1.009   4.585   7.268 -0.2525 -1.6484 -0.0275
   10DOPE   C12 1166   0.858   4.700   7.201  0.1737 -0.1678 -0.3223
   10DOPE  H12A 1167   0.896   4.763   7.284  1.3108  0.6399 -1.4225
   10DOPE  H12B 1168   0.747   4.692   7.205  0.1469  0.5205  0.7079
   10DOPE   C11 1169   0.892   4.750   7.058 -0.1058  0.2821  0.5854
   10DOPE  H11A 1170   0.826   4.840   7.059 -1.2181 -0.4188 -2.0199
   10DOPE  H11B 1171   0.851   4.684   6.979  1.6222  0.2740 -0.3511
   10DOPE     P 1172   1.093   4.925   7.051 -0.2175 -0.4202  0.2855
   10DOPE   O13 1173   1.238   4.917   7.082  0.3830  0.2764  0.2273
   10DOPE   O14 1174   1.011   5.004   7.144  0.0089  0.1758  0.4228
   10DOPE   O11 1175   1.076   4.992   6.899 -0.2852  0.3214  0.6402
   10DOPE   O12 1176   1.026   4.778   7.037 -0.3183 -0.4560  0.3602
   10DOPE    C1 1177   0.958   4.961   6.814 -0.6020 -0.4338 -0.0199
   10DOPE    HA 1178   0.865   4.953   6.875 -0.0817  0.2505  0.8853
   10DOPE    HB 1179   0.971   4.861   6.767 -1.7526 -0.6948  0.1878
   10DOPE    C2 1180   0.929   5.081   6.717 -0.0280 -0.2486 -0.3805
   10DOPE    HS 1181   0.837   5.059   6.659 -0.7608  3.2765 -0.7985
   10DOPE   O21 1182   1.043   5.112   6.630  0.0968 -0.1447 -0.1648
   10DOPE   C21 1183   1.063   5.015   6.537 -0.5978 -0.4668  0.2689
   10DOPE   O22 1184   0.993   4.914   6.521 -0.3848  0.2764  0.2998
   10DOPE   C22 1185   1.178   5.051   6.456 -0.5921 -1.1315  0.2775
   10DOPE   H2R 1186   1.252   5.101   6.522  1.0481  0.7653 -2.7114
   10DOPE   H2S 1187   1.147   5.135   6.390 -0.8146 -1.6844 -0.3287
   10DOPE    C3 1188   0.891   5.212   6.791  0.5195 -0.2657  0.6916
   10DOPE    HX 1189   0.981   5.226   6.854  0.3200  0.3035  0.8580
   10DOPE    HY 1190   0.803   5.199   6.856 -0.9230  5.4254  0.4621
   10DOPE   O31 1191   0.871   5.330   6.714 -0.3539 -0.6303 -0.2647
   10DOPE   C31 1192   0.867   5.439   6.793 -0.2032 -0.2942  0.4699
   10DOPE   O32 1193   0.867   5.444   6.916  0.6499  0.2699  0.3894
   10DOPE   C32 1194   0.856   5.561   6.707  0.0782 -0.0945 -0.1667
   10DOPE   H2X 1195   0.956   5.604   6.689  0.5514 -1.3927 -0.7125
   10DOPE   H2Y 1196   0.798   5.534   6.616  1.3720  0.8382 -1.3041
   10DOPE   C23 1197   1.233   4.922   6.384  0.3492  0.1004 -0.3579
   10DOPE   H3R 1198   1.164   4.887   6.304 -0.5126 -1.1209  0.8887
   10DOPE   H3S 1199   1.255   4.836   6.450 -0.3401 -0.6516 -1.0957
   10DOPE   C24 1200   1.369   4.963   6.310  0.3162  0.4757  0.2779
   10DOPE   H4R 1201   1.432   5.032   6.371  0.7157 -0.7900  1.3570
   10DOPE   H4S 1202   1.335   5.013   6.217  1.8076 -1.0744 -1.1567
   10DOPE   C25 1203   1.449   4.839   6.270  0.7577 -0.5049  0.6385
   10DOPE   H5R 1204   1.381   4.781   6.203  0.2903  1.5421 -0.7509
   10DOPE   H5S 1205   1.473   4.779   6.360  0.2236  0.6912  1.6036
   10DOPE   C26 1206   1.586   4.867   6.193  0.1114 -0.6984 -0.3204
   10DOPE   H6R 1207   1.644   4.772   6.190  0.7498 -0.2857 -1.3151
   10DOPE   H6S 1208   1.644   4.928   6.265 -0.1692  0.4183 -1.0131
   10DOPE   C27 1209   1.571   4.930   6.058  0.2785 -0.2917  0.2745
   10DOPE   H7R 1210   1.545   5.037   6.071 -4.0963 -0.9620 -1.3008
   10DOPE   H7S 1211   1.481   4.880   6.018  0.3062  0.1371 -0.3468
   10DOPE   C28 1212   1.684   4.895   5.949  1.2205 -0.2985 -0.3162
   10DOPE   H8R 1213   1.635   4.943   5.862 -3.3616 -2.0971  0.9373
   10DOPE   H8S 1214   1.686   4.784   5.940  1.0507 -0.5166  1.7065
   10DOPE   C29 1215   1.813   4.963   5.975 -0.7230  0.2391  0.4610
   10DOPE   H9R 1216   1.878   4.900   6.037  0.2869 -1.7100 -2.3598
   10DOPE  C210 1217   1.856   5.079   5.924  0.4009 -0.4966  0.7627
   10DOPE  H10R 1218   1.964   5.098   5.936  0.2756  0.6317  0.2483
   10DOPE  C211 1219   1.784   5.173   5.832  0.6924  0.3163  0.1796
   10DOPE  H11R 1220   1.752   5.269   5.879 -1.8701  0.0438 -0.8662
   10DOPE  H11S 1221   1.680   5.140   5.810  0.3352  1.4981  0.0110
   10DOPE  C212 1222   1.867   5.209   5.704  0.0074  0.3959 -0.7048
   10DOPE  H12R 1223   1.898   5.119   5.646  0.5968  0.1497 -0.0189
   10DOPE  H12S 1224   1.957   5.269   5.730  0.4366 -0.8273  0.7381
   10DOPE  C213 1225   1.787   5.304   5.606 -0.3348  1.1014 -1.0607
   10DOPE  H13R 1226   1.730   5.378   5.667  1.6766  1.1020  0.9687
   10DOPE  H13S 1227   1.707   5.244   5.559 -0.2893  0.4401 -0.3173
   10DOPE  C214 1228   1.878   5.368   5.494 -0.8841  0.3259 -0.5438
   10DOPE  H14R 1229   1.921   5.276   5.450 -1.0032 -1.0454  1.9688
   10DOPE  H14S 1230   1.954   5.427   5.550  0.5470 -0.4668 -1.5792
   10DOPE  C215 1231   1.796   5.457   5.404 -0.6484 -0.1085  0.0041
   10DOPE  H15R 1232   1.736   5.533   5.459 -0.9667  1.5080 -2.4366
   10DOPE  H15S 1233   1.716   5.391   5.362 -2.2583  2.1539 -0.6982
   10DOPE  C216 1234   1.874   5.508   5.287 -0.1626  0.4047 -0.5301
   10DOPE  H16R 1235   1.912   5.422   5.228 -0.2094  0.8835 -1.2838
   10DOPE  H16S 1236   1.953   5.574   5.329  0.9755 -0.8005 -0.7188
   10DOPE  C217 1237   1.788   5.602   5.197 -0.1672  0.2021 -0.0058
   10DOPE  H17R 1238   1.751   5.686   5.260  1.4661 -0.4033  1.8574
   10DOPE  H17S 1239   1.697   5.542   5.175  1.6185 -1.4712 -3.7826
   10DOPE  C218 1240   1.851   5.657   5.075 -0.3599 -0.1094  0.3392
   10DOPE  H18R 1241   1.959   5.675   5.097 -0.0763  1.6027 -2.0738
   10DOPE  H18S 1242   1.814   5.759   5.052  4.3862  2.0245  0.8407
   10DOPE  H18T 1243   1.854   5.589   4.988  1.7885 -0.9024  0.9513
   10DOPE   C33 1244   0.776   5.671   6.778 -0.0185 -0.5697  0.0948
   10DOPE   H3X 1245   0.832   5.704   6.868 -0.4794  1.8934 -0.4305
   10DOPE   H3Y 1246   0.690   5.616   6.822  1.6435 -1.3301  2.5877
   10DOPE   C34 1247   0.728   5.791   6.696  0.1211  0.1492  0.2224
   10DOPE   H4X 1248   0.671   5.859   6.763  0.6752 -0.9039  1.8291
   10DOPE   H4Y 1249   0.812   5.853   6.659  0.9164 -0.1412  1.4815
   10DOPE   C35 1250   0.629   5.752   6.581 -0.4594  0.0675 -0.2657
   10DOPE   H5X 1251   0.558   5.676   6.619 -0.9685  0.7631  0.2108
   10DOPE   H5Y 1252   0.693   5.705   6.503 -2.5296 -0.3514 -1.7767
   10DOPE   C36 1253   0.561   5.877   6.522 -0.2359  0.3302  0.4080
   10DOPE   H6X 1254   0.633   5.951   6.483  0.7956  0.1559  1.8955
   10DOPE   H6Y 1255   0.509   5.922   6.609  0.4460  1.1753  0.3912
   10DOPE   C37 1256   0.452   5.850   6.422  0.7500  0.0572  0.6933
   10DOPE   H7X 1257   0.488   5.783   6.341  1.0553  2.2924 -1.1228
   10DOPE   H7Y 1258   0.375   5.797   6.482 -0.3401 -0.3843 -1.0133
   10DOPE   C38 1259   0.392   5.980   6.365 -0.0345 -0.3365 -0.7083
   10DOPE   H8X 1260   0.388   6.047   6.453  1.6785  0.3184 -1.0827
   10DOPE   H8Y 1261   0.289   5.968   6.327  0.0401 -0.8073 -0.7608
   10DOPE   C39 1262   0.459   6.050   6.248 -0.0315  0.1779  0.2801
   10DOPE   H9X 1263   0.506   6.145   6.277  0.5635  0.2277 -0.8087
   10DOPE  C310 1264   0.473   6.006   6.124 -0.3400 -0.4155 -0.4217
   10DOPE  H10X 1265   0.519   6.081   6.058 -0.5184 -0.3535 -0.4779
   10DOPE  C311 1266   0.440   5.871   6.054  0.4609 -0.2323  0.3098
   10DOPE  H11X 1267   0.532   5.812   6.035  0.4720 -0.1767  0.1905
   10DOPE  H11Y 1268   0.375   5.819   6.127  0.9221 -0.1663  0.7693
   10DOPE  C312 1269   0.373   5.899   5.920  0.3726  0.2112  0.4228
   10DOPE  H12X 1270   0.278   5.954   5.935 -0.9903 -2.2328  1.3674
   10DOPE  H12Y 1271   0.347   5.807   5.863 -1.4121  0.8952  0.0566
   10DOPE  C313 1272   0.456   5.979   5.820  0.1816 -0.0124  0.3504
   10DOPE  H13X 1273   0.466   6.085   5.852  1.9767 -0.1338  0.2920
   10DOPE  H13Y 1274   0.551   5.921   5.824  0.3587  0.2897  0.5472
   10DOPE  C314 1275   0.410   5.966   5.676 -0.4278  0.1261  0.0736
   10DOPE  H14X 1276   0.308   6.010   5.681  0.1758  1.6342 -0.4051
   10DOPE  H14Y 1277   0.404   5.859   5.647 -1.3401  0.0066  0.6588
   10DOPE  C315 1278   0.497   6.043   5.578  0.7344 -0.5330  0.1098
   10DOPE  H15X 1279   0.602   6.008   5.577  0.8728 -0.1415  0.5356
   10DOPE  H15Y 1280   0.510   6.140   5.629 -2.0273 -0.4923  0.8991
   10DOPE  C316 1281   0.418   6.058   5.443 -0.1628  0.5181 -0.2451
   10DOPE  H16X 1282   0.327   6.119   5.457  0.3814  1.5031 -0.8961
   10DOPE  H16Y 1283   0.393   5.958   5.402  2.9613 -0.1756 -0.7500
   10DOPE  C317 1284   0.501   6.118   5.335 -0.1829  0.1051 -0.7062
   10DOPE  H17X 1285   0.518   6.226   5.356  2.4488 -0.6328  1.5982
   10DOPE  H17Y 1286   0.603   6.073   5.327 -0.3185 -0.1579 -0.9646
   10DOPE  C318 1287   0.433   6.097   5.199  0.2506 -0.5375 -0.2660
   10DOPE  H18X 1288   0.340   6.157   5.206  0.6581  0.0847 -0.0576
   10DOPE  H18Y 1289   0.492   6.144   5.118  1.9912 -2.8278 -0.4299
   10DOPE  H18Z 1290   0.402   5.995   5.170 -2.1002 -0.4210  1.5492
   11DOPE     N 1291   0.677   2.531   6.900 -0.2585  0.0418 -0.3008
   11DOPE   HN1 1292   0.599   2.591   6.867 -0.5081  0.0415  0.2695
   11DOPE   HN2 1293   0.743   2.595   6.948  1.5284 -3.2005  1.9799
   11DOPE   HN3 1294   0.723   2.486   6.819 -2.2222 -0.5053 -1.1719
   11DOPE   C12 1295   0.645   2.416   6.989 -0.1397 -0.1946  0.0960
   11DOPE  H12A 1296   0.637   2.452   7.094  0.9493 -0.2286  0.1940
   11DOPE  H12B 1297   0.732   2.349   6.976  2.4717  2.8261  0.8499
   11DOPE   C11 1298   0.513   2.355   6.959  0.3764 -0.2190 -0.6421
   11DOPE  H11A 1299   0.501   2.264   7.022  0.1216 -0.2301 -0.7082
   11DOPE  H11B 1300   0.529   2.310   6.859 -2.1415 -1.4241 -0.5602
   11DOPE     P 1301   0.297   2.465   6.876  0.2155  0.8030  0.6667
   11DOPE   O13 1302   0.213   2.581   6.909  0.3058  0.4231 -0.3544
   11DOPE   O14 1303   0.232   2.337   6.857  0.0850  0.6108  0.4230
   11DOPE   O11 1304   0.377   2.490   6.741 -0.1695  0.5856  0.4694
   11DOPE   O12 1305   0.407   2.439   6.985 -0.3557  1.5119  0.1320
   11DOPE    C1 1306   0.379   2.388   6.647 -0.0150  0.2890 -0.3221
   11DOPE    HA 1307   0.289   2.400   6.583 -0.8723 -0.7171  0.6461
   11DOPE    HB 1308   0.391   2.285   6.687  1.0535  0.4020 -0.3351
   11DOPE    C2 1309   0.504   2.389   6.549  0.1751  0.3758  0.6418
   11DOPE    HS 1310   0.590   2.390   6.620  1.1162 -1.1855 -0.4177
   11DOPE   O21 1311   0.503   2.504   6.467  0.3433  0.2659 -0.3922
   11DOPE   C21 1312   0.536   2.614   6.535  0.2970 -0.5984  0.4165
   11DOPE   O22 1313   0.618   2.629   6.627 -0.6461 -0.1267  0.5935
   11DOPE   C22 1314   0.475   2.731   6.459  0.4190 -0.3366 -0.1981
   11DOPE   H2R 1315   0.367   2.735   6.483  0.8785  1.4384  1.9140
   11DOPE   H2S 1316   0.497   2.716   6.351  0.3229 -0.0237 -0.2632
   11DOPE    C3 1317   0.516   2.255   6.471 -0.0784 -0.1448 -0.0423
   11DOPE    HX 1318   0.420   2.230   6.421  0.0554  0.1599 -0.4540
   11DOPE    HY 1319   0.546   2.172   6.540  0.0500 -0.1310 -0.0810
   11DOPE   O31 1320   0.603   2.252   6.354  0.4237 -0.1597 -0.4383
   11DOPE   C31 1321   0.737   2.253   6.381 -0.0341 -0.3695 -0.7620
   11DOPE   O32 1322   0.779   2.245   6.499 -0.5345 -0.5557  0.3279
   11DOPE   C32 1323   0.824   2.267   6.263 -0.5079 -0.5740 -0.1580
   11DOPE   H2X 1324   0.917   2.213   6.289  0.3619  0.3012 -1.3168
   11DOPE   H2Y 1325   0.766   2.214   6.185 -1.7090 -1.4814  1.3156
   11DOPE   C23 1326   0.524   2.874   6.504 -0.8396  0.4976 -0.1773
   11DOPE   H3R 1327   0.634   2.879   6.489 -0.8825  0.6809 -0.4465
   11DOPE   H3S 1328   0.505   2.881   6.613  1.4699 -1.7612  0.4728
   11DOPE   C24 1329   0.470   3.000   6.433  0.5083  0.6626  0.1311
   11DOPE   H4R 1330   0.497   3.093   6.487  1.0716  1.6578 -1.7724
   11DOPE   H4S 1331   0.362   2.988   6.408  0.5538  0.0876  0.1925
   11DOPE   C25 1332   0.526   3.010   6.290 -0.7850  0.0788  0.3473
   11DOPE   H5R 1333   0.485   2.933   6.221  1.1616 -0.0715 -0.7146
   11DOPE   H5S 1334   0.635   2.994   6.296 -0.8504 -0.2486  0.7204
   11DOPE   C26 1335   0.502   3.149   6.220  0.0244  0.2378 -0.0957
   11DOPE   H6R 1336   0.591   3.171   6.157  1.4873 -2.3049  0.9250
   11DOPE   H6S 1337   0.488   3.232   6.293 -1.5787  0.6876 -0.8798
   11DOPE   C27 1338   0.369   3.144   6.144 -0.7141 -0.3576  0.2203
   11DOPE   H7R 1339   0.280   3.137   6.209 -1.2350  3.9139  0.2968
   11DOPE   H7S 1340   0.373   3.053   6.081  1.2114  0.3180 -0.7353
   11DOPE   C28 1341   0.359   3.263   6.051 -1.1339 -0.7216  0.1303
   11DOPE   H8R 1342   0.457   3.274   5.999 -0.9961 -0.5490  0.4284
   11DOPE   H8S 1343   0.351   3.356   6.112 -1.1927 -0.4101 -0.3446
   11DOPE   C29 1344   0.252   3.258   5.945 -0.3958 -0.7308  0.5813
   11DOPE   H9R 1345   0.154   3.225   5.983 -0.8541 -2.1348 -1.6010
   11DOPE  C210 1346   0.272   3.261   5.810  0.7556 -0.0413 -0.3996
   11DOPE  H10R 1347   0.188   3.258   5.740  2.3127 -1.1852 -2.3067
   11DOPE  C211 1348   0.403   3.282   5.735  0.2386 -0.4931  0.1806
   11DOPE  H11R 1349   0.477   3.336   5.797 -0.8504  2.2914 -0.7811
   11DOPE  H11S 1350   0.394   3.360   5.657 -1.3616  0.1764  0.9806
   11DOPE  C212 1351   0.463   3.156   5.676  0.5012 -0.2204 -0.0597
   11DOPE  H12R 1352   0.571   3.180   5.662  1.3249 -4.3786 -2.5938
   11DOPE  H12S 1353   0.419   3.138   5.575 -1.6979  0.7830  0.6615
   11DOPE  C213 1354   0.450   3.021   5.759  0.1507  0.2502  0.4762
   11DOPE  H13R 1355   0.348   2.979   5.741 -0.0133  0.4773  0.8589
   11DOPE  H13S 1356   0.457   3.046   5.867  0.4260 -0.2486  0.5770
   11DOPE  C214 1357   0.560   2.917   5.724  0.2231 -0.0950 -0.0223
   11DOPE  H14R 1358   0.657   2.955   5.764  1.6092 -3.0736 -0.2348
   11DOPE  H14S 1359   0.565   2.915   5.613  1.1530 -1.6797  0.0149
   11DOPE  C215 1360   0.533   2.771   5.778  0.2601  0.1376 -0.3242
   11DOPE  H15R 1361   0.616   2.707   5.740 -0.1730 -1.0728  0.6935
   11DOPE  H15S 1362   0.435   2.746   5.733 -0.2314 -0.2722  0.9438
   11DOPE  C216 1363   0.519   2.751   5.928  0.4026  0.2038 -0.3579
   11DOPE  H16R 1364   0.456   2.828   5.978 -0.1186 -1.8498  2.3455
   11DOPE  H16S 1365   0.621   2.768   5.969  1.5711 -1.5043 -2.3689
   11DOPE  C217 1366   0.469   2.614   5.957  0.6548  0.5566 -0.1050
   11DOPE  H17R 1367   0.528   2.546   5.892 -0.5405 -1.0574  0.4178
   11DOPE  H17S 1368   0.360   2.606   5.936 -0.0430  0.9696  2.9420
   11DOPE  C218 1369   0.481   2.571   6.101 -0.3865  0.1647 -0.9538
   11DOPE  H18R 1370   0.579   2.594   6.147 -1.6858  2.6491  0.8282
   11DOPE  H18S 1371   0.472   2.461   6.107 -3.4231  0.2449 -1.9188
   11DOPE  H18T 1372   0.400   2.614   6.165  0.7368  1.8348 -0.5914
   11DOPE   C33 1373   0.850   2.417   6.217 -0.0542  0.0667  0.1307
   11DOPE   H3X 1374   0.755   2.465   6.185  1.7261  2.7560 -1.4311
   11DOPE   H3Y 1375   0.904   2.418   6.120  1.2771  1.3483  0.8480
   11DOPE   C34 1376   0.918   2.518   6.306 -0.4573 -0.6245 -0.1032
   11DOPE   H4X 1377   0.842   2.548   6.381 -0.8530  0.5917 -0.9587
   11DOPE   H4Y 1378   1.006   2.473   6.357 -1.0188  0.0207  1.4843
   11DOPE   C35 1379   0.967   2.637   6.230 -0.2916 -0.2460 -0.4097
   11DOPE   H5X 1380   0.990   2.718   6.303 -0.9581 -2.4398  2.4448
   11DOPE   H5Y 1381   0.903   2.683   6.151 -0.4474 -0.8326 -0.6311
   11DOPE   C36 1382   1.105   2.605   6.158 -0.5280  0.5632  0.0881
   11DOPE   H6X 1383   1.118   2.653   6.059  0.2760  0.2720  0.0453
   11DOPE   H6Y 1384   1.111   2.498   6.131  0.3334  0.8729 -1.0476
   11DOPE   C37 1385   1.226   2.620   6.258  0.4378 -0.2307  1.1117
   11DOPE   H7X 1386   1.209   2.715   6.314  2.0549  0.0139  1.2353
   11DOPE   H7Y 1387   1.217   2.535   6.329 -3.0991  0.4779  1.7253
   11DOPE   C38 1388   1.359   2.612   6.191  0.0081  0.3063  0.4697
   11DOPE   H8X 1389   1.366   2.709   6.137  4.5533 -1.2296 -2.2338
   11DOPE   H8Y 1390   1.347   2.529   6.118  1.1208  1.5684 -1.2468
   11DOPE   C39 1391   1.470   2.599   6.293 -0.4518 -0.1852 -0.4184
   11DOPE   H9X 1392   1.482   2.492   6.319  1.3046  0.2009  0.5235
   11DOPE  C310 1393   1.565   2.689   6.336  0.7325 -0.4658 -1.3548
   11DOPE  H10X 1394   1.627   2.666   6.424 -0.7746 -1.0598 -0.4012
   11DOPE  C311 1395   1.576   2.828   6.285  0.1263 -1.1070  0.4745
   11DOPE  H11X 1396   1.677   2.870   6.303 -0.5020  0.4353  0.6559
   11DOPE  H11Y 1397   1.561   2.828   6.175 -3.2419  1.2942  0.7590
   11DOPE  C312 1398   1.457   2.917   6.335 -0.1960  0.2173 -0.2095
   11DOPE  H12X 1399   1.448   2.930   6.445  0.9847 -2.5038  0.3032
   11DOPE  H12Y 1400   1.359   2.872   6.309 -0.3041  0.7804 -0.8286
   11DOPE  C313 1401   1.469   3.049   6.259  0.1179 -0.5552 -0.0522
   11DOPE  H13X 1402   1.408   3.122   6.316 -1.1793 -0.9303 -0.9192
   11DOPE  H13Y 1403   1.576   3.081   6.260 -0.1377  0.3582 -0.5659
   11DOPE  C314 1404   1.407   3.046   6.114 -0.3278 -0.1048 -0.0551
   11DOPE  H14X 1405   1.305   3.001   6.121 -1.6871  2.6673 -0.4744
   11DOPE  H14Y 1406   1.463   2.975   6.050 -1.3127 -0.4785 -0.5173
   11DOPE  C315 1407   1.386   3.180   6.043 -0.4015 -0.3204 -0.4393
   11DOPE  H15X 1408   1.489   3.216   6.019 -0.6193 -1.7647 -4.2253
   11DOPE  H15Y 1409   1.333   3.243   6.118  0.3513 -0.9356  0.6451
   11DOPE  C316 1410   1.290   3.188   5.917 -0.8601  0.3623 -0.1900
   11DOPE  H16X 1411   1.198   3.133   5.943  0.3524 -2.5319 -1.5879
   11DOPE  H16Y 1412   1.337   3.125   5.839 -2.5090  0.7614 -1.5497
   11DOPE  C317 1413   1.277   3.334   5.882 -0.0110  0.4935  0.3178
   11DOPE  H17X 1414   1.249   3.388   5.975 -0.3598 -0.7285  0.9339
   11DOPE  H17Y 1415   1.378   3.375   5.859  1.4016 -2.1264  1.5248
   11DOPE  C318 1416   1.204   3.363   5.748  0.2710 -0.7040 -0.4583
   11DOPE  H18X 1417   1.230   3.286   5.672 -1.4373 -2.0779  0.2877
   11DOPE  H18Y 1418   1.095   3.353   5.762  0.5610 -0.7115  2.3570
   11DOPE  H18Z 1419   1.226   3.467   5.715  0.5330 -0.1601  1.2960
   12DOPE     N 1420   2.839   6.013   7.288 -0.4288  0.4572 -0.5381
   12DOPE   HN1 1421   2.902   5.952   7.345 -0.4648  1.1949  0.3052
   12DOPE   HN2 1422   2.890   6.100   7.264 -1.3093  1.1090 -0.0959
   12DOPE   HN3 1423   2.754   6.045   7.338  0.5930  0.4657  1.2813
   12DOPE   C12 1424   2.792   5.952   7.163  0.1036 -0.0357  0.6820
   12DOPE  H12A 1425   2.889   5.922   7.118  0.3404  3.0690 -1.1459
   12DOPE  H12B 1426   2.742   6.022   7.093 -0.1856 -1.1762 -0.2855
   12DOPE   C11 1427   2.700   5.834   7.189  0.7228  0.0805  0.1442
   12DOPE  H11A 1428   2.655   5.809   7.090 -1.8880  1.7328  0.8144
   12DOPE  H11B 1429   2.619   5.863   7.259  1.7484  3.2769  0.1528
   12DOPE     P 1430   2.703   5.581   7.250 -0.2358 -0.7645  0.3156
   12DOPE   O13 1431   2.578   5.603   7.330  0.2355 -0.1690 -0.1437
   12DOPE   O14 1432   2.797   5.489   7.305 -0.1182 -0.2052 -0.6554
   12DOPE   O11 1433   2.666   5.539   7.102 -0.1096  0.1233 -0.0528
   12DOPE   O12 1434   2.774   5.723   7.225  0.6443 -0.0363  0.3289
   12DOPE    C1 1435   2.759   5.559   6.997 -0.6274  0.2582  0.5364
   12DOPE    HA 1436   2.805   5.459   6.979 -0.0842  0.7114 -0.6797
   12DOPE    HB 1437   2.845   5.623   7.026 -0.3997 -0.2738  1.0507
   12DOPE    C2 1438   2.698   5.627   6.870 -0.1952  0.7922  0.0364
   12DOPE    HS 1439   2.615   5.694   6.899 -0.8032 -0.3387  0.9761
   12DOPE   O21 1440   2.657   5.522   6.779  0.0235  0.0703 -0.3057
   12DOPE   C21 1441   2.532   5.481   6.786 -0.0989 -0.1061  0.0459
   12DOPE   O22 1442   2.456   5.519   6.875 -0.3117 -0.2246  0.3600
   12DOPE   C22 1443   2.513   5.390   6.663 -0.0255  0.0901 -0.6929
   12DOPE   H2R 1444   2.426   5.322   6.680  1.7158 -1.8259  1.0703
   12DOPE   H2S 1445   2.604   5.327   6.659  0.0663  0.2317 -0.8489
   12DOPE    C3 1446   2.806   5.702   6.791 -0.1220 -0.8184  0.7425
   12DOPE    HX 1447   2.879   5.623   6.764 -0.8660 -1.7270  1.3683
   12DOPE    HY 1448   2.858   5.774   6.858 -3.3207  0.5192  1.9730
   12DOPE   O31 1449   2.750   5.778   6.677  0.2067  0.5037  0.0234
   12DOPE   C31 1450   2.690   5.890   6.711  0.4262 -0.5402 -0.0547
   12DOPE   O32 1451   2.681   5.933   6.824  0.0464  0.7984  0.5483
   12DOPE   C32 1452   2.636   5.958   6.581  0.1961  0.1301 -0.4397
   12DOPE   H2X 1453   2.540   5.906   6.558  0.3766 -1.4638  2.0870
   12DOPE   H2Y 1454   2.610   6.059   6.621 -0.1234 -0.0047 -0.3040
   12DOPE   C23 1455   2.495   5.467   6.527 -0.3239  0.2157  0.1916
   12DOPE   H3R 1456   2.542   5.405   6.447  0.5908  0.8943  0.1947
   12DOPE   H3S 1457   2.551   5.562   6.538 -1.9897  1.1100  1.5034
   12DOPE   C24 1458   2.344   5.491   6.500  0.5783 -0.0447 -0.7504
   12DOPE   H4R 1459   2.297   5.550   6.581 -1.1813 -1.2247 -0.8543
   12DOPE   H4S 1460   2.306   5.387   6.504 -0.7170  0.4633  1.2178
   12DOPE   C25 1461   2.304   5.547   6.358  0.0676  0.8377 -0.4910
   12DOPE   H5R 1462   2.197   5.531   6.331 -0.5593  1.6636  1.3207
   12DOPE   H5S 1463   2.359   5.470   6.300 -0.2310  0.8407 -0.7858
   12DOPE   C26 1464   2.360   5.686   6.327 -0.1859  0.3042 -0.7890
   12DOPE   H6R 1465   2.467   5.698   6.352 -0.4654  0.8571  0.2146
   12DOPE   H6S 1466   2.306   5.749   6.402  1.3083 -0.4576  0.9854
   12DOPE   C27 1467   2.325   5.745   6.189  0.8315  0.3656 -0.4600
   12DOPE   H7R 1468   2.222   5.707   6.172  1.0063 -0.6491  0.6777
   12DOPE   H7S 1469   2.386   5.693   6.112  0.9260 -0.2709  0.0381
   12DOPE   C28 1470   2.318   5.895   6.173 -0.2878 -0.3013 -0.3804
   12DOPE   H8R 1471   2.409   5.934   6.223 -0.5832  1.5297 -1.1688
   12DOPE   H8S 1472   2.238   5.926   6.243  0.2425 -0.8514  0.4799
   12DOPE   C29 1473   2.298   5.938   6.027 -0.1028  0.9181 -0.3250
   12DOPE   H9R 1474   2.202   5.900   5.989 -1.0083  1.1422  1.6436
   12DOPE  C210 1475   2.375   6.013   5.946 -0.2628 -0.4748 -0.4918
   12DOPE  H10R 1476   2.336   6.034   5.845  2.0537  2.8313 -0.8298
   12DOPE  C211 1477   2.495   6.092   5.982  0.0796  1.2569  0.3521
   12DOPE  H11R 1478   2.579   6.021   5.966  0.2082  1.4927 -0.0431
   12DOPE  H11S 1479   2.495   6.111   6.092  2.3806 -0.0240  0.6510
   12DOPE  C212 1480   2.507   6.220   5.899 -0.0763 -0.7196  0.0429
   12DOPE  H12R 1481   2.599   6.269   5.936 -0.0352 -0.4735 -0.3767
   12DOPE  H12S 1482   2.424   6.288   5.928 -0.0084 -1.0707  1.1063
   12DOPE  C213 1483   2.505   6.221   5.745  0.4730  0.3133 -0.6194
   12DOPE  H13R 1484   2.500   6.330   5.727 -0.7872  0.4536  0.3974
   12DOPE  H13S 1485   2.403   6.186   5.715  0.5870 -0.2069 -0.4052
   12DOPE  C214 1486   2.621   6.149   5.678 -0.0561 -0.2488  0.6059
   12DOPE  H14R 1487   2.634   6.045   5.713  0.5993 -0.6059 -0.6593
   12DOPE  H14S 1488   2.708   6.214   5.702  0.3094 -0.7066  0.5203
   12DOPE  C215 1489   2.608   6.137   5.524  0.9660  0.2107 -0.5259
   12DOPE  H15R 1490   2.571   6.231   5.476 -1.8136 -0.8343 -0.5962
   12DOPE  H15S 1491   2.527   6.063   5.510 -2.0352  3.1527  0.0445
   12DOPE  C216 1492   2.731   6.097   5.444  0.3019  0.0179 -1.0781
   12DOPE  H16R 1493   2.814   6.164   5.476 -0.4926 -0.9387  3.7040
   12DOPE  H16S 1494   2.706   6.117   5.338  0.8942  1.8306 -0.9095
   12DOPE  C217 1495   2.783   5.955   5.461  0.3113 -0.3357 -0.4717
   12DOPE  H17R 1496   2.803   5.940   5.570  1.0078 -0.3046 -0.5923
   12DOPE  H17S 1497   2.884   5.941   5.416  0.6012  0.8278 -0.2146
   12DOPE  C218 1498   2.685   5.848   5.405  0.1120 -0.1685  0.0782
   12DOPE  H18R 1499   2.741   5.755   5.379 -1.6332 -1.1863 -0.2124
   12DOPE  H18S 1500   2.637   5.889   5.313 -0.8935  1.0200  1.0948
   12DOPE  H18T 1501   2.600   5.825   5.472  1.3195  1.9883  2.5345
   12DOPE   C33 1502   2.738   5.955   6.464 -0.1176  0.5877 -0.2815
   12DOPE   H3X 1503   2.729   5.852   6.423 -1.3537  0.5937 -0.0405
   12DOPE   H3Y 1504   2.841   5.983   6.495 -0.8349  2.0104  0.9134
   12DOPE   C34 1505   2.694   6.046   6.352 -0.1301 -0.6005  0.1399
   12DOPE   H4X 1506   2.588   6.021   6.327  0.0414 -2.0528  0.7851
   12DOPE   H4Y 1507   2.692   6.156   6.363  1.2098 -0.3720 -1.4575
   12DOPE   C35 1508   2.771   6.013   6.219  0.2702 -0.6402 -0.2185
   12DOPE   H5X 1509   2.728   6.078   6.139 -0.7473 -0.8487  0.1384
   12DOPE   H5Y 1510   2.755   5.907   6.188 -0.6382 -0.0261 -2.0085
   12DOPE   C36 1511   2.915   6.065   6.220  0.7259  0.2210  0.3447
   12DOPE   H6X 1512   2.978   6.037   6.307  2.7507 -0.7448 -1.3273
   12DOPE   H6Y 1513   2.911   6.175   6.228 -0.2018  0.3823 -1.6821
   12DOPE   C37 1514   2.994   6.029   6.090  0.1820 -0.3599  0.1540
   12DOPE   H7X 1515   3.098   6.070   6.092 -0.2061  0.5917  1.3471
   12DOPE   H7Y 1516   3.001   5.919   6.107  1.0491 -0.1757  1.0769
   12DOPE   C38 1517   2.928   6.064   5.957  1.0444  0.7434 -0.1119
   12DOPE   H8X 1518   2.829   6.014   5.954  0.7071  1.4345 -1.3114
   12DOPE   H8Y 1519   2.983   6.010   5.877 -0.7069 -0.5337 -0.5039
   12DOPE   C39 1520   2.913   6.213   5.920  0.3772 -0.0389 -0.2991
   12DOPE   H9X 1521   2.829   6.268   5.964  1.8501  0.2920  2.3497
   12DOPE  C310 1522   2.989   6.272   5.824 -0.1876 -0.1809  0.1747
   12DOPE  H10X 1523   2.985   6.381   5.809 -1.4318 -0.2167  0.1413
   12DOPE  C311 1524   3.108   6.216   5.748  0.4787 -0.2639  0.1598
   12DOPE  H11X 1525   3.191   6.289   5.743  0.8763 -0.2706  3.8305
   12DOPE  H11Y 1526   3.137   6.121   5.797 -1.2536 -0.7338  0.3498
   12DOPE  C312 1527   3.064   6.183   5.601 -0.5716 -0.2216  0.2544
   12DOPE  H12X 1528   2.986   6.252   5.562 -0.0935 -0.1695 -0.6207
   12DOPE  H12Y 1529   3.012   6.085   5.598  1.6238 -1.5065  1.3298
   12DOPE  C313 1530   3.188   6.186   5.501  0.2425 -0.1596  0.5383
   12DOPE  H13X 1531   3.242   6.282   5.516 -0.6350  0.2022  1.5546
   12DOPE  H13Y 1532   3.256   6.100   5.517 -0.1589 -0.4860  0.5007
   12DOPE  C314 1533   3.139   6.188   5.357 -0.3885 -0.6286 -0.2731
   12DOPE  H14X 1534   3.088   6.285   5.339  0.1649 -0.3221 -0.2062
   12DOPE  H14Y 1535   3.068   6.108   5.326 -0.0504 -0.6496 -1.0086
   12DOPE  C315 1536   3.260   6.193   5.264  0.8322 -0.1078  0.5098
   12DOPE  H15X 1537   3.324   6.102   5.274  0.2971 -0.5914 -0.3318
   12DOPE  H15Y 1538   3.320   6.282   5.291 -0.2747  0.9396 -0.3837
   12DOPE  C316 1539   3.217   6.213   5.116  0.0886  0.3331 -0.6366
   12DOPE  H16X 1540   3.143   6.295   5.110  0.9707  1.2980  1.1574
   12DOPE  H16Y 1541   3.174   6.119   5.076  0.1877  1.3454 -3.3431
   12DOPE  C317 1542   3.339   6.261   5.035 -0.4824  0.5333 -0.3850
   12DOPE  H17X 1543   3.360   6.363   5.074 -1.1807 -0.5468  3.1469
   12DOPE  H17Y 1544   3.433   6.209   5.061  0.2360  3.4407  3.8089
   12DOPE  C318 1545   3.312   6.267   4.890  0.1763 -0.0731  0.5174
   12DOPE  H18X 1546   3.247   6.354   4.867 -0.9127 -1.1339 -0.6513
   12DOPE  H18Y 1547   3.403   6.293   4.833 -1.4471 -0.7185 -2.6277
   12DOPE  H18Z 1548   3.252   6.182   4.851 -0.9285  1.1801 -0.5963
   13DOPE     N 1549   2.839   0.710   6.855  0.6024 -0.4282 -0.0849
   13DOPE   HN1 1550   2.880   0.615   6.841 -0.7141 -1.3621  1.8909
   13DOPE   HN2 1551   2.764   0.715   6.783 -0.9549 -3.6895  1.0669
   13DOPE   HN3 1552   2.912   0.782   6.838 -2.9373  3.1970 -1.6282
   13DOPE   C12 1553   2.787   0.718   6.993 -0.0346  0.2972  0.1237
   13DOPE  H12A 1554   2.774   0.827   7.011  0.5310  0.2692  0.7185
   13DOPE  H12B 1555   2.860   0.673   7.063 -0.3441 -0.9823 -0.3472
   13DOPE   C11 1556   2.656   0.643   7.000  0.8846 -0.7223 -0.7179
   13DOPE  H11A 1557   2.585   0.677   6.921 -0.8701  1.7024  1.7292
   13DOPE  H11B 1558   2.604   0.677   7.091  2.6688 -0.4115  0.2281
   13DOPE     P 1559   2.555   0.398   6.984  0.2478 -0.4000  0.0262
   13DOPE   O13 1560   2.427   0.456   7.032  0.2850  0.2725 -0.4690
   13DOPE   O14 1561   2.587   0.266   7.043 -0.4584  0.2650  0.7659
   13DOPE   O11 1562   2.550   0.380   6.826 -0.4704  0.7585 -0.2514
   13DOPE   O12 1563   2.670   0.500   7.013 -0.0735 -0.1604 -0.7775
   13DOPE    C1 1564   2.639   0.281   6.770  0.4968 -0.3851  0.0594
   13DOPE    HA 1565   2.634   0.184   6.825 -2.6707  0.3315  1.2510
   13DOPE    HB 1566   2.742   0.322   6.771  0.6864 -0.7407 -1.7243
   13DOPE    C2 1567   2.602   0.246   6.623  0.1040 -0.2156 -0.0981
   13DOPE    HS 1568   2.689   0.183   6.596  0.0332 -0.1699 -0.4402
   13DOPE   O21 1569   2.595   0.360   6.531 -0.5212  0.2183 -0.7219
   13DOPE   C21 1570   2.705   0.435   6.521  0.6713 -0.5872 -0.1902
   13DOPE   O22 1571   2.811   0.405   6.574  0.1098 -0.0491  0.3417
   13DOPE   C22 1572   2.682   0.548   6.424  0.3028  0.4348 -0.2422
   13DOPE   H2R 1573   2.778   0.604   6.419  0.9901 -0.7808 -3.3666
   13DOPE   H2S 1574   2.595   0.606   6.461  0.2325  0.7552 -0.8921
   13DOPE    C3 1575   2.468   0.165   6.613  0.0985 -0.2352 -0.1948
   13DOPE    HX 1576   2.382   0.233   6.629 -0.3040 -1.1612  2.0097
   13DOPE    HY 1577   2.467   0.088   6.693  0.6461 -0.5486 -0.4820
   13DOPE   O31 1578   2.454   0.098   6.485 -0.2152 -0.1537 -0.6947
   13DOPE   C31 1579   2.515  -0.022   6.470  0.0025 -0.2640 -0.2345
   13DOPE   O32 1580   2.612  -0.066   6.533  0.8919  0.0667  0.4568
   13DOPE   C32 1581   2.437  -0.101   6.364 -1.0956 -0.6996 -0.2745
   13DOPE   H2X 1582   2.430  -0.205   6.401 -0.3107 -0.6326  0.0770
   13DOPE   H2Y 1583   2.333  -0.062   6.352  1.0210  5.7820 -1.3984
   13DOPE   C23 1584   2.652   0.510   6.280 -0.9324  0.1945  0.2753
   13DOPE   H3R 1585   2.642   0.598   6.213  0.1422 -0.9328 -1.4534
   13DOPE   H3S 1586   2.554   0.459   6.274  0.2309 -2.4074  1.7009
   13DOPE   C24 1587   2.761   0.411   6.226 -0.1583  0.5560  0.1431
   13DOPE   H4R 1588   2.764   0.319   6.288 -2.8233 -0.4031 -0.9933
   13DOPE   H4S 1589   2.867   0.446   6.232  0.2957 -0.5642 -0.9596
   13DOPE   C25 1590   2.741   0.367   6.080  0.0504 -0.2314 -0.2180
   13DOPE   H5R 1591   2.728   0.454   6.014  2.0906 -0.3712 -0.8747
   13DOPE   H5S 1592   2.653   0.299   6.080  0.4555 -0.7714  0.3708
   13DOPE   C26 1593   2.854   0.282   6.036  0.1447  0.3245  0.3603
   13DOPE   H6R 1594   2.885   0.206   6.111  1.1301 -0.2465 -0.5923
   13DOPE   H6S 1595   2.930   0.362   6.031 -1.2494  1.8862  2.4462
   13DOPE   C27 1596   2.830   0.202   5.899 -0.3125 -0.1887  1.3050
   13DOPE   H7R 1597   2.738   0.143   5.919 -1.9478  1.1313 -1.6065
   13DOPE   H7S 1598   2.912   0.130   5.879  0.7344  1.3489 -0.2021
   13DOPE   C28 1599   2.803   0.297   5.780  0.0925 -0.3579  0.5705
   13DOPE   H8R 1600   2.901   0.345   5.759 -0.3053 -0.0575 -0.7208
   13DOPE   H8S 1601   2.733   0.377   5.811 -1.4519 -0.3309 -2.5666
   13DOPE   C29 1602   2.759   0.241   5.648  0.1156  0.0202 -0.8009
   13DOPE   H9R 1603   2.662   0.189   5.655 -0.3139  0.9440  0.3592
   13DOPE  C210 1604   2.822   0.233   5.534 -0.5260  0.1969 -0.6082
   13DOPE  H10R 1605   2.756   0.195   5.454 -1.3158  0.6936 -0.2065
   13DOPE  C211 1606   2.954   0.287   5.494 -0.7390  0.8270  0.1801
   13DOPE  H11R 1607   3.031   0.209   5.472 -1.7289 -0.5444  1.3758
   13DOPE  H11S 1608   3.000   0.356   5.567  0.5059 -2.8121  3.1713
   13DOPE  C212 1609   2.943   0.379   5.375 -1.1848 -0.0935 -0.2108
   13DOPE  H12R 1610   3.045   0.417   5.353 -2.0559  1.1296 -2.4516
   13DOPE  H12S 1611   2.884   0.472   5.396 -1.0351 -0.2047  0.7366
   13DOPE  C213 1612   2.882   0.309   5.253  0.0452  0.0838 -0.6172
   13DOPE  H13R 1613   2.912   0.378   5.171  0.4743  0.7816  0.1091
   13DOPE  H13S 1614   2.773   0.299   5.269  0.0965  1.0286  0.4898
   13DOPE  C214 1615   2.953   0.173   5.231  0.0857 -0.0668 -0.1078
   13DOPE  H14R 1616   2.905   0.086   5.279  0.7405 -0.5582 -0.3304
   13DOPE  H14S 1617   3.057   0.181   5.268 -0.0945  1.7928  0.1014
   13DOPE  C215 1618   2.956   0.148   5.078 -0.2090  0.8904  0.1930
   13DOPE  H15R 1619   3.028   0.223   5.039 -1.4736  0.3815 -3.5367
   13DOPE  H15S 1620   2.856   0.157   5.030 -1.6721  0.9184  3.0566
   13DOPE  C216 1621   3.021   0.009   5.041 -0.8066  0.0147 -0.2177
   13DOPE  H16R 1622   2.953  -0.074   5.066 -0.7064 -0.6351 -1.9900
   13DOPE  H16S 1623   3.109  -0.001   5.108 -2.5227  2.5344  2.6657
   13DOPE  C217 1624   3.070  -0.003   4.894 -1.1942  0.0624 -0.3606
   13DOPE  H17R 1625   3.139   0.082   4.877  1.6631 -2.1866 -0.9090
   13DOPE  H17S 1626   2.988   0.021   4.823 -0.1924 -0.1436 -1.6289
   13DOPE  C218 1627   3.157  -0.127   4.870 -0.3622  0.3181  0.1954
   13DOPE  H18R 1628   3.170  -0.146   4.761  1.0071  1.0923  0.1899
   13DOPE  H18S 1629   3.118  -0.218   4.919  0.8118  0.4430  1.4313
   13DOPE  H18T 1630   3.257  -0.113   4.918  0.7567 -1.2661 -1.5486
   13DOPE   C33 1631   2.507  -0.124   6.229 -0.7737  0.5732  0.3680
   13DOPE   H3X 1632   2.464  -0.205   6.168  2.0845 -0.8066  0.0252
   13DOPE   H3Y 1633   2.614  -0.147   6.250 -1.2532 -3.1128 -0.6500
   13DOPE   C34 1634   2.483   0.004   6.141  0.2323 -0.8786 -0.2350
   13DOPE   H4X 1635   2.378   0.021   6.111  0.2162 -0.4617  0.0424
   13DOPE   H4Y 1636   2.520   0.094   6.195  0.1652 -0.5503 -0.7242
   13DOPE   C35 1637   2.568  -0.017   6.013 -0.2601 -0.2323  0.0708
   13DOPE   H5X 1638   2.676  -0.008   6.037  0.1024 -0.8306 -1.2529
   13DOPE   H5Y 1639   2.542   0.072   5.952  0.0383  0.0704  0.3828
   13DOPE   C36 1640   2.539  -0.130   5.916  0.3110  0.0468 -0.0066
   13DOPE   H6X 1641   2.430  -0.131   5.896  0.1574  0.2268  0.7931
   13DOPE   H6Y 1642   2.555  -0.232   5.958 -2.3579 -0.0045  1.0444
   13DOPE   C37 1643   2.608  -0.112   5.778  0.2174 -0.3815  0.6889
   13DOPE   H7X 1644   2.563  -0.026   5.725  0.4310 -0.3204  0.6046
   13DOPE   H7Y 1645   2.714  -0.084   5.795  0.1096 -0.0505  0.8265
   13DOPE   C38 1646   2.588  -0.227   5.678  0.0637  1.2831  0.2996
   13DOPE   H8X 1647   2.479  -0.239   5.662  0.6156 -0.3995 -3.1197
   13DOPE   H8Y 1648   2.633  -0.320   5.719  0.4010  0.6045 -1.5313
   13DOPE   C39 1649   2.659  -0.187   5.546 -0.0585  0.2333 -0.0052
   13DOPE   H9X 1650   2.768  -0.180   5.559  0.4463 -0.6470 -3.0396
   13DOPE  C310 1651   2.600  -0.160   5.429 -0.9293 -0.2056 -0.2012
   13DOPE  H10X 1652   2.667  -0.137   5.344  2.8185 -2.0963  1.9585
   13DOPE  C311 1653   2.456  -0.145   5.391 -0.5462 -0.0513  0.5985
   13DOPE  H11X 1654   2.432  -0.212   5.307 -1.4072 -0.1195  0.8944
   13DOPE  H11Y 1655   2.385  -0.161   5.475 -0.1070 -1.5796  0.7134
   13DOPE  C312 1656   2.427  -0.004   5.337 -0.1888 -0.0712 -0.3728
   13DOPE  H12X 1657   2.323   0.008   5.299 -0.3563 -2.1863 -0.6875
   13DOPE  H12Y 1658   2.499   0.017   5.255 -1.2757  1.1251 -1.0617
   13DOPE  C313 1659   2.452   0.103   5.443  0.2765  0.0829 -0.4336
   13DOPE  H13X 1660   2.546   0.087   5.499 -0.9354 -0.4135  1.5671
   13DOPE  H13Y 1661   2.461   0.203   5.395 -0.9936 -0.9201 -2.9973
   13DOPE  C314 1662   2.339   0.107   5.559 -0.7416  0.1367  0.6019
   13DOPE  H14X 1663   2.324   0.004   5.599  1.2346 -0.6292 -0.5007
   13DOPE  H14Y 1664   2.239   0.146   5.534 -1.6656 -0.8234  2.5349
   13DOPE  C315 1665   2.391   0.210   5.672  0.9699  0.1119 -0.5257
   13DOPE  H15X 1666   2.404   0.312   5.630 -0.4425  0.7963  0.6166
   13DOPE  H15Y 1667   2.495   0.192   5.706  0.8439  2.3841  1.3488
   13DOPE  C316 1668   2.313   0.213   5.809  0.1629 -0.0119 -0.1464
   13DOPE  H16X 1669   2.312   0.114   5.858  0.1241  0.9050  1.8310
   13DOPE  H16Y 1670   2.205   0.237   5.796 -0.1049  0.2411  2.1414
   13DOPE  C317 1671   2.368   0.317   5.913  0.0207 -0.2018  0.5170
   13DOPE  H17X 1672   2.353   0.266   6.010  0.5312 -1.1876  0.0889
   13DOPE  H17Y 1673   2.478   0.324   5.906 -0.0720  1.6739  0.5622
   13DOPE  C318 1674   2.294   0.454   5.912  0.6548  0.6105  0.1905
   13DOPE  H18X 1675   2.310   0.511   5.818 -0.2522 -0.1708 -0.4563
   13DOPE  H18Y 1676   2.185   0.431   5.913  1.0515 -1.5077 -0.5082
   13DOPE  H18Z 1677   2.318   0.513   6.003  2.5459  1.2569 -0.6817
   14DOPE     N 1678   6.549   4.661   7.063 -0.3362  0.5687  0.4018
   14DOPE   HN1 1679   6.473   4.590   7.066 -2.0318  2.1059 -2.1469
   14DOPE   HN2 1680   6.490   4.747   7.063  0.0053  0.8122  0.8617
   14DOPE   HN3 1681   6.606   4.656   6.976  2.1898 -1.1585  2.0249
   14DOPE   C12 1682   6.647   4.668   7.174  0.4302 -0.0016  0.1755
   14DOPE  H12A 1683   6.718   4.582   7.166  0.8450  0.1948  1.4327
   14DOPE  H12B 1684   6.597   4.655   7.272 -0.5080  2.8975  0.1696
   14DOPE   C11 1685   6.740   4.797   7.158 -0.6247  1.4878  0.1003
   14DOPE  H11A 1686   6.792   4.799   7.060  0.9673 -0.8273  0.8057
   14DOPE  H11B 1687   6.819   4.779   7.235  0.9829 -0.2305 -1.8489
   14DOPE     P 1688   6.573   5.007   7.101  0.3212 -0.0961 -0.0742
   14DOPE   O13 1689   6.533   5.123   7.182 -0.7395 -0.0534  0.1374
   14DOPE   O14 1690   6.463   4.922   7.055 -0.0849  0.1624  0.6216
   14DOPE   O11 1691   6.662   5.049   6.980  0.2383 -0.4052 -0.2862
   14DOPE   O12 1692   6.661   4.915   7.194  0.7194 -0.0018  0.1469
   14DOPE    C1 1693   6.607   5.044   6.850  0.6530 -0.3399 -0.5498
   14DOPE    HA 1694   6.499   5.070   6.855  0.3849 -1.6025  1.3554
   14DOPE    HB 1695   6.600   4.941   6.809  0.2358  0.6453 -3.1523
   14DOPE    C2 1696   6.683   5.125   6.746  0.3899  0.2115  0.2208
   14DOPE    HS 1697   6.638   5.096   6.649 -0.0397 -0.2409  0.5536
   14DOPE   O21 1698   6.829   5.110   6.751  0.1154  0.4265  0.6772
   14DOPE   C21 1699   6.869   4.998   6.693 -0.0094 -0.2162 -0.6303
   14DOPE   O22 1700   6.797   4.908   6.652  0.3374 -0.2674  0.5177
   14DOPE   C22 1701   7.021   5.008   6.693  1.2337 -0.2221 -0.0083
   14DOPE   H2R 1702   7.057   4.969   6.791  0.5289  0.0611  0.3671
   14DOPE   H2S 1703   7.060   5.109   6.672 -0.8215  0.2794 -1.7677
   14DOPE    C3 1704   6.646   5.270   6.755 -0.0262  0.0261  0.1081
   14DOPE    HX 1705   6.687   5.321   6.845 -0.1629 -0.6146  0.5390
   14DOPE    HY 1706   6.535   5.282   6.754 -0.2606 -1.9500 -0.5962
   14DOPE   O31 1707   6.695   5.341   6.639  0.4984  0.2399 -0.5170
   14DOPE   C31 1708   6.822   5.392   6.648 -0.2750 -0.3719 -0.2456
   14DOPE   O32 1709   6.887   5.403   6.751  0.2634 -0.8145  0.5151
   14DOPE   C32 1710   6.865   5.424   6.510 -0.2277  0.7012  0.6591
   14DOPE   H2X 1711   6.825   5.354   6.435 -0.7682  0.2876  1.3212
   14DOPE   H2Y 1712   6.810   5.513   6.474  0.2570  0.0535 -1.8964
   14DOPE   C23 1713   7.093   4.918   6.590 -0.4613  0.3849  0.6160
   14DOPE   H3R 1714   7.049   4.817   6.576  1.1224 -0.0828 -1.2742
   14DOPE   H3S 1715   7.197   4.901   6.623 -0.7958 -1.4665  0.8162
   14DOPE   C24 1716   7.115   4.982   6.453  0.2821  0.5326 -0.5940
   14DOPE   H4R 1717   7.201   5.052   6.465  2.7095 -2.5695  1.7260
   14DOPE   H4S 1718   7.023   5.033   6.416 -0.6879 -0.0912  0.8591
   14DOPE   C25 1719   7.153   4.867   6.352  0.0124  0.2873 -0.2486
   14DOPE   H5R 1720   7.084   4.780   6.359  1.1226 -0.7871 -1.8656
   14DOPE   H5S 1721   7.254   4.828   6.379 -0.0455 -0.4965 -1.0910
   14DOPE   C26 1722   7.166   4.901   6.204 -0.1231  0.3300 -0.1844
   14DOPE   H6R 1723   7.214   4.820   6.145 -1.6526 -0.1292 -0.8528
   14DOPE   H6S 1724   7.239   4.984   6.202  0.2128  0.0945  1.3200
   14DOPE   C27 1725   7.040   4.951   6.129  0.3215 -0.4530  0.3068
   14DOPE   H7R 1726   7.021   5.053   6.169  1.4434  0.0763 -0.4585
   14DOPE   H7S 1727   6.963   4.879   6.164 -1.0131  0.8463  0.1429
   14DOPE   C28 1728   7.050   4.936   5.979  0.5825 -0.0520 -0.7539
   14DOPE   H8R 1729   6.950   4.955   5.934 -0.9378 -2.2242  1.4858
   14DOPE   H8S 1730   7.067   4.829   5.952  1.0184 -0.0227 -0.6080
   14DOPE   C29 1731   7.151   5.028   5.917  0.4488  0.3700 -0.4411
   14DOPE   H9R 1732   7.125   5.135   5.911  2.3330  0.8591 -0.5848
   14DOPE  C210 1733   7.267   4.993   5.851  0.1628 -0.1076 -0.1190
   14DOPE  H10R 1734   7.332   5.069   5.807  0.0648 -1.3571 -2.5792
   14DOPE  C211 1735   7.317   4.855   5.834  0.0192 -0.2981  0.2109
   14DOPE  H11R 1736   7.252   4.766   5.852  1.0632 -1.4442 -1.4187
   14DOPE  H11S 1737   7.405   4.832   5.898 -1.0786 -0.0756  1.8646
   14DOPE  C212 1738   7.358   4.833   5.679  0.9372  0.3927 -0.1143
   14DOPE  H12R 1739   7.419   4.741   5.671  1.9745  0.8797  1.5743
   14DOPE  H12S 1740   7.424   4.918   5.648  0.1755  0.7893 -0.6647
   14DOPE  C213 1741   7.239   4.814   5.589 -0.6918  0.3434  0.1903
   14DOPE  H13R 1742   7.158   4.889   5.586 -0.3094  1.0213  3.4070
   14DOPE  H13S 1743   7.176   4.727   5.620  1.8356 -2.4329 -1.8342
   14DOPE  C214 1744   7.287   4.779   5.440  0.1969 -0.2065 -0.3388
   14DOPE  H14R 1745   7.189   4.746   5.401 -0.3470  0.0739  0.7547
   14DOPE  H14S 1746   7.360   4.695   5.447 -0.0306 -0.6064 -2.3684
   14DOPE  C215 1747   7.328   4.909   5.368 -0.4487 -0.4421 -0.5656
   14DOPE  H15R 1748   7.413   4.953   5.425 -0.5689  0.6601 -1.2274
   14DOPE  H15S 1749   7.246   4.983   5.357  0.0550 -0.1617 -2.7488
   14DOPE  C216 1750   7.395   4.897   5.228 -0.2443  0.4510 -0.6021
   14DOPE  H16R 1751   7.460   4.808   5.231 -0.5273  0.2071 -1.5291
   14DOPE  H16S 1752   7.462   4.985   5.215  0.0760  0.1176 -1.2255
   14DOPE  C217 1753   7.300   4.882   5.104 -0.0936 -0.4162  0.2674
   14DOPE  H17R 1754   7.253   4.980   5.080 -0.0266 -0.1980  0.9817
   14DOPE  H17S 1755   7.219   4.817   5.145  1.0256 -1.1930  1.3194
   14DOPE  C218 1756   7.354   4.820   4.975 -0.3643 -0.5252 -0.2029
   14DOPE  H18R 1757   7.404   4.899   4.914 -2.6823  1.4753  0.3268
   14DOPE  H18S 1758   7.267   4.802   4.909 -0.3470  2.5301 -1.2160
   14DOPE  H18T 1759   7.417   4.732   5.000  1.6787  1.4744  2.3297
   14DOPE   C33 1760   7.016   5.451   6.491  0.3461 -0.2512 -0.2983
   14DOPE   H3X 1761   7.075   5.362   6.523 -0.5643 -1.0806 -0.8802
   14DOPE   H3Y 1762   7.051   5.533   6.557  2.9553 -1.6806  0.2170
   14DOPE   C34 1763   7.048   5.485   6.343  0.4636 -0.2619 -0.2798
   14DOPE   H4X 1764   7.017   5.405   6.272  2.0544  0.1788 -1.5507
   14DOPE   H4Y 1765   6.979   5.563   6.306 -0.3634 -1.8008 -2.1791
   14DOPE   C35 1766   7.198   5.522   6.329 -0.2517 -0.3464 -0.3828
   14DOPE   H5X 1767   7.255   5.435   6.368 -0.2377 -0.0006  0.3793
   14DOPE   H5Y 1768   7.221   5.612   6.390 -1.4155 -0.4330  0.2155
   14DOPE   C36 1769   7.239   5.539   6.176 -0.1202  0.3376  0.0677
   14DOPE   H6X 1770   7.345   5.573   6.176  0.3644 -1.1336 -0.1859
   14DOPE   H6Y 1771   7.190   5.624   6.124 -0.3145  0.2302  0.0754
   14DOPE   C37 1772   7.246   5.412   6.101  0.5996  0.0368  0.4784
   14DOPE   H7X 1773   7.310   5.340   6.157  1.5546  1.3283  1.0713
   14DOPE   H7Y 1774   7.145   5.366   6.103 -0.5899  2.4913  0.4816
   14DOPE   C38 1775   7.311   5.418   5.960  0.0197  0.3421 -0.9272
   14DOPE   H8X 1776   7.335   5.319   5.915  1.4461  0.4268 -0.3958
   14DOPE   H8Y 1777   7.407   5.467   5.988 -0.1239 -0.7026  1.7267
   14DOPE   C39 1778   7.236   5.500   5.862 -0.3395 -0.1707 -0.3475
   14DOPE   H9X 1779   7.141   5.452   5.838  0.5907 -1.1309 -2.3555
   14DOPE  C310 1780   7.260   5.622   5.804 -0.7187 -0.4367  0.3795
   14DOPE  H10X 1781   7.188   5.662   5.731 -0.4892 -0.6528  0.0318
   14DOPE  C311 1782   7.375   5.711   5.827 -0.7519  0.4046  0.4277
   14DOPE  H11X 1783   7.461   5.653   5.866  0.2806  1.0209 -0.8379
   14DOPE  H11Y 1784   7.410   5.743   5.726 -1.5123 -1.8202 -0.5990
   14DOPE  C312 1785   7.359   5.836   5.907 -0.4571 -0.1943 -0.3983
   14DOPE  H12X 1786   7.337   5.810   6.012 -1.7096  0.4757 -0.4793
   14DOPE  H12Y 1787   7.280   5.909   5.881  0.1588  0.6569  0.0954
   14DOPE  C313 1788   7.485   5.930   5.896  0.2607 -0.3466  0.7035
   14DOPE  H13X 1789   7.568   5.859   5.915  0.3753 -0.2767  0.4586
   14DOPE  H13Y 1790   7.501   5.993   5.806 -0.7834 -0.2771  0.5493
   14DOPE  C314 1791   7.480   6.031   6.007 -0.0195  0.5025  0.5198
   14DOPE  H14X 1792   7.436   5.996   6.102 -0.6833  1.0197  0.4123
   14DOPE  H14Y 1793   7.420   6.119   5.973  0.6262  0.9635  0.5618
   14DOPE  C315 1794   7.625   6.076   6.028  0.1467 -0.9132 -0.2532
   14DOPE  H15X 1795   7.666   6.139   5.946  1.1511  1.5688  1.9874
   14DOPE  H15Y 1796   7.689   5.987   6.047  0.8938 -0.7256 -1.7585
   14DOPE  C316 1797   7.640   6.154   6.162 -0.5333  0.2124  0.3629
   14DOPE  H16X 1798   7.581   6.095   6.235 -2.2316  0.8092 -0.4761
   14DOPE  H16Y 1799   7.598   6.257   6.156 -0.3111  0.2747 -0.1826
   14DOPE  C317 1800   7.785   6.175   6.199  0.1613 -0.1953  0.8395
   14DOPE  H17X 1801   7.852   6.088   6.187  0.4638  0.2420 -0.8041
   14DOPE  H17Y 1802   7.825   6.255   6.134 -0.5804 -1.4460 -1.2243
   14DOPE  C318 1803   7.795   6.238   6.335 -0.2717  0.0103  0.7732
   14DOPE  H18X 1804   7.899   6.249   6.372 -0.5705  1.4646  1.2089
   14DOPE  H18Y 1805   7.775   6.347   6.334  2.2324  0.5324 -0.5441
   14DOPE  H18Z 1806   7.723   6.187   6.403  0.1517 -1.5514  0.1032
   15DOPE     N 1807   0.815   1.334   6.963 -0.2197 -0.1846  0.2292
   15DOPE   HN1 1808   0.759   1.408   6.917  0.9972  0.2288 -0.6215
   15DOPE   HN2 1809   0.761   1.246   6.968  1.2815 -1.2553 -1.4198
   15DOPE   HN3 1810   0.842   1.361   7.060  0.3267  1.5554 -0.3717
   15DOPE   C12 1811   0.939   1.325   6.877  0.4086  0.7335  0.6588
   15DOPE  H12A 1812   0.913   1.290   6.774  2.0519  1.0935  0.0984
   15DOPE  H12B 1813   0.995   1.242   6.924  0.0458 -0.6008 -1.1270
   15DOPE   C11 1814   1.019   1.455   6.869 -0.1429  0.4077  0.0386
   15DOPE  H11A 1815   1.103   1.430   6.800 -1.2554 -0.6557 -0.9925
   15DOPE  H11B 1816   1.063   1.468   6.970 -0.6894 -1.0921  0.4876
   15DOPE     P 1817   0.989   1.669   6.732 -0.4420  0.3062 -0.1607
   15DOPE   O13 1818   1.133   1.702   6.753  0.3754 -0.1729 -0.0631
   15DOPE   O14 1819   0.901   1.791   6.731  0.2581 -0.2703 -0.4353
   15DOPE   O11 1820   0.971   1.585   6.596 -0.2142 -0.5331 -0.0296
   15DOPE   O12 1821   0.945   1.570   6.841  0.5889 -0.0544 -0.0885
   15DOPE    C1 1822   0.853   1.510   6.572 -0.5156  0.0125 -0.1639
   15DOPE    HA 1823   0.784   1.512   6.660  0.9849  0.8724  1.0571
   15DOPE    HB 1824   0.885   1.404   6.569  0.5916  0.3646 -1.8059
   15DOPE    C2 1825   0.785   1.545   6.440 -0.5353 -0.0215 -0.3045
   15DOPE    HS 1826   0.683   1.500   6.437 -0.4211 -0.4446  1.3057
   15DOPE   O21 1827   0.867   1.499   6.329 -0.2245  0.6568  0.6108
   15DOPE   C21 1828   0.870   1.370   6.322  0.0408  0.2492  1.1572
   15DOPE   O22 1829   0.794   1.287   6.373  0.6408 -0.1768  0.2835
   15DOPE   C22 1830   0.978   1.328   6.214 -0.4072 -0.0801  0.2625
   15DOPE   H2R 1831   1.077   1.356   6.255 -0.7689  1.8394 -0.0743
   15DOPE   H2S 1832   0.969   1.388   6.121 -0.6540 -0.5957 -0.0518
   15DOPE    C3 1833   0.760   1.697   6.414 -0.2750  0.3507  0.0911
   15DOPE    HX 1834   0.860   1.745   6.407  0.2053 -0.8257 -1.8833
   15DOPE    HY 1835   0.707   1.734   6.504  1.2842  2.2366  0.3090
   15DOPE   O31 1836   0.685   1.710   6.293  0.1094  0.1968  0.4061
   15DOPE   C31 1837   0.632   1.834   6.291  0.4724  0.3248 -0.9755
   15DOPE   O32 1838   0.663   1.919   6.372  0.3168 -1.4124 -0.0061
   15DOPE   C32 1839   0.543   1.854   6.160 -0.4543 -0.6503  0.0185
   15DOPE   H2X 1840   0.605   1.810   6.079 -0.1678  0.1505 -0.2117
   15DOPE   H2Y 1841   0.455   1.788   6.174 -0.4935 -0.5541  0.2283
   15DOPE   C23 1842   0.987   1.177   6.181  0.2975  0.6578  0.1739
   15DOPE   H3R 1843   0.901   1.152   6.114  0.5627 -1.2149  0.4735
   15DOPE   H3S 1844   0.984   1.115   6.273  1.3400  0.0400 -0.1964
   15DOPE   C24 1845   1.112   1.134   6.102  0.4161 -0.3531  0.1862
   15DOPE   H4R 1846   1.117   1.024   6.082 -0.4241 -0.4730  0.6029
   15DOPE   H4S 1847   1.202   1.169   6.157 -0.3371 -0.9103  1.8560
   15DOPE   C25 1848   1.124   1.208   5.964 -0.4105  0.1569 -0.5327
   15DOPE   H5R 1849   1.114   1.316   5.986  1.5044  0.6539 -1.7677
   15DOPE   H5S 1850   1.042   1.166   5.902 -0.6000 -0.9999  0.4671
   15DOPE   C26 1851   1.258   1.185   5.889  0.9893  0.2973 -0.6913
   15DOPE   H6R 1852   1.276   1.075   5.886  1.8381  0.4439 -1.0550
   15DOPE   H6S 1853   1.336   1.242   5.944 -0.3359 -0.1868  1.8378
   15DOPE   C27 1854   1.259   1.233   5.744  0.2759 -0.3463 -0.2620
   15DOPE   H7R 1855   1.164   1.203   5.695 -0.0783  0.1520  0.1225
   15DOPE   H7S 1856   1.345   1.187   5.690 -1.2517 -2.6666 -0.9185
   15DOPE   C28 1857   1.272   1.386   5.748 -0.1683 -0.2762 -0.2974
   15DOPE   H8R 1858   1.327   1.417   5.839 -0.6597  0.2262 -0.1604
   15DOPE   H8S 1859   1.169   1.427   5.763 -0.1625 -0.5764  0.6101
   15DOPE   C29 1860   1.337   1.460   5.637 -0.3448 -0.1866 -0.2005
   15DOPE   H9R 1861   1.446   1.446   5.640 -0.2327  0.7327  0.4156
   15DOPE  C210 1862   1.292   1.524   5.527 -0.0784  0.0319  0.3565
   15DOPE  H10R 1863   1.368   1.559   5.456 -0.2120 -1.6005 -0.6366
   15DOPE  C211 1864   1.146   1.538   5.485 -0.0462  0.6935  0.4388
   15DOPE  H11R 1865   1.137   1.648   5.482  1.5635  0.8431  0.1269
   15DOPE  H11S 1866   1.080   1.481   5.554  0.5512  0.6977  1.0244
   15DOPE  C212 1867   1.119   1.482   5.343  0.6328 -0.2402  0.2611
   15DOPE  H12R 1868   1.159   1.380   5.323  0.1158  0.0097 -2.4477
   15DOPE  H12S 1869   1.176   1.558   5.286  0.5010 -0.3971 -0.0817
   15DOPE  C213 1870   0.968   1.478   5.310  0.8544 -0.5591  0.5535
   15DOPE  H13R 1871   0.917   1.577   5.318  0.2827 -0.8677  0.8078
   15DOPE  H13S 1872   0.921   1.427   5.397  2.1857  2.7461  3.4567
   15DOPE  C214 1873   0.926   1.411   5.180 -0.2210 -0.8292 -0.2281
   15DOPE  H14R 1874   0.817   1.389   5.174 -1.1430  2.8372  0.7574
   15DOPE  H14S 1875   0.976   1.312   5.174  1.9472  0.2927 -2.9902
   15DOPE  C215 1876   0.958   1.486   5.052  0.4145  0.2355 -1.0190
   15DOPE  H15R 1877   1.068   1.492   5.038  0.4594  1.9752 -0.2235
   15DOPE  H15S 1878   0.933   1.593   5.070  0.2938 -0.0114  0.3594
   15DOPE  C216 1879   0.888   1.433   4.935  0.4318 -0.4785 -0.3395
   15DOPE  H16R 1880   0.777   1.439   4.943  0.3581  1.4946 -1.9457
   15DOPE  H16S 1881   0.903   1.324   4.916  1.7975  0.0800 -3.0073
   15DOPE  C217 1882   0.927   1.497   4.795 -0.5180  0.1647 -0.2409
   15DOPE  H17R 1883   1.015   1.563   4.813 -0.8928 -0.1475  3.5176
   15DOPE  H17S 1884   0.841   1.550   4.750 -0.4861 -1.2394 -2.0494
   15DOPE  C218 1885   0.974   1.383   4.704 -0.1491 -0.5780  0.1075
   15DOPE  H18R 1886   0.903   1.300   4.683 -0.6168  0.4896 -3.2112
   15DOPE  H18S 1887   1.073   1.347   4.738  0.0711  2.1333  2.7980
   15DOPE  H18T 1888   0.994   1.422   4.602  1.1311  1.9716  1.2447
   15DOPE   C33 1889   0.518   2.002   6.110 -0.4301  0.1932 -0.7313
   15DOPE   H3X 1890   0.606   2.042   6.055 -0.6790  1.4297 -0.2670
   15DOPE   H3Y 1891   0.480   2.072   6.188 -0.4730  0.5337 -1.0588
   15DOPE   C34 1892   0.416   2.010   6.003 -1.0742 -0.2768  0.8031
   15DOPE   H4X 1893   0.455   1.940   5.925  0.8180  2.3412 -0.7587
   15DOPE   H4Y 1894   0.321   1.969   6.044 -0.5729 -0.1738  2.0876
   15DOPE   C35 1895   0.399   2.154   5.952  0.0899 -0.3971  0.3009
   15DOPE   H5X 1896   0.472   2.183   5.873  0.5827 -0.4819  0.7222
   15DOPE   H5Y 1897   0.409   2.225   6.037 -0.3257 -1.0773  0.9222
   15DOPE   C36 1898   0.262   2.174   5.904 -0.2196  0.1012  0.4984
   15DOPE   H6X 1899   0.191   2.166   5.989 -0.4155  0.7652  0.4084
   15DOPE   H6Y 1900   0.228   2.091   5.838  0.1134  0.2616  0.1200
   15DOPE   C37 1901   0.237   2.312   5.832 -0.2206  0.7946 -0.5855
   15DOPE   H7X 1902   0.127   2.322   5.817  0.0176  0.9633 -2.4592
   15DOPE   H7Y 1903   0.267   2.389   5.907  0.5751 -1.0887  1.1365
   15DOPE   C38 1904   0.308   2.314   5.702 -0.7095  0.6133 -0.3416
   15DOPE   H8X 1905   0.298   2.226   5.635 -3.1399  0.1015  0.6093
   15DOPE   H8Y 1906   0.415   2.329   5.728 -0.6687 -1.0689  0.6305
   15DOPE   C39 1907   0.262   2.425   5.615 -0.1685 -0.8284 -0.0722
   15DOPE   H9X 1908   0.193   2.500   5.656  1.2525  1.3751 -1.5462
   15DOPE  C310 1909   0.285   2.428   5.481 -0.2031 -0.3715 -0.1237
   15DOPE  H10X 1910   0.229   2.508   5.430 -1.3017 -1.4331 -0.6350
   15DOPE  C311 1911   0.377   2.342   5.404  0.2810 -0.0239 -1.0686
   15DOPE  H11X 1912   0.467   2.405   5.391 -0.0006  0.9281  1.1981
   15DOPE  H11Y 1913   0.421   2.262   5.468  0.9663  0.9277 -0.3312
   15DOPE  C312 1914   0.320   2.295   5.266  0.1200  0.2971 -0.8886
   15DOPE  H12X 1915   0.224   2.244   5.288 -0.5490  0.8903 -2.3546
   15DOPE  H12Y 1916   0.387   2.222   5.217  2.0473  2.2705 -1.3523
   15DOPE  C313 1917   0.289   2.404   5.159  0.1162 -0.8854 -0.0893
   15DOPE  H13X 1918   0.217   2.478   5.201  0.9411  0.4435 -0.9294
   15DOPE  H13Y 1919   0.385   2.453   5.130 -1.3348  1.5664 -1.0785
   15DOPE  C314 1920   0.217   2.350   5.038  0.4049  0.3124 -0.0097
   15DOPE  H14X 1921   0.117   2.319   5.074  1.0241 -1.9119 -0.0751
   15DOPE  H14Y 1922   0.269   2.262   4.994  0.5070  0.0521  0.6317
   15DOPE  C315 1923   0.206   2.461   4.927 -0.3024  0.8953  0.2285
   15DOPE  H15X 1924   0.176   2.413   4.832  1.1817  0.4976 -0.0674
   15DOPE  H15Y 1925   0.311   2.488   4.903  1.1208 -2.7047  1.6624
   15DOPE  C316 1926   0.131   2.594   4.963  0.0755 -0.5122 -0.2136
   15DOPE  H16X 1927   0.176   2.644   5.051 -1.2742  1.8939 -0.7866
   15DOPE  H16Y 1928   0.027   2.571   4.994 -0.2696 -0.8230 -1.5683
   15DOPE  C317 1929   0.130   2.691   4.842 -0.3059  0.9192 -0.5035
   15DOPE  H17X 1930   0.234   2.725   4.822 -0.1799  2.8855  2.8078
   15DOPE  H17Y 1931   0.104   2.644   4.745 -1.3318 -1.3407  0.7957
   15DOPE  C318 1932   0.052   2.822   4.869 -0.4697  0.3088 -0.2605
   15DOPE  H18X 1933   0.111   2.882   4.943  0.9758 -1.5264  0.1503
   15DOPE  H18Y 1934   0.054   2.882   4.776  1.3957  0.5354 -0.1177
   15DOPE  H18Z 1935  -0.054   2.803   4.898 -1.0545 -1.0154 -3.0112
   16DOPE     N 1936   0.096   2.806   6.937  0.6398 -0.1913  0.3354
   16DOPE   HN1 1937   0.136   2.867   7.011 -1.4885  1.4632  0.1986
   16DOPE   HN2 1938  -0.002   2.793   6.970  0.9163 -1.1806  0.8038
   16DOPE   HN3 1939   0.141   2.712   6.937 -1.5097 -1.2907 -0.1649
   16DOPE   C12 1940   0.093   2.886   6.809  0.1639  0.0140 -0.1610
   16DOPE  H12A 1941   0.040   2.982   6.825  0.4292  0.1824 -0.2772
   16DOPE  H12B 1942   0.064   2.817   6.727 -1.2771 -1.2663  1.3852
   16DOPE   C11 1943   0.238   2.939   6.791 -0.0682 -0.3853 -1.0971
   16DOPE  H11A 1944   0.246   2.966   6.683  1.9927  0.4906 -0.7801
   16DOPE  H11B 1945   0.313   2.859   6.804 -0.2598 -0.4573 -0.4386
   16DOPE     P 1946   0.401   3.124   6.864  0.2700  0.1750 -0.4913
   16DOPE   O13 1947   0.508   3.024   6.888 -0.0590 -0.2857 -0.2026
   16DOPE   O14 1948   0.390   3.240   6.951  0.1948 -0.2189  0.0623
   16DOPE   O11 1949   0.407   3.181   6.719  0.4085  0.2194  0.0648
   16DOPE   O12 1950   0.266   3.050   6.871  0.6480 -0.8471 -0.4929
   16DOPE    C1 1951   0.434   3.319   6.689 -0.1158  0.0895  0.1654
   16DOPE    HA 1952   0.470   3.332   6.584 -1.7097  1.7529 -0.2216
   16DOPE    HB 1953   0.513   3.361   6.755  0.5166 -0.7138 -0.0601
   16DOPE    C2 1954   0.301   3.404   6.698 -0.3816 -0.0663 -0.0318
   16DOPE    HS 1955   0.259   3.382   6.799  0.2678 -3.6654 -0.3895
   16DOPE   O21 1956   0.212   3.355   6.597  0.2137  0.0071 -0.2080
   16DOPE   C21 1957   0.100   3.303   6.644  0.7410  0.2398  0.7836
   16DOPE   O22 1958   0.081   3.272   6.758 -0.5235 -0.0011 -0.0180
   16DOPE   C22 1959   0.007   3.283   6.518  0.0950 -0.1603 -0.5762
   16DOPE   H2R 1960   0.027   3.360   6.441 -0.0004  1.0449  0.5685
   16DOPE   H2S 1961  -0.095   3.289   6.561  0.6344 -0.5533  0.8194
   16DOPE    C3 1962   0.315   3.561   6.681 -0.1065  0.1761  0.6536
   16DOPE    HX 1963   0.389   3.601   6.754 -0.2023  2.2429 -0.2980
   16DOPE    HY 1964   0.216   3.608   6.700  0.1247  1.6766 -1.4740
   16DOPE   O31 1965   0.359   3.598   6.551  0.5433 -0.3504 -0.8128
   16DOPE   C31 1966   0.276   3.605   6.452  0.2594 -0.0134 -0.2045
   16DOPE   O32 1967   0.153   3.607   6.457  0.2475 -0.1059 -0.3781
   16DOPE   C32 1968   0.355   3.634   6.327  0.2656 -0.7270  0.1666
   16DOPE   H2X 1969   0.403   3.734   6.331 -1.0165 -0.0830 -0.1736
   16DOPE   H2Y 1970   0.432   3.554   6.321 -0.0537 -1.3050  2.5767
   16DOPE   C23 1971   0.024   3.145   6.448 -0.2885  0.0680 -0.2556
   16DOPE   H3R 1972   0.031   3.074   6.533 -0.5048  2.8743  2.2753
   16DOPE   H3S 1973   0.127   3.133   6.406 -0.1034 -1.0007  0.4703
   16DOPE   C24 1974  -0.076   3.118   6.330 -0.2928  0.8017 -0.9876
   16DOPE   H4R 1975  -0.173   3.111   6.384  1.0538  0.0882  1.4779
   16DOPE   H4S 1976  -0.067   3.011   6.302  0.7908  0.2059  1.3729
   16DOPE   C25 1977  -0.089   3.224   6.221 -0.6672  0.3458 -0.1812
   16DOPE   H5R 1978   0.003   3.234   6.159  0.2534  0.4665  1.1759
   16DOPE   H5S 1979  -0.106   3.324   6.268  1.5920  0.2236  1.0450
   16DOPE   C26 1980  -0.209   3.192   6.129  0.6088 -0.3940  0.4363
   16DOPE   H6R 1981  -0.310   3.210   6.172 -0.2682 -3.1766 -0.2434
   16DOPE   H6S 1982  -0.200   3.084   6.104  0.4492 -0.1581 -0.6792
   16DOPE   C27 1983  -0.197   3.258   5.987 -0.0370  0.9306  0.2616
   16DOPE   H7R 1984  -0.109   3.206   5.944  0.5163  1.6256  0.5384
   16DOPE   H7S 1985  -0.163   3.364   5.987  3.2668 -0.0045 -1.3306
   16DOPE   C28 1986  -0.324   3.240   5.902  0.1194  0.0117 -0.5231
   16DOPE   H8R 1987  -0.421   3.265   5.950 -0.6239 -0.7150 -1.6002
   16DOPE   H8S 1988  -0.337   3.132   5.881  0.4017 -0.2264  0.4636
   16DOPE   C29 1989  -0.313   3.319   5.767  0.2594 -0.1189 -0.8919
   16DOPE   H9R 1990  -0.316   3.428   5.783 -2.2434  0.0205 -1.8439
   16DOPE  C210 1991  -0.303   3.269   5.647 -0.6863  0.2509  0.1365
   16DOPE  H10R 1992  -0.305   3.336   5.560  1.6648  1.6412  1.0774
   16DOPE  C211 1993  -0.286   3.123   5.601  0.9844 -0.3013 -0.3688
   16DOPE  H11R 1994  -0.250   3.062   5.687  1.4049 -0.7424 -0.8504
   16DOPE  H11S 1995  -0.203   3.103   5.530 -0.4771  2.2349 -3.0422
   16DOPE  C212 1996  -0.409   3.055   5.542  0.7143 -0.1390  0.5472
   16DOPE  H12R 1997  -0.500   3.077   5.602  0.4214 -0.1244  0.1004
   16DOPE  H12S 1998  -0.413   2.944   5.547 -1.3525 -0.0748  1.5617
   16DOPE  C213 1999  -0.430   3.097   5.389 -0.1054 -0.0770 -0.0334
   16DOPE  H13R 2000  -0.337   3.082   5.330 -0.5828 -0.1578 -0.7827
   16DOPE  H13S 2001  -0.460   3.203   5.373  2.0641  0.4556 -1.0666
   16DOPE  C214 2002  -0.547   3.009   5.329  0.7807  0.0861 -0.1736
   16DOPE  H14R 2003  -0.502   2.908   5.339 -1.7400 -1.0714  0.0585
   16DOPE  H14S 2004  -0.542   3.039   5.222  1.3179 -1.0747 -0.4909
   16DOPE  C215 2005  -0.683   3.030   5.392  0.7154  0.0985 -0.3077
   16DOPE  H15R 2006  -0.692   3.137   5.421  0.1953  0.1953 -0.8282
   16DOPE  H15S 2007  -0.683   2.976   5.490 -3.2304  1.7873  0.8172
   16DOPE  C216 2008  -0.794   2.978   5.297  0.3407  0.6431  0.2983
   16DOPE  H16R 2009  -0.783   2.873   5.263 -2.3297  0.7218 -1.0636
   16DOPE  H16S 2010  -0.798   3.045   5.208  2.1164  3.2741  2.0290
   16DOPE  C217 2011  -0.937   2.992   5.358  1.0634  0.4977  0.2576
   16DOPE  H17R 2012  -0.921   3.007   5.467 -1.5207 -0.4454  0.8211
   16DOPE  H17S 2013  -0.999   2.901   5.345  1.0771  0.0784  2.6723
   16DOPE  C218 2014  -1.015   3.106   5.307 -0.0918 -0.2050 -0.0348
   16DOPE  H18R 2015  -0.956   3.193   5.271 -0.9138  0.0668 -0.7775
   16DOPE  H18S 2016  -1.081   3.147   5.386  0.1104  1.1384 -0.5304
   16DOPE  H18T 2017  -1.075   3.074   5.219  0.8240 -0.6675 -0.5039
   16DOPE   C33 2018   0.262   3.624   6.203  0.5538  0.1561  0.6765
   16DOPE   H3X 2019   0.172   3.685   6.223 -1.6288 -1.4345 -3.2225
   16DOPE   H3Y 2020   0.220   3.524   6.181  1.4753  0.3775 -2.7277
   16DOPE   C34 2021   0.324   3.666   6.068  0.5830 -0.5562 -0.3388
   16DOPE   H4X 2022   0.320   3.776   6.057 -2.3190 -0.8064 -3.0607
   16DOPE   H4Y 2023   0.423   3.617   6.056 -0.0022 -2.7807  2.6074
   16DOPE   C35 2024   0.243   3.623   5.942  0.7922 -0.0351 -0.1645
   16DOPE   H5X 2025   0.140   3.664   5.955  1.1104  0.2736  1.6292
   16DOPE   H5Y 2026   0.222   3.514   5.944 -1.1067  0.2370 -1.8522
   16DOPE   C36 2027   0.299   3.677   5.818  0.1098 -1.1505  0.4081
   16DOPE   H6X 2028   0.394   3.628   5.788  0.1101 -1.8151  1.4556
   16DOPE   H6Y 2029   0.324   3.785   5.829 -0.1178 -0.9022 -1.1986
   16DOPE   C37 2030   0.196   3.693   5.704 -0.3460  0.3361 -0.1301
   16DOPE   H7X 2031   0.168   3.587   5.684  2.3640  0.1166 -3.6957
   16DOPE   H7Y 2032   0.104   3.750   5.732 -0.1615  0.0588  1.0950
   16DOPE   C38 2033   0.247   3.772   5.576 -0.5436  0.4391  0.0289
   16DOPE   H8X 2034   0.284   3.868   5.620 -0.6876  1.3660 -1.7879
   16DOPE   H8Y 2035   0.165   3.800   5.507  0.8759 -0.4861 -2.1093
   16DOPE   C39 2036   0.357   3.695   5.512  0.9247 -0.8264  0.3883
   16DOPE   H9X 2037   0.413   3.628   5.579 -1.7423 -1.1434  2.4234
   16DOPE  C310 2038   0.371   3.691   5.383 -0.2388  0.0741  0.4654
   16DOPE  H10X 2039   0.455   3.628   5.348  0.5732 -0.0432  2.4974
   16DOPE  C311 2040   0.301   3.770   5.277 -1.0353  0.0924 -0.1308
   16DOPE  H11X 2041   0.224   3.841   5.313 -3.6253 -1.1916 -2.6962
   16DOPE  H11Y 2042   0.380   3.830   5.227 -0.2400 -0.1116  0.8452
   16DOPE  C312 2043   0.233   3.673   5.171 -0.1351  0.0861  0.1739
   16DOPE  H12X 2044   0.179   3.588   5.218 -0.7786 -0.2379 -1.1010
   16DOPE  H12Y 2045   0.312   3.622   5.112  0.8492 -0.3835  1.8266
   16DOPE  C313 2046   0.136   3.748   5.082 -0.2765 -0.4580 -0.0150
   16DOPE  H13X 2047   0.037   3.758   5.130  0.0447  0.4636  0.4806
   16DOPE  H13Y 2048   0.189   3.839   5.046 -1.0868 -0.4261 -1.1753
   16DOPE  C314 2049   0.111   3.669   4.961 -0.2208  0.2595  0.3516
   16DOPE  H14X 2050   0.047   3.580   4.982  0.5531  0.0264  1.8693
   16DOPE  H14Y 2051   0.207   3.624   4.929 -0.8109 -0.3972 -0.5491
   16DOPE  C315 2052   0.048   3.750   4.851  0.1291  0.0567 -0.2711
   16DOPE  H15X 2053   0.123   3.827   4.823  0.9620 -0.1539  1.2637
   16DOPE  H15Y 2054  -0.046   3.796   4.888  0.9356  2.4624 -1.0256
   16DOPE  C316 2055  -0.001   3.669   4.732 -0.0357 -0.2286  0.3813
   16DOPE  H16X 2056  -0.063   3.743   4.677  0.3931  0.7183  1.1351
   16DOPE  H16Y 2057  -0.064   3.589   4.777 -1.3235  0.1551 -0.6652
   16DOPE  C317 2058   0.116   3.630   4.641  0.0689  0.0224 -0.0100
   16DOPE  H17X 2059   0.191   3.711   4.628  0.6015 -0.2541  1.1980
   16DOPE  H17Y 2060   0.179   3.544   4.675  2.9652  0.9517 -2.5522
   16DOPE  C318 2061   0.060   3.576   4.510 -0.6517  1.0610  0.2526
   16DOPE  H18X 2062  -0.018   3.638   4.461 -0.5751  0.5005 -0.6098
   16DOPE  H18Y 2063   0.145   3.559   4.440  0.0535  1.6083  0.9569
   16DOPE  H18Z 2064   0.016   3.475   4.524  0.3286  0.7414  1.1789
   17DOPE     N 2065   1.555   5.745   6.966 -0.2147  0.1248 -0.3403
   17DOPE   HN1 2066   1.535   5.836   6.920 -1.6930  0.1752  0.3429
   17DOPE   HN2 2067   1.461   5.706   6.991 -1.1000  0.6542 -2.6263
   17DOPE   HN3 2068   1.613   5.765   7.050 -1.4606  3.2276 -0.1016
   17DOPE   C12 2069   1.630   5.652   6.884  0.3071  0.2639  0.1784
   17DOPE  H12A 2070   1.573   5.616   6.795 -0.1031 -0.8692  0.8708
   17DOPE  H12B 2071   1.658   5.561   6.942  1.0439  0.9108  0.8509
   17DOPE   C11 2072   1.759   5.724   6.830  0.7683  0.9156 -0.4557
   17DOPE  H11A 2073   1.723   5.814   6.775 -3.3333 -0.7544 -0.9154
   17DOPE  H11B 2074   1.816   5.657   6.762 -1.2700 -1.2237 -0.1984
   17DOPE     P 2075   1.938   5.667   7.021  0.1417 -0.0053 -0.2974
   17DOPE   O13 2076   1.867   5.545   7.065 -0.1324  0.2691 -0.2579
   17DOPE   O14 2077   2.015   5.735   7.125 -0.3513 -0.0970  0.6125
   17DOPE   O11 2078   2.030   5.635   6.899 -0.3811 -0.2500  0.3475
   17DOPE   O12 2079   1.841   5.767   6.946  0.4231 -0.9720  0.6327
   17DOPE    C1 2080   2.159   5.689   6.866 -0.4211 -0.3980  0.1175
   17DOPE    HA 2081   2.215   5.615   6.806  0.2487 -0.4212  0.7655
   17DOPE    HB 2082   2.220   5.694   6.958 -1.1796  2.1037  0.5786
   17DOPE    C2 2083   2.165   5.823   6.789  0.2749  0.4690  0.7213
   17DOPE    HS 2084   2.100   5.893   6.846 -2.6913 -0.0761 -1.7481
   17DOPE   O21 2085   2.102   5.798   6.664 -0.5102  0.4662 -0.6093
   17DOPE   C21 2086   2.028   5.889   6.610  0.2147  0.2143 -0.1028
   17DOPE   O22 2087   2.005   5.999   6.663  0.2537 -0.1064  0.0460
   17DOPE   C22 2088   1.991   5.831   6.467  0.3719 -0.3364  0.1333
   17DOPE   H2R 2089   1.985   5.720   6.477  1.5011 -0.4340 -0.1581
   17DOPE   H2S 2090   2.074   5.856   6.398  0.5788  1.3802  0.9529
   17DOPE    C3 2091   2.310   5.879   6.762 -0.3735 -0.2449  0.2140
   17DOPE    HX 2092   2.362   5.797   6.708 -0.2953  0.5921 -1.0376
   17DOPE    HY 2093   2.372   5.896   6.853 -0.8697 -0.3168  0.5705
   17DOPE   O31 2094   2.323   5.986   6.668 -0.1528 -0.1807 -0.5490
   17DOPE   C31 2095   2.293   6.103   6.720 -0.2028 -0.6116 -0.2843
   17DOPE   O32 2096   2.269   6.129   6.838 -0.4079 -0.1758  0.3677
   17DOPE   C32 2097   2.319   6.208   6.607  0.0207  0.4005 -0.2391
   17DOPE   H2X 2098   2.289   6.306   6.650 -1.1190 -0.4658  1.0137
   17DOPE   H2Y 2099   2.429   6.216   6.600  0.0952 -1.5352 -3.8182
   17DOPE   C23 2100   1.865   5.896   6.409  0.2287  0.1877 -0.4806
   17DOPE   H3R 2101   1.910   5.996   6.390  0.8740  0.0656  0.3430
   17DOPE   H3S 2102   1.771   5.898   6.469 -1.5506  0.0224 -3.0701
   17DOPE   C24 2103   1.824   5.847   6.270  0.2046  0.3076 -0.1953
   17DOPE   H4R 2104   1.719   5.870   6.243  0.2200  0.2726 -0.2859
   17DOPE   H4S 2105   1.835   5.736   6.269 -0.6772  0.1645  1.8293
   17DOPE   C25 2106   1.903   5.899   6.147  0.5726  0.6682  0.4866
   17DOPE   H5R 2107   2.008   5.872   6.170  1.0091 -0.7153 -2.6056
   17DOPE   H5S 2108   1.905   6.010   6.139 -1.1844  0.7147  0.3631
   17DOPE   C26 2109   1.859   5.834   6.013 -0.1658  0.1347 -0.1732
   17DOPE   H6R 2110   1.933   5.872   5.939  0.6823  0.1060  0.6420
   17DOPE   H6S 2111   1.756   5.867   5.989 -0.4010  1.3320  2.1693
   17DOPE   C27 2112   1.860   5.681   5.989 -0.5793  0.4034  0.0768
   17DOPE   H7R 2113   1.796   5.633   6.066  1.2901  0.8312  1.9722
   17DOPE   H7S 2114   1.961   5.641   6.013 -0.8123  1.2424  2.7066
   17DOPE   C28 2115   1.819   5.629   5.852 -0.5825 -1.0043 -0.8905
   17DOPE   H8R 2116   1.711   5.651   5.838  0.0941  3.3308 -0.7773
   17DOPE   H8S 2117   1.836   5.520   5.855 -1.5207 -1.1365  1.3905
   17DOPE   C29 2118   1.892   5.680   5.735 -0.0803  0.5733 -0.5938
   17DOPE   H9R 2119   1.979   5.616   5.717 -1.8711 -1.9396 -0.8249
   17DOPE  C210 2120   1.856   5.783   5.650 -0.4075 -0.0710 -0.3081
   17DOPE  H10R 2121   1.912   5.802   5.557 -0.2728  2.4110  0.2274
   17DOPE  C211 2122   1.737   5.874   5.666 -0.5217 -0.2878 -0.3141
   17DOPE  H11R 2123   1.768   5.980   5.670 -1.5986  0.0386 -0.1714
   17DOPE  H11S 2124   1.693   5.858   5.767  2.8156  1.2841  1.5462
   17DOPE  C212 2125   1.618   5.865   5.569 -0.0415  0.2440 -0.8684
   17DOPE  H12R 2126   1.544   5.934   5.613 -0.0070  0.3611 -0.9942
   17DOPE  H12S 2127   1.578   5.762   5.581  2.7784 -0.6283  2.6207
   17DOPE  C213 2128   1.645   5.891   5.427 -0.5437  0.3425  0.1952
   17DOPE  H13R 2129   1.567   5.851   5.359  0.1714  0.3107 -0.6233
   17DOPE  H13S 2130   1.738   5.842   5.391 -0.0041  1.7947 -0.4962
   17DOPE  C214 2131   1.652   6.043   5.398  0.5066  0.1890  0.5287
   17DOPE  H14R 2132   1.745   6.068   5.454  1.0619  0.3299 -0.4324
   17DOPE  H14S 2133   1.564   6.100   5.434  0.2323  0.1301 -0.0375
   17DOPE  C215 2134   1.700   6.083   5.250  0.5382  0.1374  0.2081
   17DOPE  H15R 2135   1.624   6.039   5.182 -0.3410  2.7345 -0.6082
   17DOPE  H15S 2136   1.798   6.034   5.231 -0.4653 -1.6192 -0.6629
   17DOPE  C216 2137   1.712   6.235   5.241 -0.2210 -0.5820 -0.2191
   17DOPE  H16R 2138   1.784   6.260   5.322  0.3714 -0.9909 -0.6042
   17DOPE  H16S 2139   1.614   6.285   5.251  0.9301  1.4807  1.3873
   17DOPE  C217 2140   1.759   6.274   5.099  0.1070  0.2752  0.2482
   17DOPE  H17R 2141   1.839   6.205   5.064 -0.8719  0.3882 -2.4220
   17DOPE  H17S 2142   1.786   6.381   5.102 -0.7003  0.4670  1.4294
   17DOPE  C218 2143   1.649   6.266   4.990 -0.6766 -0.2667 -1.0967
   17DOPE  H18R 2144   1.689   6.326   4.906  1.8456 -0.2605 -0.0013
   17DOPE  H18S 2145   1.559   6.316   5.033 -0.4016  0.9948 -1.9302
   17DOPE  H18T 2146   1.634   6.163   4.954  0.5677  0.1742 -3.0141
   17DOPE   C33 2147   2.259   6.181   6.466 -0.0208  0.2639  0.0509
   17DOPE   H3X 2148   2.149   6.183   6.485  0.1690  2.1642  1.1073
   17DOPE   H3Y 2149   2.301   6.084   6.430  0.7309  0.4821  0.3211
   17DOPE   C34 2150   2.297   6.286   6.361  0.0639  0.2984 -0.8730
   17DOPE   H4X 2151   2.280   6.387   6.404  1.5842 -0.2209  1.1248
   17DOPE   H4Y 2152   2.402   6.278   6.325  1.1659  2.3096  1.5812
   17DOPE   C35 2153   2.216   6.282   6.234  1.4804  0.0389  0.2913
   17DOPE   H5X 2154   2.108   6.287   6.262  1.2076 -4.1581  0.6049
   17DOPE   H5Y 2155   2.223   6.183   6.185 -0.0755  0.2315 -0.3861
   17DOPE   C36 2156   2.246   6.403   6.142 -0.5798  0.7583  0.2961
   17DOPE   H6X 2157   2.357   6.413   6.142 -0.6340  1.9657 -1.5529
   17DOPE   H6Y 2158   2.207   6.490   6.198 -2.7934 -0.9132  1.4778
   17DOPE   C37 2159   2.184   6.393   6.000 -0.7685 -0.3107 -0.5451
   17DOPE   H7X 2160   2.223   6.312   5.934  1.7109  0.4745 -0.1415
   17DOPE   H7Y 2161   2.077   6.368   6.016  0.1314 -2.7497  2.6500
   17DOPE   C38 2162   2.197   6.523   5.919 -0.4423 -0.0434  0.4743
   17DOPE   H8X 2163   2.160   6.594   5.996 -1.6702  0.7370 -0.7721
   17DOPE   H8Y 2164   2.127   6.543   5.834 -1.0084  2.3605  1.4107
   17DOPE   C39 2165   2.340   6.551   5.877  0.0116 -0.8578 -0.6697
   17DOPE   H9X 2166   2.409   6.499   5.944 -0.9539 -0.1941  0.8976
   17DOPE  C310 2167   2.375   6.631   5.776  0.1686  0.2534 -0.4950
   17DOPE  H10X 2168   2.485   6.643   5.774  0.3389 -0.8815  0.6673
   17DOPE  C311 2169   2.288   6.709   5.683 -0.4142  0.2478 -0.7906
   17DOPE  H11X 2170   2.191   6.656   5.689  0.2451 -1.0415 -1.1255
   17DOPE  H11Y 2171   2.262   6.808   5.728 -2.4566 -1.0525  1.0812
   17DOPE  C312 2172   2.325   6.717   5.542 -0.0920  0.1057  0.3654
   17DOPE  H12X 2173   2.328   6.617   5.493 -0.1009  0.7987 -1.0874
   17DOPE  H12Y 2174   2.421   6.766   5.517  2.1520 -3.0624  2.0257
   17DOPE  C313 2175   2.209   6.785   5.464  0.0961  0.2818  0.1996
   17DOPE  H13X 2176   2.113   6.731   5.481  0.3730 -0.0322  0.8015
   17DOPE  H13Y 2177   2.186   6.886   5.505  1.7167  1.5764 -1.9025
   17DOPE  C314 2178   2.235   6.798   5.311 -0.0716 -0.5174 -0.2463
   17DOPE  H14X 2179   2.312   6.727   5.275  1.3068  0.3046  0.9868
   17DOPE  H14Y 2180   2.260   6.905   5.295 -5.1693  0.7768 -1.3135
   17DOPE  C315 2181   2.104   6.765   5.226 -0.5039 -0.5580  0.7500
   17DOPE  H15X 2182   2.037   6.851   5.250  1.4594  1.5908 -0.9756
   17DOPE  H15Y 2183   2.055   6.667   5.242  1.0324 -1.8229 -1.6911
   17DOPE  C316 2184   2.142   6.776   5.079  0.5284 -0.5812  0.3303
   17DOPE  H16X 2185   2.071   6.707   5.027 -0.7074 -0.2084  1.4581
   17DOPE  H16Y 2186   2.238   6.723   5.061  0.6605  0.0470 -0.9488
   17DOPE  C317 2187   2.132   6.909   5.013 -0.5611 -0.0603  0.0136
   17DOPE  H17X 2188   2.205   6.975   5.066  0.2333 -0.6350 -0.3525
   17DOPE  H17Y 2189   2.163   6.894   4.907  0.3809  0.4372  0.2032
   17DOPE  C318 2190   2.001   6.989   5.013  0.2510  1.0362 -0.3826
   17DOPE  H18X 2191   1.912   6.936   4.974  1.1658 -0.0112 -1.0914
   17DOPE  H18Y 2192   1.973   7.014   5.118 -0.4924 -0.3518 -0.2283
   17DOPE  H18Z 2193   2.007   7.081   4.951  0.4441  0.2731 -1.5124
   18DOPE     N 2194   7.110   3.967   7.355  0.4980 -0.2134  0.3558
   18DOPE   HN1 2195   7.176   3.893   7.322  0.4776 -0.1019  0.0585
   18DOPE   HN2 2196   7.152   4.006   7.441  2.6221 -0.4294 -0.5234
   18DOPE   HN3 2197   7.012   3.944   7.380 -0.2660  0.4939 -1.7190
   18DOPE   C12 2198   7.104   4.088   7.258  0.0405  0.3158  1.0534
   18DOPE  H12A 2199   7.192   4.153   7.279  0.3896 -0.3787  1.8053
   18DOPE  H12B 2200   7.012   4.145   7.283  1.8683  2.9271  2.2648
   18DOPE   C11 2201   7.097   4.034   7.114 -0.1565  0.4630  0.4193
   18DOPE  H11A 2202   7.097   4.125   7.049  1.1223 -0.5480 -1.0513
   18DOPE  H11B 2203   7.001   3.983   7.092 -0.0546  1.2010 -2.0409
   18DOPE     P 2204   7.343   3.998   7.025 -0.1276 -0.3902  0.2742
   18DOPE   O13 2205   7.438   3.886   6.990 -0.0168  0.2060 -0.3408
   18DOPE   O14 2206   7.396   4.111   7.104 -0.5315  0.5316 -0.0532
   18DOPE   O11 2207   7.301   4.054   6.886 -0.0678 -0.0345  0.2887
   18DOPE   O12 2208   7.210   3.943   7.088  0.5885  0.1771  0.3875
   18DOPE    C1 2209   7.411   4.119   6.817  0.8221  0.2839  0.1876
   18DOPE    HA 2210   7.504   4.059   6.827  0.4370 -0.4879 -0.7605
   18DOPE    HB 2211   7.434   4.214   6.870  0.7824  0.2076  0.3434
   18DOPE    C2 2212   7.373   4.124   6.666  0.0372  0.1001  0.2780
   18DOPE    HS 2213   7.444   4.186   6.608 -0.0631  0.5812  0.6575
   18DOPE   O21 2214   7.245   4.183   6.639 -0.3918 -0.0506 -0.3472
   18DOPE   C21 2215   7.242   4.308   6.678  0.3982 -0.0573 -0.5585
   18DOPE   O22 2216   7.342   4.378   6.680  0.3187 -0.6073 -0.0008
   18DOPE   C22 2217   7.102   4.352   6.713  0.7319 -0.3060 -0.4602
   18DOPE   H2R 2218   7.100   4.393   6.817 -1.1282 -0.0951 -0.5375
   18DOPE   H2S 2219   7.033   4.265   6.717 -2.9609  2.3547 -0.1502
   18DOPE    C3 2220   7.388   3.981   6.605  0.6329  0.5751  0.4416
   18DOPE    HX 2221   7.309   3.919   6.654 -1.4549  1.3820 -1.7041
   18DOPE    HY 2222   7.491   3.944   6.622  0.8240  1.3192  0.9258
   18DOPE   O31 2223   7.362   3.983   6.457 -0.4210  0.1130  0.0382
   18DOPE   C31 2224   7.235   3.961   6.423  0.0632 -0.3400 -0.0304
   18DOPE   O32 2225   7.143   3.923   6.490  0.0934  0.0557 -0.5757
   18DOPE   C32 2226   7.218   4.013   6.282  0.2453 -0.1032  0.2676
   18DOPE   H2X 2227   7.147   4.098   6.282 -1.2552 -1.3041  0.9173
   18DOPE   H2Y 2228   7.317   4.045   6.243  0.8368 -1.4789  0.5601
   18DOPE   C23 2229   7.034   4.447   6.610  0.5668  0.1465 -0.0244
   18DOPE   H3R 2230   7.103   4.532   6.590 -0.1237  0.1039 -3.1724
   18DOPE   H3S 2231   6.940   4.479   6.661 -0.4275 -2.6976  0.1114
   18DOPE   C24 2232   6.995   4.392   6.472 -0.4188  0.3397  0.6129
   18DOPE   H4R 2233   6.919   4.456   6.422 -0.5128 -1.1577 -1.2966
   18DOPE   H4S 2234   6.962   4.286   6.472 -0.2445  0.2800  1.1112
   18DOPE   C25 2235   7.119   4.408   6.372  0.2692  0.4969  0.1364
   18DOPE   H5R 2236   7.197   4.341   6.414 -2.2602 -2.1250  1.0063
   18DOPE   H5S 2237   7.152   4.514   6.371 -0.7266  0.8200  0.1742
   18DOPE   C26 2238   7.091   4.370   6.225  0.6503 -0.5268 -0.1471
   18DOPE   H6R 2239   7.007   4.428   6.181  1.0932 -0.5903 -1.0918
   18DOPE   H6S 2240   7.067   4.263   6.211 -1.6414 -0.0311 -0.2656
   18DOPE   C27 2241   7.214   4.408   6.128 -0.5854 -0.7461 -0.2919
   18DOPE   H7R 2242   7.299   4.347   6.165  0.9588  0.6188 -1.4322
   18DOPE   H7S 2243   7.244   4.514   6.144 -0.0820 -0.8739 -0.3676
   18DOPE   C28 2244   7.185   4.382   5.985 -0.2022  0.6120  0.8058
   18DOPE   H8R 2245   7.084   4.420   5.957 -0.6771 -0.4002  1.1311
   18DOPE   H8S 2246   7.192   4.274   5.963  1.8949  0.9123 -0.2999
   18DOPE   C29 2247   7.282   4.455   5.899 -0.0330  0.2459  0.7509
   18DOPE   H9R 2248   7.275   4.565   5.906 -2.4454  0.2982 -1.2007
   18DOPE  C210 2249   7.372   4.406   5.810  1.1719  0.8458  0.5635
   18DOPE  H10R 2250   7.446   4.476   5.768  1.2667 -0.9874 -2.6842
   18DOPE  C211 2251   7.366   4.263   5.751 -0.7327 -0.5284  0.3065
   18DOPE  H11R 2252   7.311   4.183   5.805  1.3530 -2.6825 -0.5769
   18DOPE  H11S 2253   7.468   4.218   5.744 -1.0612 -1.0333 -2.3084
   18DOPE  C212 2254   7.316   4.277   5.607 -0.4116 -0.4945 -0.2647
   18DOPE  H12R 2255   7.347   4.187   5.549 -2.3456 -0.2881 -1.7399
   18DOPE  H12S 2256   7.352   4.364   5.547 -2.0070 -0.6943 -1.5926
   18DOPE  C213 2257   7.160   4.269   5.595  0.2795  0.2106 -0.1843
   18DOPE  H13R 2258   7.110   4.351   5.651  2.6574  2.6531 -1.3866
   18DOPE  H13S 2259   7.134   4.172   5.643 -1.1214  0.5864 -0.1123
   18DOPE  C214 2260   7.113   4.268   5.452  0.0498 -1.0265  0.6871
   18DOPE  H14R 2261   7.002   4.261   5.456  0.0397 -1.9239 -0.6794
   18DOPE  H14S 2262   7.155   4.178   5.402 -1.2350 -0.8031 -0.8924
   18DOPE  C215 2263   7.144   4.394   5.364  1.1498 -0.1483 -0.4445
   18DOPE  H15R 2264   7.254   4.406   5.357  1.2056 -0.2589  0.1572
   18DOPE  H15S 2265   7.090   4.481   5.406  0.8056 -0.6077  0.0826
   18DOPE  C216 2266   7.111   4.380   5.210  0.3891 -0.1946 -0.5679
   18DOPE  H16R 2267   7.003   4.358   5.203  0.4512 -0.4843 -0.6212
   18DOPE  H16S 2268   7.160   4.290   5.167  0.4642  0.8880 -2.8972
   18DOPE  C217 2269   7.143   4.505   5.139 -0.4863  0.2565  0.3111
   18DOPE  H17R 2270   7.254   4.516   5.136 -0.4367 -0.4168 -0.8229
   18DOPE  H17S 2271   7.098   4.597   5.182 -1.2281  0.0987 -0.1079
   18DOPE  C218 2272   7.103   4.487   4.994 -0.0675 -0.3700  0.0411
   18DOPE  H18R 2273   7.171   4.411   4.948  2.3341  1.2271  0.7461
   18DOPE  H18S 2274   7.125   4.581   4.939  0.9000 -1.7649 -2.1238
   18DOPE  H18T 2275   6.997   4.458   4.982 -0.3644  0.9249 -0.6526
   18DOPE   C33 2276   7.167   3.910   6.182  0.3866 -0.0156 -0.3588
   18DOPE   H3X 2277   7.106   3.960   6.104  1.3169  0.7562 -0.6132
   18DOPE   H3Y 2278   7.088   3.846   6.226  0.8421 -1.1965 -1.1969
   18DOPE   C34 2279   7.276   3.819   6.124  0.5276 -0.4459  0.3887
   18DOPE   H4X 2280   7.365   3.871   6.083  0.3332 -2.0290 -2.2750
   18DOPE   H4Y 2281   7.320   3.748   6.198 -0.4428 -3.0659 -1.3715
   18DOPE   C35 2282   7.229   3.739   5.994  0.3875 -0.5860  0.6577
   18DOPE   H5X 2283   7.134   3.688   6.017  0.3993  0.3384  3.0798
   18DOPE   H5Y 2284   7.309   3.664   5.975  0.5745 -0.4420  0.8640
   18DOPE   C36 2285   7.194   3.824   5.865 -0.0675 -0.3381 -0.3593
   18DOPE   H6X 2286   7.144   3.920   5.890 -2.0500 -1.8244  1.7728
   18DOPE   H6Y 2287   7.118   3.764   5.811 -1.2283 -0.4223  1.2896
   18DOPE   C37 2288   7.308   3.860   5.773 -0.2723  0.0225  0.0501
   18DOPE   H7X 2289   7.287   3.938   5.697  3.1383 -0.2631 -1.3712
   18DOPE   H7Y 2290   7.392   3.914   5.823  2.8473 -1.7601 -2.7942
   18DOPE   C38 2291   7.367   3.745   5.692 -0.0316  0.4957  0.0926
   18DOPE   H8X 2292   7.281   3.711   5.630  1.2755  1.7626 -2.5823
   18DOPE   H8Y 2293   7.387   3.671   5.772  1.2055  2.3128  1.5704
   18DOPE   C39 2294   7.489   3.760   5.600 -0.8822 -0.4163  0.2983
   18DOPE   H9X 2295   7.583   3.782   5.654 -1.1038  2.2577 -0.3090
   18DOPE  C310 2296   7.493   3.733   5.466  0.1837 -0.2670 -0.4938
   18DOPE  H10X 2297   7.575   3.773   5.405  1.9483 -0.2016  1.7660
   18DOPE  C311 2298   7.366   3.695   5.396 -0.0628  0.3534  0.0533
   18DOPE  H11X 2299   7.301   3.629   5.457  1.8117 -1.2516  0.4180
   18DOPE  H11Y 2300   7.313   3.790   5.371 -1.3515 -0.2354  0.4758
   18DOPE  C312 2301   7.386   3.616   5.261  0.4647  0.1356  0.1030
   18DOPE  H12X 2302   7.470   3.648   5.196 -0.2107  0.8913 -0.4231
   18DOPE  H12Y 2303   7.301   3.645   5.195  0.7703  0.4947 -0.1411
   18DOPE  C313 2304   7.381   3.465   5.268 -0.0586 -0.5305 -0.4794
   18DOPE  H13X 2305   7.427   3.414   5.356  0.3054  0.4539 -0.0876
   18DOPE  H13Y 2306   7.276   3.439   5.290 -0.8037  1.8098 -1.0379
   18DOPE  C314 2307   7.427   3.385   5.144 -0.3115  0.0965 -0.1574
   18DOPE  H14X 2308   7.393   3.279   5.149  0.2329 -0.1869 -1.7309
   18DOPE  H14Y 2309   7.535   3.393   5.118 -0.3384  2.2249  0.2382
   18DOPE  C315 2310   7.364   3.434   5.016  0.4363 -0.2551 -0.2162
   18DOPE  H15X 2311   7.400   3.375   4.928 -1.3425 -1.6068 -0.1032
   18DOPE  H15Y 2312   7.388   3.542   5.006 -0.0491  0.0373  1.5278
   18DOPE  C316 2313   7.216   3.416   5.018 -0.0563 -0.3377 -0.3659
   18DOPE  H16X 2314   7.173   3.453   4.923  3.1126  2.1501 -0.9756
   18DOPE  H16Y 2315   7.182   3.487   5.096  2.8587  4.3468 -2.9096
   18DOPE  C317 2316   7.156   3.277   5.031  0.0344  0.0824 -0.4151
   18DOPE  H17X 2317   7.204   3.206   4.960  2.0654  0.5434  0.4295
   18DOPE  H17Y 2318   7.195   3.239   5.128  0.0952 -0.6442 -0.7134
   18DOPE  C318 2319   7.008   3.271   5.023  0.2391  0.6174  0.0044
   18DOPE  H18X 2320   6.963   3.171   5.042 -0.3412  0.0229 -3.8039
   18DOPE  H18Y 2321   6.962   3.336   5.101 -0.1744 -0.9656  1.1441
   18DOPE  H18Z 2322   6.977   3.310   4.924 -1.7465  0.4617  0.5328
   19DOPE     N 2323   6.133   4.117   7.333  0.3249 -0.4096 -0.4751
   19DOPE   HN1 2324   6.136   4.082   7.430  2.6479 -0.6591 -0.5806
   19DOPE   HN2 2325   6.073   4.201   7.320  0.1815  0.1136  2.8712
   19DOPE   HN3 2326   6.085   4.043   7.277 -0.1355 -0.4031 -0.0992
   19DOPE   C12 2327   6.268   4.119   7.266 -0.4578  0.4197  0.0519
   19DOPE  H12A 2328   6.309   4.016   7.265  1.3146  1.0435 -2.3201
   19DOPE  H12B 2329   6.324   4.189   7.331 -0.4411 -0.3774  0.9161
   19DOPE   C11 2330   6.255   4.169   7.118 -0.1592  0.1892  0.2885
   19DOPE  H11A 2331   6.193   4.096   7.061  0.0140 -1.2133  1.8163
   19DOPE  H11B 2332   6.359   4.164   7.078 -0.0371 -2.7519  0.7478
   19DOPE     P 2333   6.236   4.415   7.017  0.1586  0.0257 -0.1607
   19DOPE   O13 2334   6.336   4.492   7.089 -0.2763  0.2329  0.2146
   19DOPE   O14 2335   6.112   4.480   6.970  0.1176 -0.4923 -0.1661
   19DOPE   O11 2336   6.306   4.333   6.901  0.0158 -0.1063 -0.0104
   19DOPE   O12 2337   6.194   4.301   7.116 -0.4219 -0.2938 -0.1527
   19DOPE    C1 2338   6.238   4.279   6.790 -0.0044  0.2652  0.4887
   19DOPE    HA 2339   6.136   4.320   6.776 -0.1313 -0.1773  0.0729
   19DOPE    HB 2340   6.218   4.170   6.801 -0.9877  0.5419  1.6586
   19DOPE    C2 2341   6.323   4.303   6.660 -0.3348  0.2342  0.4137
   19DOPE    HS 2342   6.274   4.252   6.574 -0.5701  1.9592 -0.5232
   19DOPE   O21 2343   6.466   4.269   6.679 -0.2315 -0.3821  0.2155
   19DOPE   C21 2344   6.488   4.145   6.655 -0.9009 -0.6026 -0.0174
   19DOPE   O22 2345   6.412   4.059   6.609 -0.1773 -0.1570 -0.1083
   19DOPE   C22 2346   6.634   4.113   6.673 -0.6866 -0.0293  0.6114
   19DOPE   H2R 2347   6.642   4.086   6.780 -1.5407 -0.9239  0.4678
   19DOPE   H2S 2348   6.697   4.203   6.657 -2.6089  1.1114 -0.9040
   19DOPE    C3 2349   6.322   4.460   6.629 -0.0437  0.6728  0.1892
   19DOPE    HX 2350   6.356   4.509   6.722 -0.5157  0.3633  0.5272
   19DOPE    HY 2351   6.218   4.491   6.605 -0.9236 -1.8492  0.4462
   19DOPE   O31 2352   6.398   4.485   6.517 -0.0894  0.5681  0.6277
   19DOPE   C31 2353   6.528   4.518   6.531 -0.5378  0.5202  0.5634
   19DOPE   O32 2354   6.599   4.524   6.628 -0.1324  0.1496 -0.0291
   19DOPE   C32 2355   6.591   4.544   6.391 -0.6865  0.1803  0.4369
   19DOPE   H2X 2356   6.521   4.609   6.333 -1.3021 -0.5657  0.3187
   19DOPE   H2Y 2357   6.680   4.607   6.411 -2.0041  2.1858  0.4028
   19DOPE   C23 2358   6.685   3.986   6.593  0.1482  0.0164  0.0635
   19DOPE   H3R 2359   6.612   3.905   6.612  0.4106  0.1412  1.8032
   19DOPE   H3S 2360   6.785   3.949   6.625 -1.0529 -3.4463  0.1836
   19DOPE   C24 2361   6.700   4.005   6.444 -0.5571  0.0047 -0.2939
   19DOPE   H4R 2362   6.787   4.064   6.410  1.4156 -3.0125 -0.8534
   19DOPE   H4S 2363   6.609   4.054   6.402  0.8201  2.1157 -0.9627
   19DOPE   C25 2364   6.718   3.874   6.372  0.1991 -0.2207  0.3610
   19DOPE   H5R 2365   6.622   3.818   6.380 -0.4379  0.7465 -0.3743
   19DOPE   H5S 2366   6.798   3.814   6.422  1.7181  1.0937 -0.4085
   19DOPE   C26 2367   6.761   3.887   6.226  0.1042 -0.6114  0.3128
   19DOPE   H6R 2368   6.861   3.935   6.215 -0.6242  0.5399 -1.8996
   19DOPE   H6S 2369   6.680   3.936   6.168 -0.1334 -0.2385  0.9475
   19DOPE   C27 2370   6.787   3.753   6.162 -0.1602  0.5618  0.0792
   19DOPE   H7R 2371   6.692   3.694   6.162  0.0023  0.2580 -1.4782
   19DOPE   H7S 2372   6.868   3.707   6.221  1.2780  2.3331 -0.4138
   19DOPE   C28 2373   6.819   3.760   6.015 -0.1419  0.0916 -0.4536
   19DOPE   H8R 2374   6.924   3.796   6.011  0.4988 -1.6165  0.0175
   19DOPE   H8S 2375   6.759   3.839   5.965  0.4212  1.3413  0.7642
   19DOPE   C29 2376   6.803   3.629   5.942  0.0647 -0.1108 -0.5113
   19DOPE   H9R 2377   6.873   3.554   5.981 -1.0512  0.5587  3.1903
   19DOPE  C210 2378   6.700   3.590   5.865 -0.1013 -0.0557 -0.0849
   19DOPE  H10R 2379   6.704   3.488   5.823 -1.0148 -0.0613 -0.1822
   19DOPE  C211 2380   6.585   3.679   5.818  0.7818  0.0864  0.2849
   19DOPE  H11R 2381   6.604   3.783   5.850 -1.2743  0.3447  0.7639
   19DOPE  H11S 2382   6.487   3.646   5.858  0.6114  0.2406  0.0038
   19DOPE  C212 2383   6.578   3.689   5.660  0.4035 -0.1881 -0.3662
   19DOPE  H12R 2384   6.569   3.587   5.617 -1.4882  1.0717 -3.2785
   19DOPE  H12S 2385   6.657   3.748   5.609  0.4595  1.5862  1.6571
   19DOPE  C213 2386   6.448   3.761   5.614 -0.4168  0.0156  0.0681
   19DOPE  H13R 2387   6.452   3.866   5.651 -0.7369 -0.0164  0.1940
   19DOPE  H13S 2388   6.368   3.712   5.673  0.3973 -0.6022  0.6910
   19DOPE  C214 2389   6.425   3.749   5.464  0.2697 -0.4841  0.3714
   19DOPE  H14R 2390   6.430   3.640   5.443  1.2603 -0.5388  0.8057
   19DOPE  H14S 2391   6.497   3.801   5.397 -1.9129 -2.5163 -3.9569
   19DOPE  C215 2392   6.281   3.794   5.424  0.1491 -0.6303  0.2089
   19DOPE  H15R 2393   6.209   3.715   5.450  0.1715 -0.6695  0.1526
   19DOPE  H15S 2394   6.273   3.780   5.314  1.3465 -1.9820  0.2593
   19DOPE  C216 2395   6.227   3.932   5.471 -0.8948 -0.2416 -0.2641
   19DOPE  H16R 2396   6.309   3.993   5.427  0.0001 -1.6599 -0.6273
   19DOPE  H16S 2397   6.242   3.945   5.580  0.8850  1.9120 -0.6890
   19DOPE  C217 2398   6.085   3.971   5.439 -0.0021 -0.0435 -0.7217
   19DOPE  H17R 2399   6.067   4.078   5.463  2.4698  0.4087 -0.6074
   19DOPE  H17S 2400   6.014   3.914   5.501 -0.4016  0.2454 -0.9062
   19DOPE  C218 2401   6.055   3.943   5.293 -0.1368 -0.2928  0.2352
   19DOPE  H18R 2402   6.124   3.994   5.222  1.0609 -2.4398 -0.2274
   19DOPE  H18S 2403   5.952   3.978   5.269 -0.4204  0.9162  2.8775
   19DOPE  H18T 2404   6.047   3.836   5.263  0.7862  0.4941 -3.3642
   19DOPE   C33 2405   6.616   4.408   6.334  0.8149  0.1471 -0.3893
   19DOPE   H3X 2406   6.524   4.347   6.348 -0.6824  2.3982  0.2728
   19DOPE   H3Y 2407   6.703   4.361   6.384  1.5624  1.0990 -0.7756
   19DOPE   C34 2408   6.651   4.405   6.185  0.0797 -0.3756 -0.3337
   19DOPE   H4X 2409   6.579   4.466   6.126  0.5008 -1.0979 -1.6066
   19DOPE   H4Y 2410   6.747   4.460   6.176 -0.1425  0.1723  0.4547
   19DOPE   C35 2411   6.680   4.259   6.137 -0.8685 -0.0111 -0.1271
   19DOPE   H5X 2412   6.593   4.193   6.122  0.3395 -1.6699 -0.1007
   19DOPE   H5Y 2413   6.762   4.217   6.200 -0.3003  2.6693  1.0944
   19DOPE   C36 2414   6.743   4.274   5.998  0.0338  0.3177  0.4179
   19DOPE   H6X 2415   6.837   4.334   6.002  2.3405 -2.8557 -1.2478
   19DOPE   H6Y 2416   6.675   4.319   5.923  0.1838 -0.7744 -0.4124
   19DOPE   C37 2417   6.786   4.128   5.954  0.0450  0.2936 -0.5556
   19DOPE   H7X 2418   6.834   4.076   6.040 -0.4075 -0.3779 -0.7048
   19DOPE   H7Y 2419   6.697   4.064   5.937 -0.1826  0.2374  0.7372
   19DOPE   C38 2420   6.878   4.129   5.838  0.0783 -0.3337  0.6600
   19DOPE   H8X 2421   6.926   4.031   5.818  0.8000  0.0247  0.6142
   19DOPE   H8Y 2422   6.962   4.197   5.865  1.0839 -0.5448 -1.6213
   19DOPE   C39 2423   6.824   4.186   5.704  0.1614  0.1008  0.3844
   19DOPE   H9X 2424   6.782   4.288   5.705  1.7574  0.7970  0.6313
   19DOPE  C310 2425   6.798   4.115   5.590 -0.0957 -0.0090 -0.6103
   19DOPE  H10X 2426   6.765   4.164   5.498 -1.1585  0.8594  0.1996
   19DOPE  C311 2427   6.819   3.968   5.571  0.1407  0.2232 -0.3208
   19DOPE  H11X 2428   6.828   3.906   5.663  2.0378 -1.9635 -1.8699
   19DOPE  H11Y 2429   6.731   3.925   5.518  0.2136 -1.8288  1.0984
   19DOPE  C312 2430   6.937   3.957   5.479  0.1614 -0.4943 -0.3054
   19DOPE  H12X 2431   7.024   3.981   5.544 -0.8157  0.7995  0.5824
   19DOPE  H12Y 2432   6.939   4.025   5.391 -0.0134 -0.9922 -0.6925
   19DOPE  C313 2433   6.947   3.819   5.409 -0.6903  0.0034  0.1885
   19DOPE  H13X 2434   6.852   3.788   5.359  0.3655 -0.9353 -1.3116
   19DOPE  H13Y 2435   7.031   3.825   5.337  2.3343  0.4352  3.5086
   19DOPE  C314 2436   6.985   3.702   5.499 -0.0996 -0.5910  0.0008
   19DOPE  H14X 2437   6.898   3.672   5.561 -0.5500 -2.5848 -1.4778
   19DOPE  H14Y 2438   7.075   3.726   5.559  0.6947 -1.5891 -0.7650
   19DOPE  C315 2439   7.028   3.573   5.427 -0.5188 -0.3450  0.5405
   19DOPE  H15X 2440   7.119   3.588   5.365 -0.3882  0.7352  0.9676
   19DOPE  H15Y 2441   6.951   3.543   5.354  0.0077 -0.4124  0.0063
   19DOPE  C316 2442   7.068   3.457   5.527 -0.3416 -1.0150 -0.2285
   19DOPE  H16X 2443   7.166   3.483   5.572  1.1129 -2.4247 -2.3818
   19DOPE  H16Y 2444   7.095   3.367   5.468 -0.0537 -0.0510 -1.6421
   19DOPE  C317 2445   6.959   3.410   5.632  0.0061 -0.9868  0.5172
   19DOPE  H17X 2446   7.017   3.347   5.703  0.7671  0.7455  1.5046
   19DOPE  H17Y 2447   6.940   3.502   5.692  2.4024  0.6587 -1.0391
   19DOPE  C318 2448   6.823   3.365   5.572 -0.3720 -0.0317 -0.1052
   19DOPE  H18X 2449   6.793   3.431   5.488 -0.7067 -0.8388 -0.6321
   19DOPE  H18Y 2450   6.832   3.263   5.529  0.0049 -0.3007  0.6043
   19DOPE  H18Z 2451   6.746   3.364   5.652 -0.5650  0.4597 -0.2790
   20DOPE     N 2452   4.149   0.160   7.064  0.2323 -0.4065 -0.0510
   20DOPE   HN1 2453   4.107   0.204   6.980  0.2625  1.0221  0.6682
   20DOPE   HN2 2454   4.081   0.109   7.124  1.9936 -2.0942  0.6342
   20DOPE   HN3 2455   4.209   0.233   7.106 -0.7667  1.0942 -1.1521
   20DOPE   C12 2456   4.249   0.057   7.018 -0.5354 -0.5144  0.2286
   20DOPE  H12A 2457   4.196  -0.041   7.016 -0.0263 -0.7867 -0.7069
   20DOPE  H12B 2458   4.327   0.052   7.097  1.5702  0.0061 -1.6943
   20DOPE   C11 2459   4.296   0.099   6.877  0.2163 -0.2825  0.4055
   20DOPE  H11A 2460   4.217   0.084   6.800 -0.0115  2.8499 -0.0866
   20DOPE  H11B 2461   4.368   0.020   6.845  0.3694  0.0783 -0.1576
   20DOPE     P 2462   4.331   0.336   6.767 -0.5079  0.0316  0.4478
   20DOPE   O13 2463   4.449   0.424   6.774  0.6339 -0.8882  0.3444
   20DOPE   O14 2464   4.196   0.392   6.788  0.4826 -0.0615 -0.1293
   20DOPE   O11 2465   4.337   0.251   6.631 -0.2759  0.5072 -0.2116
   20DOPE   O12 2466   4.357   0.226   6.873  0.6347 -0.3910  0.0056
   20DOPE    C1 2467   4.463   0.184   6.594  1.0945 -0.2789  0.1492
   20DOPE    HA 2468   4.500   0.112   6.671  1.9793  0.1980  0.1809
   20DOPE    HB 2469   4.534   0.265   6.568 -0.1003  1.0703  0.9316
   20DOPE    C2 2470   4.441   0.112   6.449 -0.2484 -0.2275 -0.8252
   20DOPE    HS 2471   4.543   0.088   6.411 -0.0671 -0.4094 -0.2289
   20DOPE   O21 2472   4.372   0.197   6.358  0.5416 -0.0415  0.1361
   20DOPE   C21 2473   4.454   0.285   6.305 -0.1019  0.2767  0.1899
   20DOPE   O22 2474   4.572   0.301   6.329  0.2700  0.5590  0.1216
   20DOPE   C22 2475   4.384   0.372   6.196  0.6685 -0.3862  0.0194
   20DOPE   H2R 2476   4.421   0.474   6.220  0.3781 -0.1420 -0.5753
   20DOPE   H2S 2477   4.276   0.367   6.218  1.0552 -0.8745  1.9796
   20DOPE    C3 2478   4.358  -0.024   6.460 -0.6202  0.9185  0.7916
   20DOPE    HX 2479   4.259   0.002   6.501 -1.7769  2.4052 -2.6013
   20DOPE    HY 2480   4.407  -0.086   6.539  3.0817  1.3304 -0.9656
   20DOPE   O31 2481   4.356  -0.095   6.327  0.4162 -0.5929 -0.3942
   20DOPE   C31 2482   4.248  -0.083   6.254  0.4177 -0.3649 -0.7040
   20DOPE   O32 2483   4.150  -0.017   6.286 -0.0931  0.1130  0.1310
   20DOPE   C32 2484   4.275  -0.164   6.132 -0.1059 -0.0451 -0.0105
   20DOPE   H2X 2485   4.382  -0.194   6.136  0.5721  2.3788  1.7166
   20DOPE   H2Y 2486   4.214  -0.256   6.142 -0.9005  0.2802 -1.5602
   20DOPE   C23 2487   4.402   0.329   6.054 -0.5135 -0.0897  0.1682
   20DOPE   H3R 2488   4.369   0.225   6.036  0.2322 -0.3876  0.4994
   20DOPE   H3S 2489   4.507   0.339   6.020 -0.6492 -0.7504 -0.4726
   20DOPE   C24 2490   4.305   0.405   5.950  0.0935 -0.0223  0.3698
   20DOPE   H4R 2491   4.325   0.514   5.955  1.3442  0.0072 -2.7977
   20DOPE   H4S 2492   4.196   0.396   5.969  0.0739 -0.0438  0.2521
   20DOPE   C25 2493   4.324   0.371   5.802 -0.0872  0.0675 -0.3209
   20DOPE   H5R 2494   4.266   0.279   5.784 -3.0844  1.8016 -0.1750
   20DOPE   H5S 2495   4.433   0.365   5.781  0.3050 -1.1650  1.8860
   20DOPE   C26 2496   4.262   0.481   5.716 -0.0270 -0.1603 -0.1957
   20DOPE   H6R 2497   4.321   0.575   5.722  2.3690 -1.5313 -1.1166
   20DOPE   H6S 2498   4.165   0.519   5.755 -0.8468 -2.0841 -0.2729
   20DOPE   C27 2499   4.250   0.433   5.567 -0.4379 -0.5876 -0.0419
   20DOPE   H7R 2500   4.206   0.331   5.576 -0.8240 -0.4095  0.1364
   20DOPE   H7S 2501   4.357   0.428   5.540  0.2017  0.9515  1.9247
   20DOPE   C28 2502   4.170   0.533   5.486 -0.2824  0.1663  0.1965
   20DOPE   H8R 2503   4.200   0.637   5.508 -0.4418  0.5617 -1.3050
   20DOPE   H8S 2504   4.061   0.535   5.509 -0.4042  2.3200 -0.3061
   20DOPE   C29 2505   4.191   0.498   5.336  0.0857 -0.4253  0.2290
   20DOPE   H9R 2506   4.134   0.410   5.305  0.9406 -0.5486 -1.0748
   20DOPE  C210 2507   4.281   0.551   5.254 -0.5910  0.1457 -0.3688
   20DOPE  H10R 2508   4.300   0.505   5.156 -0.2184  0.9183 -0.6700
   20DOPE  C211 2509   4.371   0.670   5.284  0.8549  0.3344 -0.4328
   20DOPE  H11R 2510   4.456   0.655   5.354  1.9567  1.5076 -1.4700
   20DOPE  H11S 2511   4.305   0.749   5.325 -0.2749 -1.6137  1.6902
   20DOPE  C212 2512   4.439   0.740   5.168 -0.4654  0.8361 -0.1161
   20DOPE  H12R 2513   4.491   0.665   5.104 -1.9440 -0.9377  0.6661
   20DOPE  H12S 2514   4.514   0.806   5.217  0.1884  0.1903 -0.2280
   20DOPE  C213 2515   4.349   0.827   5.080  0.8487 -0.3252 -0.3013
   20DOPE  H13R 2516   4.318   0.904   5.154  0.7159  0.0734 -0.7641
   20DOPE  H13S 2517   4.257   0.772   5.048  0.6175 -0.2468  0.2213
   20DOPE  C214 2518   4.415   0.889   4.953 -0.3350 -0.4484  0.0457
   20DOPE  H14R 2519   4.498   0.955   4.987  0.6412 -1.1665 -0.8795
   20DOPE  H14S 2520   4.344   0.963   4.911  1.0576 -0.1342 -1.9069
   20DOPE  C215 2521   4.465   0.794   4.844 -0.0273  0.2989 -0.4887
   20DOPE  H15R 2522   4.382   0.741   4.793  0.7991  1.0675 -2.7792
   20DOPE  H15S 2523   4.532   0.722   4.897  1.3894  1.5160 -0.5712
   20DOPE  C216 2524   4.549   0.873   4.744  0.0927  0.4409  0.1580
   20DOPE  H16R 2525   4.652   0.901   4.774 -0.4799  3.1232 -0.1844
   20DOPE  H16S 2526   4.498   0.970   4.730 -1.0450 -0.3918 -2.0111
   20DOPE  C217 2527   4.561   0.802   4.608 -1.1616 -0.4196  0.0334
   20DOPE  H17R 2528   4.607   0.869   4.533  0.0568 -1.6744 -0.3768
   20DOPE  H17S 2529   4.459   0.774   4.574 -0.9958 -1.5665  0.4078
   20DOPE  C218 2530   4.637   0.675   4.609  0.0575  0.5907 -0.3970
   20DOPE  H18R 2531   4.736   0.706   4.651  0.5747  0.2578 -1.3368
   20DOPE  H18S 2532   4.670   0.628   4.514  1.1966  1.8710 -0.6654
   20DOPE  H18T 2533   4.593   0.597   4.675 -2.1754  0.3377 -2.0825
   20DOPE   C33 2534   4.247  -0.087   6.001  0.3306 -0.4006  0.0519
   20DOPE   H3X 2535   4.318  -0.003   5.990  0.0019 -0.1334 -0.0532
   20DOPE   H3Y 2536   4.148  -0.036   6.004  0.1062 -0.8507  2.4705
   20DOPE   C34 2537   4.254  -0.175   5.871  0.0902 -0.9938 -0.0079
   20DOPE   H4X 2538   4.358  -0.214   5.861  1.0975  1.5291  0.0876
   20DOPE   H4Y 2539   4.182  -0.258   5.891 -1.6423  0.6494  0.8851
   20DOPE   C35 2540   4.220  -0.096   5.744  0.2450 -0.5087 -0.9743
   20DOPE   H5X 2541   4.293  -0.012   5.742 -0.4690  0.2601  1.6009
   20DOPE   H5Y 2542   4.111  -0.074   5.748  0.1647 -1.1227  1.4874
   20DOPE   C36 2543   4.240  -0.180   5.621  0.3005  0.1152 -0.0507
   20DOPE   H6X 2544   4.157  -0.253   5.632 -0.4157  1.0753  1.2571
   20DOPE   H6Y 2545   4.328  -0.248   5.620 -1.7702 -2.7288 -0.1006
   20DOPE   C37 2546   4.238  -0.102   5.488 -0.7567 -0.9287 -0.3322
   20DOPE   H7X 2547   4.131  -0.082   5.464  0.0167  1.8075 -2.0007
   20DOPE   H7Y 2548   4.289  -0.004   5.490 -2.8207  0.2072  0.1991
   20DOPE   C38 2549   4.304  -0.177   5.373  0.0916  1.0659  0.0553
   20DOPE   H8X 2550   4.409  -0.193   5.405 -0.5869  0.1642  1.9263
   20DOPE   H8Y 2551   4.310  -0.108   5.285  3.1991 -0.6827 -1.2598
   20DOPE   C39 2552   4.244  -0.308   5.316 -0.3567  0.6765  0.1870
   20DOPE   H9X 2553   4.141  -0.305   5.278 -0.6935 -0.3109  0.9779
   20DOPE  C310 2554   4.303  -0.429   5.313  0.3191 -0.0793  0.7048
   20DOPE  H10X 2555   4.248  -0.514   5.270  0.8466 -0.7269  1.2853
   20DOPE  C311 2556   4.437  -0.469   5.366 -0.0670 -0.5677 -0.5308
   20DOPE  H11X 2557   4.503  -0.469   5.277 -3.1814  0.7813 -3.0765
   20DOPE  H11Y 2558   4.479  -0.396   5.439 -0.4721 -0.1508 -0.7053
   20DOPE  C312 2559   4.433  -0.609   5.422  0.0866  0.0399 -0.6789
   20DOPE  H12X 2560   4.393  -0.682   5.348  0.4294  1.1810 -2.0323
   20DOPE  H12Y 2561   4.368  -0.611   5.512  1.1985  0.2695  0.1625
   20DOPE  C313 2562   4.573  -0.664   5.460 -0.4549  0.3598  1.0713
   20DOPE  H13X 2563   4.554  -0.772   5.479  2.6489 -0.7102 -1.1660
   20DOPE  H13Y 2564   4.640  -0.666   5.372 -1.6936 -1.4793  0.1063
   20DOPE  C314 2565   4.630  -0.593   5.577 -0.1689 -0.1066 -0.4931
   20DOPE  H14X 2566   4.551  -0.564   5.650  0.9050 -2.0267  1.5398
   20DOPE  H14Y 2567   4.669  -0.497   5.537  0.7904 -0.5127 -0.5597
   20DOPE  C315 2568   4.741  -0.665   5.649  0.0432  1.1496 -0.0344
   20DOPE  H15X 2569   4.835  -0.658   5.590  0.3066 -0.0347  0.2064
   20DOPE  H15Y 2570   4.719  -0.774   5.659  0.2445  1.0379 -0.7252
   20DOPE  C316 2571   4.778  -0.613   5.790 -0.8874 -0.0500 -0.3477
   20DOPE  H16X 2572   4.839  -0.690   5.841 -1.2320  0.1521  0.3735
   20DOPE  H16Y 2573   4.688  -0.615   5.854 -1.1126 -0.1402 -0.6635
   20DOPE  C317 2574   4.835  -0.467   5.790 -0.4992 -0.1652  0.0922
   20DOPE  H17X 2575   4.938  -0.454   5.750 -0.4809 -0.9200 -0.1321
   20DOPE  H17Y 2576   4.766  -0.407   5.727 -1.8140 -0.3323  1.3113
   20DOPE  C318 2577   4.830  -0.416   5.936  0.3170 -0.1178  0.6675
   20DOPE  H18X 2578   4.731  -0.411   5.986  1.0670 -0.1912  2.2110
   20DOPE  H18Y 2579   4.891  -0.479   6.005  2.4261  1.3609  0.2642
   20DOPE  H18Z 2580   4.878  -0.316   5.947 -0.6555  0.5156 -0.6705
   21DOPE     N 2581   2.882   6.866   7.528 -0.3214  0.0356 -0.1709
   21DOPE   HN1 2582   2.867   6.859   7.631  0.4013 -1.6867 -0.1561
   21DOPE   HN2 2583   2.950   6.789   7.516 -1.9122 -2.2090  3.6230
   21DOPE   HN3 2584   2.924   6.957   7.499  1.2004  0.0496  1.8690
   21DOPE   C12 2585   2.753   6.837   7.451 -0.6857 -0.8004  0.2804
   21DOPE  H12A 2586   2.673   6.889   7.507 -1.8107 -2.1679 -0.0004
   21DOPE  H12B 2587   2.740   6.730   7.475  0.4160 -0.8178  0.8650
   21DOPE   C11 2588   2.744   6.875   7.299  0.2287  0.1043  0.1726
   21DOPE  H11A 2589   2.812   6.809   7.242 -2.1358 -2.0495 -0.3543
   21DOPE  H11B 2590   2.781   6.979   7.284 -3.0290  1.4032  0.2501
   21DOPE     P 2591   2.565   6.744   7.168 -0.3211  0.1891  0.4214
   21DOPE   O13 2592   2.428   6.775   7.115  0.5677  1.1687  0.0890
   21DOPE   O14 2593   2.584   6.629   7.253  0.3726  0.4434 -0.1487
   21DOPE   O11 2594   2.673   6.729   7.052  0.2044 -0.2962  1.0014
   21DOPE   O12 2595   2.610   6.869   7.255  0.1777  0.1293  0.5825
   21DOPE    C1 2596   2.664   6.800   6.930  0.2949  0.4520  0.1445
   21DOPE    HA 2597   2.761   6.849   6.907 -0.7061  2.0080 -0.9969
   21DOPE    HB 2598   2.585   6.878   6.935 -0.5018 -0.3405  0.1103
   21DOPE    C2 2599   2.636   6.711   6.799 -0.1013  0.3704  0.3029
   21DOPE    HS 2600   2.536   6.665   6.812  0.4437 -1.1974 -0.8369
   21DOPE   O21 2601   2.744   6.618   6.773 -0.1543  0.4701  0.1357
   21DOPE   C21 2602   2.700   6.496   6.737 -0.2201 -0.0137 -0.4726
   21DOPE   O22 2603   2.586   6.466   6.722  0.0951  0.3095  0.3256
   21DOPE   C22 2604   2.825   6.408   6.714  0.1835 -0.7305  0.4182
   21DOPE   H2R 2605   2.792   6.303   6.696 -0.1196 -0.5765  0.0758
   21DOPE   H2S 2606   2.894   6.404   6.801 -0.4478 -2.7686  0.8953
   21DOPE    C3 2607   2.627   6.800   6.673 -0.4545  0.7160 -0.1768
   21DOPE    HX 2608   2.722   6.857   6.662  0.3818 -0.7930 -1.0296
   21DOPE    HY 2609   2.553   6.880   6.696  0.1733  0.9743  1.0323
   21DOPE   O31 2610   2.590   6.734   6.549  0.3531  0.0389  0.0472
   21DOPE   C31 2611   2.455   6.716   6.549 -0.3392 -0.1747  0.4036
   21DOPE   O32 2612   2.375   6.742   6.639  0.4743 -0.2554 -0.1481
   21DOPE   C32 2613   2.419   6.663   6.409  0.3750 -0.2443  0.4358
   21DOPE   H2X 2614   2.509   6.620   6.360  0.3569  0.0128  0.1795
   21DOPE   H2Y 2615   2.342   6.584   6.420  0.3020 -0.5719 -1.9570
   21DOPE   C23 2616   2.909   6.459   6.592 -0.2130 -0.7732 -0.3641
   21DOPE   H3R 2617   3.013   6.420   6.590  0.1370  0.0922  0.2334
   21DOPE   H3S 2618   2.918   6.569   6.602  2.2169 -1.0666  1.7103
   21DOPE   C24 2619   2.832   6.426   6.461 -0.0711 -0.1725  0.5825
   21DOPE   H4R 2620   2.724   6.451   6.465 -0.0329  0.5974 -1.6697
   21DOPE   H4S 2621   2.835   6.315   6.453  1.4087 -0.2028  1.1032
   21DOPE   C25 2622   2.889   6.498   6.337 -0.1032 -0.4674  0.2036
   21DOPE   H5R 2623   2.987   6.460   6.299  1.6910  1.5712  2.4673
   21DOPE   H5S 2624   2.920   6.602   6.360 -0.8675 -0.0897 -0.4412
   21DOPE   C26 2625   2.788   6.500   6.229 -0.1330  0.6189 -0.2992
   21DOPE   H6R 2626   2.704   6.565   6.259  0.0877  1.5072 -1.5367
   21DOPE   H6S 2627   2.745   6.400   6.206 -0.7349  0.6604  0.6061
   21DOPE   C27 2628   2.828   6.563   6.095 -0.6803  0.4591  0.5095
   21DOPE   H7R 2629   2.901   6.496   6.044 -0.6035  1.0538 -0.1860
   21DOPE   H7S 2630   2.887   6.655   6.115 -0.5249  0.3127  0.7296
   21DOPE   C28 2631   2.707   6.594   6.007  0.1835  0.0791 -0.5536
   21DOPE   H8R 2632   2.618   6.610   6.072 -0.0147  0.1581 -0.8397
   21DOPE   H8S 2633   2.676   6.505   5.947  1.2127 -0.8459  0.2496
   21DOPE   C29 2634   2.717   6.712   5.920  0.7118 -0.9083 -0.2997
   21DOPE   H9R 2635   2.665   6.801   5.957  2.2434 -0.7100  1.4921
   21DOPE  C210 2636   2.760   6.714   5.789  0.0677  0.5396  0.1528
   21DOPE  H10R 2637   2.738   6.800   5.725  1.2370  0.5284 -0.2822
   21DOPE  C211 2638   2.812   6.585   5.731 -0.6485 -0.2815  1.1811
   21DOPE  H11R 2639   2.750   6.493   5.742 -0.3034 -0.9335 -1.5303
   21DOPE  H11S 2640   2.900   6.552   5.790  0.4822 -0.2951 -0.4523
   21DOPE  C212 2641   2.859   6.563   5.577 -0.3830  0.1424  0.2389
   21DOPE  H12R 2642   2.895   6.460   5.560  1.7891  0.9065 -0.2210
   21DOPE  H12S 2643   2.953   6.618   5.550 -0.1199 -0.1345  0.5915
   21DOPE  C213 2644   2.745   6.586   5.478 -0.7154  0.7190  0.5606
   21DOPE  H13R 2645   2.691   6.681   5.493 -0.5572  0.6195  1.9218
   21DOPE  H13S 2646   2.675   6.504   5.505  1.8871 -2.5056 -1.6632
   21DOPE  C214 2647   2.784   6.563   5.330 -0.1743 -0.2811  0.1950
   21DOPE  H14R 2648   2.875   6.619   5.301  2.1373 -4.1930 -0.8235
   21DOPE  H14S 2649   2.695   6.596   5.273 -0.7936 -0.2428  1.1573
   21DOPE  C215 2650   2.806   6.415   5.300  0.0358  0.2138  0.6071
   21DOPE  H15R 2651   2.710   6.360   5.315  0.5134 -1.3253 -1.5909
   21DOPE  H15S 2652   2.879   6.382   5.377  1.7871  0.6380 -0.8135
   21DOPE  C216 2653   2.867   6.383   5.159  0.1711  0.9598 -0.1264
   21DOPE  H16R 2654   2.930   6.292   5.159  0.2320  0.9353  2.4550
   21DOPE  H16S 2655   2.947   6.458   5.141 -0.9870  2.1721 -0.3611
   21DOPE  C217 2656   2.775   6.375   5.040  0.0729  0.6478  0.3442
   21DOPE  H17R 2657   2.712   6.466   5.035 -1.0115  0.0814  2.4413
   21DOPE  H17S 2658   2.711   6.287   5.062  2.3326 -0.7076  2.0082
   21DOPE  C218 2659   2.854   6.364   4.908 -1.0834  0.3801  1.1079
   21DOPE  H18R 2660   2.925   6.448   4.894 -2.3979  1.2217 -1.0722
   21DOPE  H18S 2661   2.783   6.380   4.824  0.0056 -1.9119 -0.3443
   21DOPE  H18T 2662   2.912   6.270   4.894 -0.2005  1.1351 -0.6738
   21DOPE   C33 2663   2.351   6.769   6.328  0.2954  0.7162  0.8661
   21DOPE   H3X 2664   2.287   6.837   6.387  0.4884  0.6320  1.1720
   21DOPE   H3Y 2665   2.278   6.726   6.256  2.0372 -0.0819 -0.5173
   21DOPE   C34 2666   2.445   6.856   6.240 -0.1878 -0.7345 -0.4381
   21DOPE   H4X 2667   2.524   6.904   6.302 -2.4155  4.0620 -0.9289
   21DOPE   H4Y 2668   2.493   6.799   6.157  1.6683  1.0245 -0.6610
   21DOPE   C35 2669   2.371   6.972   6.171  0.5187  0.9167  0.5158
   21DOPE   H5X 2670   2.325   7.038   6.249  1.4476 -0.5547  2.3897
   21DOPE   H5Y 2671   2.279   6.934   6.123  0.3934  1.2640  0.4766
   21DOPE   C36 2672   2.457   7.033   6.069 -0.6865 -0.1532 -0.9873
   21DOPE   H6X 2673   2.479   6.946   6.003 -1.4671 -1.5040  0.4758
   21DOPE   H6Y 2674   2.552   7.052   6.125 -0.7739 -0.8611 -0.5912
   21DOPE   C37 2675   2.385   7.160   6.014 -0.1704 -0.0954  0.1216
   21DOPE   H7X 2676   2.277   7.136   6.008 -0.1380  0.0815 -1.8139
   21DOPE   H7Y 2677   2.397   7.241   6.089  1.2206 -0.6939  0.5649
   21DOPE   C38 2678   2.426   7.204   5.875  0.6933 -0.5712  0.3286
   21DOPE   H8X 2679   2.537   7.196   5.873  1.1021  2.8252  1.6791
   21DOPE   H8Y 2680   2.407   7.311   5.851 -0.9849 -1.1225 -1.0244
   21DOPE   C39 2681   2.375   7.108   5.771 -0.6240 -0.6594  0.1913
   21DOPE   H9X 2682   2.379   7.000   5.792 -0.8416 -0.9453 -1.1442
   21DOPE  C310 2683   2.311   7.135   5.654 -0.2930  0.3100  0.4935
   21DOPE  H10X 2684   2.271   7.056   5.589 -1.2742  1.3325 -0.1852
   21DOPE  C311 2685   2.264   7.266   5.592  0.8240  0.2320 -0.3138
   21DOPE  H11X 2686   2.258   7.342   5.673  2.1153 -0.8869  0.8925
   21DOPE  H11Y 2687   2.328   7.303   5.509  2.0193 -0.5526  0.2318
   21DOPE  C312 2688   2.122   7.256   5.515 -0.0596  0.1553 -0.4635
   21DOPE  H12X 2689   2.084   7.358   5.492  0.0428  0.3864  0.3689
   21DOPE  H12Y 2690   2.047   7.212   5.584  0.6511 -4.0208 -2.0410
   21DOPE  C313 2691   2.125   7.178   5.386  0.2521  0.0339 -0.1850
   21DOPE  H13X 2692   2.182   7.085   5.408  2.6947  1.6368  0.8359
   21DOPE  H13Y 2693   2.021   7.154   5.356 -0.5933  1.1097  1.6613
   21DOPE  C314 2694   2.188   7.258   5.277 -0.4437  0.3411  0.5591
   21DOPE  H14X 2695   2.204   7.196   5.187 -1.1749  1.0161 -0.0543
   21DOPE  H14Y 2696   2.281   7.313   5.303 -0.1361  0.3939 -0.6196
   21DOPE  C315 2697   2.086   7.354   5.221 -0.2427  0.1359 -1.1254
   21DOPE  H15X 2698   2.074   7.441   5.289  2.6829  2.5140 -3.3510
   21DOPE  H15Y 2699   1.989   7.300   5.211  1.1209 -2.7655  0.2015
   21DOPE  C316 2700   2.134   7.409   5.088  0.3414 -0.2825 -0.0111
   21DOPE  H16X 2701   2.078   7.366   5.002 -0.1120 -0.2516  0.2650
   21DOPE  H16Y 2702   2.244   7.395   5.081  0.5790  1.4049 -0.1456
   21DOPE  C317 2703   2.109   7.558   5.088 -0.5995  0.3364  0.0019
   21DOPE  H17X 2704   2.001   7.581   5.086 -0.5040  0.7871 -1.1234
   21DOPE  H17Y 2705   2.148   7.601   5.183 -1.2438 -0.8665  0.8267
   21DOPE  C318 2706   2.182   7.623   4.965  0.4286 -0.8074  0.8121
   21DOPE  H18X 2707   2.244   7.710   4.995 -2.5545  2.0254 -0.5957
   21DOPE  H18Y 2708   2.246   7.552   4.909  3.1266  0.1066  2.5410
   21DOPE  H18Z 2709   2.105   7.653   4.890 -0.4043 -0.8636  1.6231
   22DOPE     N 2710   7.443   4.394   7.071  0.1360  0.2213  0.2950
   22DOPE   HN1 2711   7.434   4.292   7.090 -0.1465 -0.3021 -2.3246
   22DOPE   HN2 2712   7.351   4.428   7.037 -0.3166  0.5612  1.8105
   22DOPE   HN3 2713   7.507   4.431   6.998 -1.0337  2.2511  0.2522
   22DOPE   C12 2714   7.472   4.483   7.190  0.4947  0.5040 -0.0965
   22DOPE  H12A 2715   7.557   4.440   7.248  0.1346 -0.0002  0.0669
   22DOPE  H12B 2716   7.383   4.476   7.256  1.1657 -0.2591  0.7577
   22DOPE   C11 2717   7.484   4.632   7.172  0.0920  0.3234 -0.3784
   22DOPE  H11A 2718   7.575   4.659   7.114 -1.0202  2.2067 -1.3669
   22DOPE  H11B 2719   7.506   4.674   7.273 -0.6685  0.0416 -0.0847
   22DOPE     P 2720   7.367   4.843   7.088  0.4752  0.2294  0.4603
   22DOPE   O13 2721   7.367   4.899   7.221 -0.0543  0.4045 -0.4161
   22DOPE   O14 2722   7.249   4.873   7.006 -0.1006  0.3908 -0.5390
   22DOPE   O11 2723   7.495   4.895   7.012 -0.1149 -0.2507 -0.1840
   22DOPE   O12 2724   7.376   4.688   7.108 -0.4460  0.4481  0.2428
   22DOPE    C1 2725   7.543   4.841   6.885 -0.2050 -0.0032 -0.3469
   22DOPE    HA 2726   7.507   4.737   6.876  1.1920 -0.4763 -0.8361
   22DOPE    HB 2727   7.652   4.820   6.895 -0.3085 -0.8705 -0.9638
   22DOPE    C2 2728   7.499   4.935   6.770 -0.3512 -0.5248 -0.0552
   22DOPE    HS 2729   7.390   4.952   6.773  0.0767  3.9238 -1.9753
   22DOPE   O21 2730   7.555   4.882   6.650 -0.0115  0.1513  0.0749
   22DOPE   C21 2731   7.496   4.768   6.602 -0.0028  0.4826 -0.3670
   22DOPE   O22 2732   7.406   4.708   6.660 -0.1766 -0.7158  0.5458
   22DOPE   C22 2733   7.557   4.714   6.473  0.0157 -0.2409 -0.0876
   22DOPE   H2R 2734   7.661   4.673   6.479  0.4677 -0.0329 -3.7767
   22DOPE   H2S 2735   7.559   4.796   6.397  0.7157  1.2147  1.4350
   22DOPE    C3 2736   7.547   5.086   6.791  0.2265  0.4291 -0.4590
   22DOPE    HX 2737   7.651   5.111   6.822  0.0530  1.7318 -0.8632
   22DOPE    HY 2738   7.490   5.114   6.883  1.5441 -0.0461  0.5347
   22DOPE   O31 2739   7.503   5.165   6.687  0.2318 -0.0993 -0.0305
   22DOPE   C31 2740   7.583   5.193   6.587 -0.6310  0.7346  0.0175
   22DOPE   O32 2741   7.701   5.162   6.570  0.7290  0.4214  0.0479
   22DOPE   C32 2742   7.512   5.279   6.485 -0.4042  0.3850 -0.3253
   22DOPE   H2X 2743   7.402   5.264   6.480 -0.4979  1.3447 -2.2501
   22DOPE   H2Y 2744   7.544   5.383   6.506 -1.7065  0.6769  0.3479
   22DOPE   C23 2745   7.484   4.591   6.411 -0.2130  0.3056 -0.0166
   22DOPE   H3R 2746   7.383   4.626   6.380 -0.5433 -1.8020 -1.4933
   22DOPE   H3S 2747   7.476   4.513   6.491 -0.4292 -1.6168 -1.8258
   22DOPE   C24 2748   7.558   4.519   6.296 -0.2144 -0.2935  0.4318
   22DOPE   H4R 2749   7.501   4.434   6.254  0.3341  0.2504 -1.5455
   22DOPE   H4S 2750   7.659   4.476   6.314  0.3458  0.1118 -1.4580
   22DOPE   C25 2751   7.582   4.624   6.176 -0.1570  0.5781 -0.4382
   22DOPE   H5R 2752   7.639   4.713   6.212 -1.5903  0.5835  2.0634
   22DOPE   H5S 2753   7.480   4.658   6.147 -0.3349 -0.2161 -0.7505
   22DOPE   C26 2754   7.639   4.576   6.044  0.1285 -0.3785  0.3478
   22DOPE   H6R 2755   7.589   4.491   5.994 -1.4025  0.2508  0.7434
   22DOPE   H6S 2756   7.741   4.535   6.064 -0.2350 -0.4035  2.4297
   22DOPE   C27 2757   7.645   4.696   5.949 -0.5234  0.2846 -0.0283
   22DOPE   H7R 2758   7.658   4.795   5.997 -0.9151 -0.1326  0.9621
   22DOPE   H7S 2759   7.544   4.706   5.904 -1.7088  1.8115  2.7469
   22DOPE   C28 2760   7.753   4.683   5.837 -0.4773 -0.0920  0.4453
   22DOPE   H8R 2761   7.852   4.661   5.884 -0.5677 -3.0628 -0.5529
   22DOPE   H8S 2762   7.752   4.781   5.784 -0.4931 -0.3981 -0.1281
   22DOPE   C29 2763   7.725   4.570   5.742  0.6079 -0.0303  0.0766
   22DOPE   H9R 2764   7.705   4.472   5.789  0.7530 -0.0842  0.0243
   22DOPE  C210 2765   7.711   4.572   5.606  0.3639  0.1830 -0.1886
   22DOPE  H10R 2766   7.712   4.471   5.562 -0.3242 -0.9335  2.1844
   22DOPE  C211 2767   7.730   4.691   5.506  0.8260  0.1909 -0.1122
   22DOPE  H11R 2768   7.673   4.781   5.536 -0.0249  0.3235 -2.0108
   22DOPE  H11S 2769   7.688   4.659   5.408 -1.4293  0.8187  0.5883
   22DOPE  C212 2770   7.874   4.735   5.484  0.3003  0.9074  0.0939
   22DOPE  H12R 2771   7.945   4.660   5.524 -0.1376  0.4945  0.0987
   22DOPE  H12S 2772   7.897   4.825   5.545  0.4061  0.3542  0.8716
   22DOPE  C213 2773   7.905   4.756   5.331 -0.0799  0.9579 -0.1356
   22DOPE  H13R 2774   8.004   4.805   5.319  0.9228 -1.3068 -1.9270
   22DOPE  H13S 2775   7.834   4.825   5.281 -0.4990  0.0425 -0.8268
   22DOPE  C214 2776   7.912   4.625   5.251  0.0259  0.6294 -0.0081
   22DOPE  H14R 2777   7.826   4.557   5.270 -0.6383  1.5968  0.5103
   22DOPE  H14S 2778   8.001   4.570   5.289 -1.1505  0.0193  2.0034
   22DOPE  C215 2779   7.923   4.655   5.102 -0.4281  0.7738  0.1992
   22DOPE  H15R 2780   8.008   4.714   5.062 -2.5733  1.5034 -3.7912
   22DOPE  H15S 2781   7.835   4.716   5.072 -0.1696 -0.8124 -4.6581
   22DOPE  C216 2782   7.932   4.520   5.023 -0.2705  0.3897 -0.3368
   22DOPE  H16R 2783   7.991   4.444   5.079  0.2747  0.2082 -1.1572
   22DOPE  H16S 2784   7.993   4.544   4.934 -1.0182  0.9150 -0.7176
   22DOPE  C217 2785   7.800   4.471   4.975 -0.4598 -0.7975  0.1448
   22DOPE  H17R 2786   7.720   4.450   5.049  0.0274 -0.5510  0.7464
   22DOPE  H17S 2787   7.813   4.380   4.913 -1.8385  0.0416 -1.4668
   22DOPE  C218 2788   7.734   4.571   4.884 -0.0584 -0.2456  0.3592
   22DOPE  H18R 2789   7.665   4.509   4.823  1.4431 -1.7130  0.0671
   22DOPE  H18S 2790   7.810   4.628   4.828  0.1207  2.3613  2.9834
   22DOPE  H18T 2791   7.676   4.650   4.937 -1.6592 -1.3488  0.3068
   22DOPE   C33 2792   7.568   5.245   6.345 -0.0540 -0.6416  0.4608
   22DOPE   H3X 2793   7.678   5.237   6.345  0.1594  1.5735 -0.4770
   22DOPE   H3Y 2794   7.545   5.328   6.275 -0.6399  0.6771  2.1339
   22DOPE   C34 2795   7.507   5.114   6.284  0.8940  0.0691  0.6170
   22DOPE   H4X 2796   7.524   5.042   6.367 -0.7153 -0.2603  0.6853
   22DOPE   H4Y 2797   7.400   5.128   6.256  1.0335  0.9860  0.4951
   22DOPE   C35 2798   7.569   5.053   6.158  0.7651 -0.0274  0.1413
   22DOPE   H5X 2799   7.532   4.951   6.134 -1.2861  0.1557  2.2048
   22DOPE   H5Y 2800   7.678   5.047   6.179  1.1410 -1.1454 -1.8857
   22DOPE   C36 2801   7.533   5.136   6.032  0.0281  0.3442  0.0351
   22DOPE   H6X 2802   7.571   5.241   6.036  1.2262  0.0652 -2.1743
   22DOPE   H6Y 2803   7.422   5.138   6.035  0.0322  2.7694  2.3819
   22DOPE   C37 2804   7.596   5.085   5.893  0.4396  0.0894 -0.6517
   22DOPE   H7X 2805   7.702   5.060   5.912  0.4658  1.6896  1.7163
   22DOPE   H7Y 2806   7.547   4.988   5.870  1.0158 -0.1982 -0.6742
   22DOPE   C38 2807   7.573   5.204   5.796  0.3292 -0.8481  0.0569
   22DOPE   H8X 2808   7.615   5.300   5.834 -0.4856 -0.3446 -0.3003
   22DOPE   H8Y 2809   7.463   5.217   5.790  0.2919 -0.6505  0.9237
   22DOPE   C39 2810   7.631   5.175   5.661 -0.4485 -0.1919 -0.0108
   22DOPE   H9X 2811   7.740   5.162   5.653 -0.1727  1.6237  0.2410
   22DOPE  C310 2812   7.552   5.181   5.546 -0.0182  0.1099  0.2923
   22DOPE  H10X 2813   7.602   5.147   5.454 -0.5891 -1.7160  0.6098
   22DOPE  C311 2814   7.413   5.228   5.531  0.2907  0.3958  0.2635
   22DOPE  H11X 2815   7.351   5.136   5.541  1.2249 -0.3426 -0.5760
   22DOPE  H11Y 2816   7.381   5.306   5.603 -2.1884 -0.6284  0.3808
   22DOPE  C312 2817   7.373   5.289   5.398  0.6435 -0.6583 -0.3091
   22DOPE  H12X 2818   7.265   5.314   5.408  0.4406 -1.6538  0.1493
   22DOPE  H12Y 2819   7.370   5.210   5.320 -0.1601 -0.0020 -0.9642
   22DOPE  C313 2820   7.455   5.411   5.359 -0.3324  1.0983 -0.0015
   22DOPE  H13X 2821   7.425   5.481   5.440 -1.8918 -2.2547  2.5862
   22DOPE  H13Y 2822   7.565   5.395   5.369 -0.8539 -3.4067  0.5685
   22DOPE  C314 2823   7.413   5.470   5.224  0.3714  0.1740  0.2065
   22DOPE  H14X 2824   7.462   5.568   5.209 -0.5926  0.3488 -2.2518
   22DOPE  H14Y 2825   7.302   5.475   5.212  0.3733  0.5887  0.3408
   22DOPE  C315 2826   7.444   5.384   5.093  0.1644  0.1660 -0.5570
   22DOPE  H15X 2827   7.436   5.275   5.110 -0.5439  0.1146 -1.1566
   22DOPE  H15Y 2828   7.551   5.408   5.073  0.2077  0.7737  0.3406
   22DOPE  C316 2829   7.368   5.441   4.974  0.1668 -0.6462  0.9962
   22DOPE  H16X 2830   7.364   5.552   4.970 -0.2084 -0.5659  2.9546
   22DOPE  H16Y 2831   7.261   5.417   4.994 -0.4255 -2.5964 -3.2954
   22DOPE  C317 2832   7.399   5.377   4.844 -0.5292 -0.4623 -0.0456
   22DOPE  H17X 2833   7.501   5.401   4.805 -1.0161  2.3249  0.1906
   22DOPE  H17Y 2834   7.394   5.267   4.859  1.2286 -0.3749  1.6280
   22DOPE  C318 2835   7.310   5.428   4.734 -0.8297 -0.5231  0.3776
   22DOPE  H18X 2836   7.205   5.410   4.765 -1.6630 -0.7493 -2.2492
   22DOPE  H18Y 2837   7.340   5.531   4.705 -0.9712 -0.6313 -0.1807
   22DOPE  H18Z 2838   7.338   5.365   4.647  1.2272  1.1875 -0.2760
   23DOPE     N 2839   2.558   7.669   7.057 -0.4643  0.0863  0.3108
   23DOPE   HN1 2840   2.660   7.664   7.038 -0.6787  0.8356 -1.1677
   23DOPE   HN2 2841   2.518   7.623   6.973  0.0005  0.8183 -0.3244
   23DOPE   HN3 2842   2.539   7.770   7.042  2.5174  0.4619 -1.9355
   23DOPE   C12 2843   2.495   7.598   7.170 -0.0623 -0.5005 -0.0315
   23DOPE  H12A 2844   2.388   7.627   7.166  0.0504 -0.1788 -2.7736
   23DOPE  H12B 2845   2.540   7.632   7.265 -3.3722  0.6309  1.2984
   23DOPE   C11 2846   2.502   7.446   7.150 -0.0693  0.3124  0.9036
   23DOPE  H11A 2847   2.476   7.399   7.248 -2.7717 -2.7353 -1.0712
   23DOPE  H11B 2848   2.607   7.426   7.121  0.5281  1.1354  2.3440
   23DOPE     P 2849   2.417   7.293   6.963  0.1588 -0.2877  0.4610
   23DOPE   O13 2850   2.321   7.310   6.850  0.0053 -0.1327 -0.0287
   23DOPE   O14 2851   2.408   7.168   7.040 -0.1647 -0.0162 -0.4134
   23DOPE   O11 2852   2.568   7.315   6.909  0.4436 -0.3886  0.4223
   23DOPE   O12 2853   2.396   7.405   7.065  0.3586 -0.1614  0.4758
   23DOPE    C1 2854   2.665   7.211   6.939  0.1340 -0.4231 -0.2726
   23DOPE    HA 2855   2.655   7.127   6.866 -1.9228 -0.5716  0.1061
   23DOPE    HB 2856   2.646   7.158   7.035  0.5298  0.1197  0.1072
   23DOPE    C2 2857   2.808   7.272   6.941  0.1833 -0.1553  0.1152
   23DOPE    HS 2858   2.819   7.348   7.021  0.6203  0.5753 -0.6321
   23DOPE   O21 2859   2.825   7.325   6.811  0.4626  0.4209  0.6139
   23DOPE   C21 2860   2.893   7.438   6.809 -0.0619  0.2409  0.5299
   23DOPE   O22 2861   2.954   7.490   6.905 -0.7267  0.6760  0.6433
   23DOPE   C22 2862   2.913   7.473   6.660  0.1451  0.2410  0.1444
   23DOPE   H2R 2863   2.816   7.455   6.608 -0.6637 -0.7997  1.9471
   23DOPE   H2S 2864   2.975   7.394   6.613 -2.2225 -1.2624 -0.6599
   23DOPE    C3 2865   2.910   7.161   6.963 -0.3566  0.8600 -0.5802
   23DOPE    HX 2866   2.880   7.109   7.056  0.6606 -0.1775 -0.8187
   23DOPE    HY 2867   3.010   7.206   6.981  0.9192 -1.5890 -1.1941
   23DOPE   O31 2868   2.914   7.058   6.861 -0.0582 -0.4296  0.3175
   23DOPE   C31 2869   3.016   7.062   6.778  0.2093 -0.5047  0.6775
   23DOPE   O32 2870   3.112   7.132   6.788  0.2328 -0.2440  0.4938
   23DOPE   C32 2871   2.987   6.966   6.669  0.5463  0.1612  0.1900
   23DOPE   H2X 2872   2.969   6.868   6.717 -1.0016 -0.2550 -1.1528
   23DOPE   H2Y 2873   2.892   6.997   6.620  1.1454 -2.6822 -3.1867
   23DOPE   C23 2874   2.970   7.619   6.632 -0.7502 -0.2701 -0.6168
   23DOPE   H3R 2875   3.071   7.643   6.670 -0.3784  0.1792 -1.8386
   23DOPE   H3S 2876   2.909   7.684   6.698  1.9833 -0.7218  2.6044
   23DOPE   C24 2877   2.949   7.671   6.487 -0.1412  1.1743 -0.4693
   23DOPE   H4R 2878   2.843   7.644   6.468 -0.0703  0.5175  0.0075
   23DOPE   H4S 2879   3.017   7.616   6.418  2.8596 -0.8388  3.6303
   23DOPE   C25 2880   2.979   7.824   6.474  0.4417  0.4604 -0.0209
   23DOPE   H5R 2881   2.927   7.861   6.565  0.1858 -2.9941  1.3959
   23DOPE   H5S 2882   2.923   7.866   6.387 -1.8929  1.3784  1.8180
   23DOPE   C26 2883   3.126   7.858   6.475 -0.8163  1.1625 -0.0673
   23DOPE   H6R 2884   3.163   7.830   6.575 -0.1422  3.8531  0.5106
   23DOPE   H6S 2885   3.138   7.967   6.461 -1.4054  1.1153 -1.1075
   23DOPE   C27 2886   3.223   7.792   6.370  0.2909 -0.2685 -0.2758
   23DOPE   H7R 2887   3.228   7.683   6.393  4.9412 -0.4885 -1.2355
   23DOPE   H7S 2888   3.329   7.826   6.373  0.1360  0.4606 -1.9076
   23DOPE   C28 2889   3.188   7.801   6.229  0.7465  0.5149  0.2344
   23DOPE   H8R 2890   3.091   7.753   6.206  0.6472  1.4348 -1.4858
   23DOPE   H8S 2891   3.255   7.744   6.161 -0.6913  1.6253 -2.2893
   23DOPE   C29 2892   3.173   7.946   6.199  0.5681 -0.7796  0.3211
   23DOPE   H9R 2893   3.088   7.994   6.249  0.5087  0.5804 -1.0081
   23DOPE  C210 2894   3.234   8.021   6.108 -0.2025  0.4719  0.7311
   23DOPE  H10R 2895   3.219   8.130   6.105 -1.8955  0.2699  1.0858
   23DOPE  C211 2896   3.351   7.976   6.015 -0.5035 -0.1103 -0.2644
   23DOPE  H11R 2897   3.406   7.891   6.062 -1.8173  0.2085  2.0144
   23DOPE  H11S 2898   3.431   8.054   6.018 -0.1982 -0.4176 -0.3365
   23DOPE  C212 2899   3.301   7.944   5.869 -0.0597  0.0571 -1.2424
   23DOPE  H12R 2900   3.387   7.937   5.800  0.8287 -1.5444 -0.0473
   23DOPE  H12S 2901   3.245   8.027   5.821 -0.2956 -0.1539 -1.3329
   23DOPE  C213 2902   3.231   7.812   5.864  0.3082 -0.6692 -0.5505
   23DOPE  H13R 2903   3.142   7.830   5.928  1.3537 -2.0620  1.3918
   23DOPE  H13S 2904   3.291   7.741   5.924  0.5711  1.1616  1.4717
   23DOPE  C214 2905   3.191   7.756   5.734  0.5568 -0.7042  0.4223
   23DOPE  H14R 2906   3.282   7.753   5.670 -0.4440 -0.8455 -1.0447
   23DOPE  H14S 2907   3.123   7.831   5.688 -0.3230 -1.8800 -0.2403
   23DOPE  C215 2908   3.126   7.622   5.726  0.2351  0.5582 -0.3157
   23DOPE  H15R 2909   3.043   7.618   5.799 -0.0815 -1.1903 -0.7083
   23DOPE  H15S 2910   3.192   7.545   5.771  0.7606  0.4701 -1.2022
   23DOPE  C216 2911   3.085   7.582   5.576 -0.4461 -0.0284 -1.0259
   23DOPE  H16R 2912   3.177   7.586   5.514 -0.4100  0.6162 -0.9402
   23DOPE  H16S 2913   3.011   7.647   5.525 -2.0075 -2.0412 -1.4567
   23DOPE  C217 2914   3.062   7.424   5.559 -0.5420  1.0874  0.6012
   23DOPE  H17R 2915   2.987   7.376   5.625 -0.8511 -1.0315 -1.1758
   23DOPE  H17S 2916   3.162   7.384   5.585 -0.9451 -1.1088 -0.9646
   23DOPE  C218 2917   3.042   7.387   5.412  0.0266  0.3268 -0.8632
   23DOPE  H18R 2918   3.115   7.450   5.355  0.2438  1.3933  0.5290
   23DOPE  H18S 2919   2.938   7.416   5.387  0.0791  1.3223 -0.0048
   23DOPE  H18T 2920   3.063   7.279   5.400 -1.1299 -0.0843  0.5252
   23DOPE   C33 2921   3.090   6.956   6.558 -0.2808 -0.4568  0.4366
   23DOPE   H3X 2922   3.182   6.917   6.606  0.6069 -0.1876 -1.0013
   23DOPE   H3Y 2923   3.109   7.059   6.521  1.7746 -0.8592  0.2807
   23DOPE   C34 2924   3.038   6.868   6.449 -0.0565 -0.0567  0.2327
   23DOPE   H4X 2925   3.041   6.761   6.477 -1.3263  0.2487  1.6405
   23DOPE   H4Y 2926   2.931   6.886   6.425 -0.1892 -0.6489  0.3796
   23DOPE   C35 2927   3.120   6.886   6.323  0.1857 -0.0975 -0.2733
   23DOPE   H5X 2928   3.146   6.993   6.304 -1.8576  0.5428  0.2477
   23DOPE   H5Y 2929   3.042   6.852   6.251 -1.1768 -1.0499  1.5820
   23DOPE   C36 2930   3.233   6.787   6.309  0.5030 -0.1302  0.4729
   23DOPE   H6X 2931   3.213   6.680   6.330  2.3718 -0.7181 -0.4823
   23DOPE   H6Y 2932   3.311   6.822   6.381  0.9486  1.4503 -0.7406
   23DOPE   C37 2933   3.302   6.783   6.165 -0.0063 -0.1609 -0.2480
   23DOPE   H7X 2934   3.322   6.889   6.140 -1.0700  0.3339  0.8567
   23DOPE   H7Y 2935   3.399   6.731   6.179 -0.2732 -0.0750  2.6800
   23DOPE   C38 2936   3.214   6.715   6.063 -0.2828  0.3850 -0.4932
   23DOPE   H8X 2937   3.242   6.748   5.961 -0.5005 -3.4137 -1.9291
   23DOPE   H8Y 2938   3.113   6.761   6.074 -0.0135  1.2114 -1.4449
   23DOPE   C39 2939   3.197   6.563   6.081 -0.3239 -0.7907  0.7814
   23DOPE   H9X 2940   3.153   6.527   6.174 -1.2985 -0.9943  0.2532
   23DOPE  C310 2941   3.265   6.487   5.987 -0.1315 -0.2603  0.2904
   23DOPE  H10X 2942   3.260   6.378   5.989  1.8542 -0.3759  0.8566
   23DOPE  C311 2943   3.353   6.524   5.867  0.2087 -0.4190 -0.2170
   23DOPE  H11X 2944   3.286   6.508   5.780  0.7323  0.3697 -0.7750
   23DOPE  H11Y 2945   3.394   6.627   5.873  0.8866 -0.4640 -2.8224
   23DOPE  C312 2946   3.471   6.426   5.860 -0.1720  0.2504  0.7991
   23DOPE  H12X 2947   3.426   6.326   5.845  0.3222  0.3139 -1.3377
   23DOPE  H12Y 2948   3.526   6.442   5.955 -1.4813 -0.9190  1.7898
   23DOPE  C313 2949   3.571   6.446   5.748  0.3134 -0.8131 -0.1340
   23DOPE  H13X 2950   3.612   6.549   5.751  0.5949 -0.9080  2.8433
   23DOPE  H13Y 2951   3.659   6.378   5.747  0.3243 -1.2941 -6.5614
   23DOPE  C314 2952   3.507   6.407   5.612  0.2068 -0.6654  0.7917
   23DOPE  H14X 2953   3.403   6.448   5.606  0.4648 -0.1830 -1.6276
   23DOPE  H14Y 2954   3.500   6.296   5.600  0.2093 -0.5959  0.0945
   23DOPE  C315 2955   3.588   6.459   5.493 -0.6457 -0.2749  0.0578
   23DOPE  H15X 2956   3.532   6.429   5.401 -3.0386 -0.7419  1.5692
   23DOPE  H15Y 2957   3.685   6.406   5.487  1.2333  3.0366 -1.2878
   23DOPE  C316 2958   3.602   6.613   5.488 -0.7655 -0.3449  0.6215
   23DOPE  H16X 2959   3.652   6.653   5.579 -1.8679  1.1799  0.5960
   23DOPE  H16Y 2960   3.500   6.656   5.488  0.0651  1.7770  1.7345
   23DOPE  C317 2961   3.690   6.644   5.369 -0.0212  0.7064  0.1479
   23DOPE  H17X 2962   3.783   6.583   5.366  0.1229  0.9147  0.3585
   23DOPE  H17Y 2963   3.637   6.602   5.280 -3.0366  0.0168  2.1290
   23DOPE  C318 2964   3.719   6.790   5.358 -0.0265  0.1720 -0.5799
   23DOPE  H18X 2965   3.738   6.835   5.458 -0.7159  1.1570 -0.8778
   23DOPE  H18Y 2966   3.812   6.802   5.298  1.0617 -2.0002  0.5572
   23DOPE  H18Z 2967   3.631   6.848   5.323  0.6529  1.3523 -0.3979
   24DOPE     N 2968   4.957   6.199   7.085  0.0138 -0.4331  0.1752
   24DOPE   HN1 2969   4.877   6.208   7.151 -1.2146 -1.1145 -1.1561
   24DOPE   HN2 2970   4.922   6.131   7.014 -0.5035  1.4493 -1.4453
   24DOPE   HN3 2971   5.039   6.165   7.140 -1.2108 -3.6798  0.2501
   24DOPE   C12 2972   4.990   6.323   7.005 -0.6470 -0.2467 -0.6781
   24DOPE  H12A 2973   4.908   6.394   7.030 -2.5999 -2.0389 -1.6497
   24DOPE  H12B 2974   4.985   6.292   6.899 -0.7236 -1.8957 -0.2218
   24DOPE   C11 2975   5.134   6.378   7.037 -0.4521  0.0339 -0.2039
   24DOPE  H11A 2976   5.145   6.386   7.147  0.4243  0.6313 -0.3265
   24DOPE  H11B 2977   5.132   6.477   6.987  0.0876 -0.8868 -2.1317
   24DOPE     P 2978   5.377   6.335   6.958 -0.1753 -0.0713 -0.3567
   24DOPE   O13 2979   5.438   6.340   7.091 -0.1836  0.0582 -0.4682
   24DOPE   O14 2980   5.369   6.467   6.891 -0.3731 -0.1643 -0.5187
   24DOPE   O11 2981   5.440   6.227   6.868 -0.5229  0.3179  0.2626
   24DOPE   O12 2982   5.225   6.286   6.979 -0.3378 -0.2214 -0.3878
   24DOPE    C1 2983   5.376   6.119   6.806 -0.0024  0.4641 -0.4468
   24DOPE    HA 2984   5.266   6.133   6.814  0.3241  2.5747  1.1506
   24DOPE    HB 2985   5.414   6.028   6.859  1.8579  1.8982  0.8041
   24DOPE    C2 2986   5.417   6.109   6.654  0.2293  0.4491 -0.3897
   24DOPE    HS 2987   5.340   6.042   6.608 -0.7115  0.0033  1.6910
   24DOPE   O21 2988   5.547   6.055   6.636 -0.1393 -0.0724  0.6344
   24DOPE   C21 2989   5.548   5.928   6.660  0.6124 -0.5688 -0.8028
   24DOPE   O22 2990   5.453   5.856   6.684  0.9173  0.0275  0.1097
   24DOPE   C22 2991   5.696   5.875   6.658  0.3716 -0.1325 -0.0187
   24DOPE   H2R 2992   5.695   5.765   6.641 -0.4391 -0.1697  0.2102
   24DOPE   H2S 2993   5.738   5.887   6.760  1.8267 -2.1449 -0.3172
   24DOPE    C3 2994   5.407   6.253   6.593 -0.2347 -0.1781 -0.8609
   24DOPE    HX 2995   5.481   6.314   6.650 -0.7379 -1.6266  1.4912
   24DOPE    HY 2996   5.305   6.290   6.615 -0.1508 -1.3924  1.9531
   24DOPE   O31 2997   5.434   6.250   6.449 -0.2855 -0.4358 -0.2849
   24DOPE   C31 2998   5.476   6.372   6.399 -0.7822  0.6997 -0.3273
   24DOPE   O32 2999   5.482   6.477   6.456  0.1891  0.6089 -0.1381
   24DOPE   C32 3000   5.514   6.351   6.250 -0.8264  0.4122 -0.0048
   24DOPE   H2X 3001   5.621   6.322   6.253 -0.7120  0.8879  1.1761
   24DOPE   H2Y 3002   5.449   6.269   6.212  0.1555 -0.0908 -0.6349
   24DOPE   C23 3003   5.776   5.947   6.551  0.7012 -0.3159 -0.5395
   24DOPE   H3R 3004   5.881   5.910   6.553  0.4323 -1.0927 -0.5644
   24DOPE   H3S 3005   5.787   6.057   6.563  1.8703 -0.3810 -0.8990
   24DOPE   C24 3006   5.725   5.922   6.407 -0.3699 -0.0804  0.1762
   24DOPE   H4R 3007   5.625   5.965   6.384  0.0711  2.0615  1.9575
   24DOPE   H4S 3008   5.729   5.812   6.389  0.8760  0.0747 -0.5564
   24DOPE   C25 3009   5.824   5.970   6.298  0.4395 -0.1124  0.3102
   24DOPE   H5R 3010   5.923   5.920   6.300  0.6639  0.3228  0.2111
   24DOPE   H5S 3011   5.839   6.077   6.323 -0.5522  0.8994 -2.8599
   24DOPE   C26 3012   5.769   5.959   6.156  0.3297  0.1170 -1.0232
   24DOPE   H6R 3013   5.672   6.011   6.144  0.2726  0.7653  1.7402
   24DOPE   H6S 3014   5.759   5.851   6.130 -0.4057 -0.3535  1.0708
   24DOPE   C27 3015   5.864   6.024   6.055 -1.1035 -0.0415  0.1105
   24DOPE   H7R 3016   5.958   5.965   6.061 -2.1002 -1.8269 -0.9571
   24DOPE   H7S 3017   5.883   6.126   6.096 -1.3975  0.6777 -1.4774
   24DOPE   C28 3018   5.807   6.045   5.916 -0.4852  0.6931 -0.7541
   24DOPE   H8R 3019   5.884   6.105   5.863  1.4894 -0.2705  0.8977
   24DOPE   H8S 3020   5.712   6.103   5.913 -1.3083 -0.5666 -0.2820
   24DOPE   C29 3021   5.796   5.912   5.850 -0.2286 -0.4141  0.1592
   24DOPE   H9R 3022   5.850   5.833   5.904 -1.5075 -0.0555  2.0714
   24DOPE  C210 3023   5.698   5.883   5.760  0.1194  0.0500  0.4630
   24DOPE  H10R 3024   5.696   5.784   5.712 -0.8273  0.5526 -0.5624
   24DOPE  C211 3025   5.588   5.976   5.702  0.1199  0.3041 -0.2707
   24DOPE  H11R 3026   5.576   5.957   5.593  0.9120  0.7475 -0.4454
   24DOPE  H11S 3027   5.621   6.080   5.720 -2.2265  0.8686  1.2275
   24DOPE  C212 3028   5.446   5.956   5.764 -0.7499  0.0033  1.0766
   24DOPE  H12R 3029   5.406   5.855   5.741 -1.5006  0.5315 -0.0407
   24DOPE  H12S 3030   5.381   6.032   5.715 -1.1798 -2.2611 -2.2530
   24DOPE  C213 3031   5.449   5.974   5.915  0.1069  0.0912 -0.0728
   24DOPE  H13R 3032   5.492   6.072   5.947 -0.4944  1.1017 -2.2119
   24DOPE  H13S 3033   5.505   5.895   5.969 -1.8289 -0.3661  1.4094
   24DOPE  C214 3034   5.307   5.980   5.966 -0.1704 -0.3064 -0.3730
   24DOPE  H14R 3035   5.262   5.893   5.914  2.9225 -2.1431 -0.1899
   24DOPE  H14S 3036   5.249   6.069   5.931 -1.1265 -0.7495  0.0438
   24DOPE  C215 3037   5.295   5.992   6.124  0.7898  0.1897  0.5608
   24DOPE  H15R 3038   5.184   5.991   6.136  0.7334 -0.0841  0.0787
   24DOPE  H15S 3039   5.331   6.088   6.167  1.2121  0.0342  0.5549
   24DOPE  C216 3040   5.366   5.886   6.206 -0.5021 -0.3089 -0.6890
   24DOPE  H16R 3041   5.475   5.897   6.191 -0.6395  0.2963 -1.2980
   24DOPE  H16S 3042   5.333   5.781   6.187 -0.7173 -0.5420  0.8203
   24DOPE  C217 3043   5.341   5.900   6.362 -0.4423  0.2636  0.0939
   24DOPE  H17R 3044   5.326   6.009   6.382  1.3143  0.6761 -0.6114
   24DOPE  H17S 3045   5.436   5.871   6.410 -2.0156 -0.3687  3.0482
   24DOPE  C218 3046   5.222   5.809   6.398 -0.7129 -0.5663 -0.6269
   24DOPE  H18R 3047   5.149   5.817   6.314 -1.6426 -1.2044  0.0997
   24DOPE  H18S 3048   5.166   5.848   6.486 -1.1301  0.9189 -1.5166
   24DOPE  H18T 3049   5.252   5.704   6.419 -3.1310 -0.7750  2.6272
   24DOPE   C33 3050   5.505   6.485   6.177 -0.2306 -0.4454 -0.1031
   24DOPE   H3X 3051   5.573   6.551   6.235  1.5745 -1.1871 -1.2817
   24DOPE   H3Y 3052   5.404   6.532   6.182  0.4678  1.0975 -0.1416
   24DOPE   C34 3053   5.559   6.476   6.028 -0.3888  0.3331 -0.0074
   24DOPE   H4X 3054   5.609   6.575   6.015  1.2024 -0.1619  1.9039
   24DOPE   H4Y 3055   5.635   6.395   6.026  1.0608  1.6281  0.6407
   24DOPE   C35 3056   5.453   6.470   5.918  1.2696 -0.2882 -0.2391
   24DOPE   H5X 3057   5.375   6.547   5.935  0.3300 -1.3480  0.4056
   24DOPE   H5Y 3058   5.401   6.371   5.915  0.6511  0.0266 -0.1639
   24DOPE   C36 3059   5.518   6.488   5.785 -0.6739 -0.5607 -0.0821
   24DOPE   H6X 3060   5.611   6.428   5.780 -0.1051  0.3899 -1.3361
   24DOPE   H6Y 3061   5.544   6.596   5.773 -1.6130 -0.3114  0.0829
   24DOPE   C37 3062   5.410   6.446   5.677  0.5353 -0.1569 -0.3873
   24DOPE   H7X 3063   5.393   6.337   5.687 -1.7097  0.2757  1.2079
   24DOPE   H7Y 3064   5.313   6.498   5.692 -0.3624 -2.3468  2.1607
   24DOPE   C38 3065   5.457   6.470   5.532  0.0992  0.0479  0.3024
   24DOPE   H8X 3066   5.555   6.417   5.527  0.8438  1.2592  1.3363
   24DOPE   H8Y 3067   5.469   6.578   5.510 -2.5229 -0.0291 -2.0706
   24DOPE   C39 3068   5.349   6.416   5.448  0.1351  0.0114  0.3212
   24DOPE   H9X 3069   5.245   6.425   5.481 -0.2425 -1.5420 -0.3335
   24DOPE  C310 3070   5.364   6.361   5.326 -0.3459 -0.3767  0.0118
   24DOPE  H10X 3071   5.278   6.321   5.270 -1.1939  2.1290 -0.5839
   24DOPE  C311 3072   5.500   6.333   5.263  0.1502  0.1232  0.4119
   24DOPE  H11X 3073   5.582   6.327   5.339 -1.4163 -0.5508  2.1298
   24DOPE  H11Y 3074   5.499   6.231   5.219 -1.4115 -0.8376  2.4871
   24DOPE  C312 3075   5.530   6.415   5.140  0.1061 -0.2837  0.3882
   24DOPE  H12X 3076   5.539   6.524   5.155  0.8023  0.0044 -1.7194
   24DOPE  H12Y 3077   5.447   6.400   5.067 -0.1373  0.2184  0.5595
   24DOPE  C313 3078   5.660   6.374   5.062 -0.3475  0.1834 -0.0447
   24DOPE  H13X 3079   5.736   6.344   5.136 -1.2081  0.4516  0.9690
   24DOPE  H13Y 3080   5.629   6.280   5.010 -0.6547 -0.8656  1.9511
   24DOPE  C314 3081   5.712   6.483   4.972 -0.0993 -0.5248  0.2486
   24DOPE  H14X 3082   5.713   6.578   5.029 -1.3362 -0.0338 -0.5241
   24DOPE  H14Y 3083   5.640   6.510   4.893  0.4148 -1.8825 -0.7234
   24DOPE  C315 3084   5.840   6.448   4.898  0.0453  0.0552 -0.1272
   24DOPE  H15X 3085   5.878   6.539   4.847  0.6827 -1.1241 -1.8720
   24DOPE  H15Y 3086   5.814   6.380   4.814 -0.3429  0.0089  0.0297
   24DOPE  C316 3087   5.971   6.396   4.969  0.5364 -0.0940  0.1626
   24DOPE  H16X 3088   5.949   6.300   5.020 -1.0417  0.3141  0.3054
   24DOPE  H16Y 3089   5.988   6.474   5.045 -1.1776  0.2682  0.2183
   24DOPE  C317 3090   6.096   6.365   4.885  1.0243 -0.4204  0.5842
   24DOPE  H17X 3091   6.070   6.297   4.801  1.3767  0.1583 -0.0095
   24DOPE  H17Y 3092   6.134   6.451   4.826 -0.2673 -0.5185 -0.4474
   24DOPE  C318 3093   6.209   6.308   4.963 -0.2078 -0.5222 -0.7103
   24DOPE  H18X 3094   6.232   6.367   5.055 -2.6777  0.9917 -0.9849
   24DOPE  H18Y 3095   6.193   6.200   4.982  0.7432 -0.7511 -1.1141
   24DOPE  H18Z 3096   6.300   6.305   4.900  0.1259 -2.1808 -0.2008
   25DOPE     N 3097   7.378   6.294   7.254 -0.2038  0.0566  0.6568
   25DOPE   HN1 3098   7.295   6.332   7.305 -2.4308 -2.6776 -0.6846
   25DOPE   HN2 3099   7.445   6.274   7.331 -1.8270  0.2662  2.2085
   25DOPE   HN3 3100   7.414   6.362   7.185 -1.1139  1.1101  1.1804
   25DOPE   C12 3101   7.332   6.164   7.193 -0.6805 -0.7274  0.0916
   25DOPE  H12A 3102   7.296   6.098   7.274 -0.4801 -1.1876 -0.1893
   25DOPE  H12B 3103   7.422   6.122   7.143  1.1839  1.3789  1.4839
   25DOPE   C11 3104   7.221   6.189   7.099 -0.2843  0.1301  0.5492
   25DOPE  H11A 3105   7.200   6.088   7.057  1.0026  0.5602 -1.2814
   25DOPE  H11B 3106   7.250   6.246   7.008  0.1188 -0.3192  0.3886
   25DOPE     P 3107   6.993   6.153   7.220 -0.1585  0.0531  0.0500
   25DOPE   O13 3108   6.882   6.243   7.251 -0.0966  0.1066 -0.0147
   25DOPE   O14 3109   7.046   6.069   7.331 -0.5141  0.5431  0.2551
   25DOPE   O11 3110   6.948   6.062   7.102  0.0500  0.4011  0.1047
   25DOPE   O12 3111   7.110   6.253   7.159 -0.0764  0.0492  0.6584
   25DOPE    C1 3112   6.917   6.134   6.975 -0.2661  0.4975 -0.1299
   25DOPE    HA 3113   6.996   6.201   6.935  0.7623 -1.7228 -2.1054
   25DOPE    HB 3114   6.821   6.189   6.982 -0.0778  0.8128 -0.0156
   25DOPE    C2 3115   6.894   6.035   6.852  0.9878  0.5702 -0.2004
   25DOPE    HS 3116   6.861   6.088   6.760  3.1553 -0.3668 -1.6000
   25DOPE   O21 3117   6.796   5.932   6.891  0.0742  0.5801 -0.0016
   25DOPE   C21 3118   6.675   5.973   6.889  0.8196 -0.6904 -0.6628
   25DOPE   O22 3119   6.634   6.086   6.860 -0.3739  0.1666 -0.0502
   25DOPE   C22 3120   6.570   5.860   6.922 -0.0855 -0.2562  0.5666
   25DOPE   H2R 3121   6.504   5.894   7.005  1.7440  0.3382  1.8159
   25DOPE   H2S 3122   6.611   5.766   6.963  1.0865  0.0584  0.1336
   25DOPE    C3 3123   7.028   5.962   6.826 -0.6857 -0.2618  0.0720
   25DOPE    HX 3124   7.035   5.864   6.879  0.6077  1.2326  2.9030
   25DOPE    HY 3125   7.111   6.020   6.872 -1.0678  2.1989 -2.1587
   25DOPE   O31 3126   7.054   5.951   6.687 -0.3588 -0.7036 -0.4143
   25DOPE   C31 3127   7.004   5.845   6.622  0.9507 -0.9377 -0.5162
   25DOPE   O32 3128   6.932   5.759   6.675 -0.0777 -0.2471  0.2945
   25DOPE   C32 3129   7.037   5.847   6.477 -0.5829  0.5733 -0.0695
   25DOPE   H2X 3130   7.142   5.882   6.463 -0.7415  1.2944  0.4824
   25DOPE   H2Y 3131   7.029   5.740   6.450 -0.9077  0.6487 -0.2742
   25DOPE   C23 3132   6.475   5.831   6.806  0.4886 -1.0077  0.3731
   25DOPE   H3R 3133   6.454   5.922   6.746 -1.2832 -1.9335 -0.5159
   25DOPE   H3S 3134   6.379   5.785   6.840  0.1993  0.1406  1.1576
   25DOPE   C24 3135   6.541   5.740   6.696 -0.8098 -0.0011  0.4358
   25DOPE   H4R 3136   6.567   5.647   6.751 -0.0163 -0.2587 -0.3516
   25DOPE   H4S 3137   6.634   5.797   6.672 -0.6026 -0.2863  0.5617
   25DOPE   C25 3138   6.459   5.722   6.565  0.2457  0.4874 -0.7949
   25DOPE   H5R 3139   6.463   5.819   6.511  0.5512  1.2647  0.5773
   25DOPE   H5S 3140   6.353   5.690   6.577  0.7957 -0.6748  1.6532
   25DOPE   C26 3141   6.527   5.618   6.474  0.2104 -0.3559  0.3843
   25DOPE   H6R 3142   6.570   5.533   6.532  1.2710 -1.4905 -1.9434
   25DOPE   H6S 3143   6.612   5.681   6.438  1.4935 -0.2451  3.3050
   25DOPE   C27 3144   6.440   5.582   6.358 -0.3439 -1.0309  0.2698
   25DOPE   H7R 3145   6.369   5.667   6.346  1.4373  0.3139 -1.3605
   25DOPE   H7S 3146   6.378   5.492   6.378 -1.5221 -0.3852 -0.3628
   25DOPE   C28 3147   6.510   5.574   6.223 -0.4675 -0.1237 -0.8087
   25DOPE   H8R 3148   6.535   5.671   6.175 -2.4939  1.2585  0.7525
   25DOPE   H8S 3149   6.437   5.535   6.150  1.0505 -0.4108 -2.2416
   25DOPE   C29 3150   6.630   5.476   6.229 -0.0753 -0.4346  1.2691
   25DOPE   H9R 3151   6.636   5.422   6.325  1.3899 -1.5711  0.5678
   25DOPE  C210 3152   6.719   5.447   6.132  0.1366  0.4265  0.1315
   25DOPE  H10R 3153   6.791   5.364   6.138 -0.5701 -0.2285 -0.2711
   25DOPE  C211 3154   6.716   5.500   5.993  0.0262  0.4574  0.5297
   25DOPE  H11R 3155   6.664   5.597   5.976 -0.2284  0.1744 -0.4103
   25DOPE  H11S 3156   6.655   5.424   5.939  2.1490 -0.8806 -0.1298
   25DOPE  C212 3157   6.857   5.516   5.930  0.9662  0.1144 -0.0561
   25DOPE  H12R 3158   6.909   5.417   5.927  2.1464  0.7241 -2.5799
   25DOPE  H12S 3159   6.914   5.588   5.993  1.0787 -0.3669  0.4030
   25DOPE  C213 3160   6.850   5.566   5.789  0.0096 -0.3286 -0.0498
   25DOPE  H13R 3161   6.953   5.573   5.748 -0.4419 -0.4766 -1.2589
   25DOPE  H13S 3162   6.801   5.665   5.798  2.4275  0.9144  0.3620
   25DOPE  C214 3163   6.777   5.475   5.693  0.3864  0.4651 -0.1203
   25DOPE  H14R 3164   6.675   5.479   5.737  1.3682  1.7131  2.2143
   25DOPE  H14S 3165   6.816   5.371   5.696  0.5867  0.4959 -1.2241
   25DOPE  C215 3166   6.775   5.522   5.546 -0.4549 -0.3145  0.2509
   25DOPE  H15R 3167   6.748   5.437   5.479 -1.3524  0.4211 -0.3413
   25DOPE  H15S 3168   6.878   5.558   5.525 -0.5107  0.0400  0.5612
   25DOPE  C216 3169   6.672   5.627   5.519 -0.2306  0.3281 -0.5804
   25DOPE  H16R 3170   6.683   5.710   5.593 -1.6303  1.1080 -1.2149
   25DOPE  H16S 3171   6.574   5.579   5.537 -0.6578  0.7483 -1.7624
   25DOPE  C217 3172   6.673   5.674   5.371 -0.3446  0.1096 -0.4843
   25DOPE  H17R 3173   6.637   5.581   5.323 -1.2829  0.3767 -0.3073
   25DOPE  H17S 3174   6.776   5.691   5.333 -0.1260  0.5362  0.2649
   25DOPE  C218 3175   6.579   5.788   5.339 -0.2109 -0.4760  0.0473
   25DOPE  H18R 3176   6.578   5.872   5.412 -0.7769 -2.1365  2.0803
   25DOPE  H18S 3177   6.479   5.739   5.327 -0.2992  0.1694 -2.2021
   25DOPE  H18T 3178   6.608   5.841   5.246  3.9905  0.1807  1.5183
   25DOPE   C33 3179   6.942   5.936   6.393 -0.2857 -0.8735  0.8019
   25DOPE   H3X 3180   6.955   6.042   6.426  1.4716 -0.4144 -1.1445
   25DOPE   H3Y 3181   6.837   5.901   6.400 -0.2560 -1.3462 -0.8233
   25DOPE   C34 3182   6.970   5.951   6.244 -0.3684  0.7190 -0.3406
   25DOPE   H4X 3183   6.919   6.048   6.225 -2.1855  0.2886  1.7780
   25DOPE   H4Y 3184   7.077   5.962   6.219 -0.3198  0.8602 -0.0767
   25DOPE   C35 3185   6.912   5.845   6.154  1.2375  0.0019  0.0104
   25DOPE   H5X 3186   6.802   5.844   6.171  1.4415  1.6238  1.6964
   25DOPE   H5Y 3187   6.947   5.742   6.180 -0.6243 -1.2656 -2.1198
   25DOPE   C36 3188   6.947   5.880   6.007  0.1095  1.0080 -0.6267
   25DOPE   H6X 3189   6.895   5.809   5.939 -1.0339  0.8021  0.4290
   25DOPE   H6Y 3190   7.055   5.866   5.985 -0.1070  0.4265 -1.3925
   25DOPE   C37 3191   6.898   6.018   5.959  0.0246 -0.2149  0.5875
   25DOPE   H7X 3192   6.790   6.033   5.979 -0.4149 -2.2045 -0.0657
   25DOPE   H7Y 3193   6.953   6.092   6.021  1.0536 -0.1405 -0.3873
   25DOPE   C38 3194   6.925   6.042   5.810 -0.0149  0.4905 -0.1618
   25DOPE   H8X 3195   6.883   6.142   5.784 -0.2706  0.5958  0.6250
   25DOPE   H8Y 3196   6.866   5.963   5.760  1.9272 -0.1106 -1.6578
   25DOPE   C39 3197   7.070   6.036   5.770  0.1878 -0.1562 -0.5545
   25DOPE   H9X 3198   7.137   6.096   5.832  0.1590 -0.9129  0.2251
   25DOPE  C310 3199   7.126   5.953   5.678  0.6417  0.6219  0.3774
   25DOPE  H10X 3200   7.236   5.950   5.673  0.6042  0.0164 -0.1713
   25DOPE  C311 3201   7.062   5.868   5.571 -0.5510 -0.4824  0.5567
   25DOPE  H11X 3202   7.059   5.760   5.598  1.3234 -0.5460  0.6942
   25DOPE  H11Y 3203   6.957   5.901   5.555  0.1491  1.6120 -0.0786
   25DOPE  C312 3204   7.145   5.870   5.443 -0.0786  0.2961  0.0257
   25DOPE  H12X 3205   7.252   5.852   5.467 -0.3009 -3.3172 -1.1327
   25DOPE  H12Y 3206   7.124   5.960   5.382  0.3211  0.3785  0.0054
   25DOPE  C313 3207   7.123   5.749   5.351 -0.2385 -0.3892  0.2188
   25DOPE  H13X 3208   7.151   5.656   5.405 -3.8197 -0.4641  2.2832
   25DOPE  H13Y 3209   7.014   5.739   5.340 -0.1278  0.1209 -1.5888
   25DOPE  C314 3210   7.185   5.774   5.209 -0.0741  0.0765  0.0720
   25DOPE  H14X 3211   7.170   5.684   5.145  4.5469  0.9678 -2.7289
   25DOPE  H14Y 3212   7.295   5.786   5.216  0.0576 -0.7130 -0.4890
   25DOPE  C315 3213   7.123   5.895   5.134 -0.2072  0.3978  0.0303
   25DOPE  H15X 3214   7.160   5.996   5.162 -4.1039  2.6900 -2.2168
   25DOPE  H15Y 3215   7.016   5.896   5.166 -0.2870 -0.0648 -0.2258
   25DOPE  C316 3216   7.138   5.882   4.982  0.6018  0.1389  0.2449
   25DOPE  H16X 3217   7.088   5.972   4.940  1.1267  0.6551  0.7072
   25DOPE  H16Y 3218   7.080   5.793   4.951 -2.5539  1.9071  0.7018
   25DOPE  C317 3219   7.280   5.899   4.942  0.4500 -0.0834 -0.2932
   25DOPE  H17X 3220   7.322   5.991   4.987 -2.7582  1.0288  0.7036
   25DOPE  H17Y 3221   7.349   5.820   4.978  0.0860 -0.6022 -0.7043
   25DOPE  C318 3222   7.295   5.905   4.789  0.9349 -0.0779 -0.4423
   25DOPE  H18X 3223   7.229   5.824   4.752  0.3027  1.3790 -2.7083
   25DOPE  H18Y 3224   7.258   6.004   4.753 -0.9224  0.3809  2.4163
   25DOPE  H18Z 3225   7.402   5.900   4.757  0.5755  0.5847 -1.8196
   26DOPE     N 3226   1.523   6.269   7.350 -0.0285 -0.3462 -0.1831
   26DOPE   HN1 3227   1.467   6.181   7.359 -3.5899  1.8353  1.2869
   26DOPE   HN2 3228   1.539   6.286   7.249  4.0382 -0.5770  0.2562
   26DOPE   HN3 3229   1.619   6.259   7.388  0.5190  2.1380 -0.8068
   26DOPE   C12 3230   1.442   6.387   7.399 -0.5069 -0.6179  0.1722
   26DOPE  H12A 3231   1.476   6.476   7.341  2.3505 -0.5128  1.8293
   26DOPE  H12B 3232   1.474   6.416   7.502  2.0936 -1.7942 -0.2270
   26DOPE   C11 3233   1.296   6.373   7.391 -0.2911  0.4310 -0.5482
   26DOPE  H11A 3234   1.256   6.471   7.426  1.0904  1.7230 -2.4000
   26DOPE  H11B 3235   1.247   6.293   7.450 -4.7907  1.6075 -2.2700
   26DOPE     P 3236   1.249   6.442   7.136  0.0730 -0.5465  0.0624
   26DOPE   O13 3237   1.272   6.365   7.016  0.6201  0.1665 -0.3347
   26DOPE   O14 3238   1.341   6.556   7.166 -0.3246  0.2266  0.3957
   26DOPE   O11 3239   1.106   6.490   7.148  0.1092 -0.7229  0.0158
   26DOPE   O12 3240   1.255   6.344   7.256 -0.0347  0.1175  0.5285
   26DOPE    C1 3241   1.059   6.607   7.088 -0.0551 -0.1350 -0.5577
   26DOPE    HA 3242   1.103   6.629   6.989  0.4103 -1.4620 -0.6559
   26DOPE    HB 3243   1.080   6.695   7.154  1.2347 -0.1622 -0.8937
   26DOPE    C2 3244   0.902   6.615   7.066 -0.4850  0.2034 -0.5450
   26DOPE    HS 3245   0.853   6.639   7.162 -0.6111  2.6876 -1.1611
   26DOPE   O21 3246   0.856   6.485   7.024 -0.0194  0.3372 -0.2836
   26DOPE   C21 3247   0.729   6.464   7.053 -0.0383  0.2928 -0.0459
   26DOPE   O22 3248   0.655   6.547   7.109  0.2377  0.4524  0.1440
   26DOPE   C22 3249   0.686   6.324   7.003 -0.1339  0.4220 -0.3092
   26DOPE   H2R 3250   0.579   6.337   6.977  0.4261 -0.1203 -3.2294
   26DOPE   H2S 3251   0.689   6.250   7.086  1.3157 -0.8282 -1.4091
   26DOPE    C3 3252   0.859   6.719   6.970  0.4441 -0.5518  0.3441
   26DOPE    HX 3253   0.915   6.812   6.995  0.0023 -0.8188  2.6172
   26DOPE    HY 3254   0.750   6.732   6.990  0.6970  0.1846  1.3299
   26DOPE   O31 3255   0.892   6.684   6.833 -0.3838  0.3053 -0.0128
   26DOPE   C31 3256   0.873   6.773   6.745 -0.1367 -0.1993  0.0433
   26DOPE   O32 3257   0.843   6.888   6.773  0.0494  0.0957 -0.4670
   26DOPE   C32 3258   0.902   6.710   6.608  0.5740  0.0802 -0.5281
   26DOPE   H2X 3259   1.012   6.716   6.589  1.0151 -1.7314  1.1712
   26DOPE   H2Y 3260   0.874   6.603   6.611  0.7830  0.0507  1.4238
   26DOPE   C23 3261   0.766   6.259   6.884  0.2438 -0.1021  0.2105
   26DOPE   H3R 3262   0.739   6.152   6.896  3.7406 -1.0713  0.5717
   26DOPE   H3S 3263   0.877   6.263   6.887  0.2644  1.8670 -1.2112
   26DOPE   C24 3264   0.723   6.295   6.736  0.0057  0.2289 -0.4532
   26DOPE   H4R 3265   0.749   6.402   6.722 -2.0603  0.6924 -1.1316
   26DOPE   H4S 3266   0.612   6.293   6.728 -0.0256 -0.8958  0.0223
   26DOPE   C25 3267   0.780   6.210   6.622 -0.0420 -0.3966  0.7053
   26DOPE   H5R 3268   0.747   6.105   6.617 -1.4973  0.0739  0.0441
   26DOPE   H5S 3269   0.888   6.202   6.649 -0.0194 -2.4687  0.1200
   26DOPE   C26 3270   0.740   6.265   6.485 -1.4003  0.2970 -0.0039
   26DOPE   H6R 3271   0.770   6.371   6.480  0.0982 -0.1350 -0.6417
   26DOPE   H6S 3272   0.630   6.260   6.468 -1.6293  1.4280  1.0556
   26DOPE   C27 3273   0.802   6.176   6.380  0.3788  0.1265  0.1458
   26DOPE   H7R 3274   0.765   6.072   6.369  0.6494 -0.2381  2.1446
   26DOPE   H7S 3275   0.911   6.174   6.402  0.2141 -0.0666  1.0066
   26DOPE   C28 3276   0.789   6.251   6.243 -0.0605 -0.2593 -0.4341
   26DOPE   H8R 3277   0.853   6.342   6.248  0.3719 -0.5549 -0.4816
   26DOPE   H8S 3278   0.689   6.292   6.219  0.6904  1.4715 -0.7726
   26DOPE   C29 3279   0.838   6.185   6.113  0.7550 -0.1621  0.1772
   26DOPE   H9R 3280   0.759   6.135   6.055 -1.5649  3.0373  0.3052
   26DOPE  C210 3281   0.958   6.183   6.059  0.1051 -0.0193  0.4764
   26DOPE  H10R 3282   0.982   6.118   5.973 -1.7378 -0.8697  0.5694
   26DOPE  C211 3283   1.081   6.252   6.113  0.1669 -0.3224  0.2167
   26DOPE  H11R 3284   1.083   6.259   6.224 -0.5463  3.9463  0.1202
   26DOPE  H11S 3285   1.102   6.353   6.073  0.9893 -0.0334  1.3287
   26DOPE  C212 3286   1.212   6.175   6.074  0.3116  0.1878  0.3935
   26DOPE  H12R 3287   1.293   6.223   6.133  0.6476  0.5995 -0.3880
   26DOPE  H12S 3288   1.229   6.182   5.965 -0.4072 -1.6295  0.1217
   26DOPE  C213 3289   1.210   6.029   6.120  0.6518 -0.4806 -0.7411
   26DOPE  H13R 3290   1.135   5.968   6.065  0.8788 -0.1177 -1.4781
   26DOPE  H13S 3291   1.186   6.018   6.228 -1.0677  1.5015 -0.8678
   26DOPE  C214 3292   1.356   5.984   6.108 -0.5333 -0.1526  0.7868
   26DOPE  H14R 3293   1.426   6.055   6.157  1.0601 -0.7873 -0.4675
   26DOPE  H14S 3294   1.386   5.995   6.002  0.7245 -1.4351  0.9811
   26DOPE  C215 3295   1.390   5.845   6.155 -0.1773 -0.3060 -0.4697
   26DOPE  H15R 3296   1.482   5.815   6.101 -0.6789 -1.2583 -0.8153
   26DOPE  H15S 3297   1.318   5.764   6.129 -2.0581  0.6149  1.5457
   26DOPE  C216 3298   1.402   5.834   6.308  0.4087 -0.3385 -0.1035
   26DOPE  H16R 3299   1.309   5.867   6.359  0.2113  0.8378 -1.1842
   26DOPE  H16S 3300   1.490   5.894   6.340 -1.0539  1.1486  1.2576
   26DOPE  C217 3301   1.440   5.692   6.351  0.1752  0.0020  0.7043
   26DOPE  H17R 3302   1.538   5.666   6.307 -0.1405 -2.0347  1.0861
   26DOPE  H17S 3303   1.367   5.618   6.310 -2.0128  1.6963  1.3374
   26DOPE  C218 3304   1.457   5.667   6.501 -0.0382  0.0529 -0.2755
   26DOPE  H18R 3305   1.487   5.560   6.511  0.1356 -0.0203 -1.3979
   26DOPE  H18S 3306   1.367   5.684   6.565  0.1464 -2.5703  0.8169
   26DOPE  H18T 3307   1.548   5.721   6.535 -1.2417  1.3593  1.0210
   26DOPE   C33 3308   0.830   6.767   6.481  0.0317 -0.0992 -0.2670
   26DOPE   H3X 3309   0.809   6.876   6.486  0.9505  0.0609  0.2672
   26DOPE   H3Y 3310   0.734   6.711   6.472 -0.8774  1.0923  1.4369
   26DOPE   C34 3311   0.917   6.760   6.348  0.8031 -0.1232 -1.0617
   26DOPE   H4X 3312   1.012   6.817   6.355  1.6804 -1.5415 -1.2399
   26DOPE   H4Y 3313   0.947   6.655   6.333  0.5878 -0.1344 -1.4259
   26DOPE   C35 3314   0.828   6.791   6.236  0.1286 -0.0075  0.0104
   26DOPE   H5X 3315   0.820   6.902   6.234  1.0912  0.0683 -0.8602
   26DOPE   H5Y 3316   0.729   6.751   6.264  0.7827 -2.1556 -0.5346
   26DOPE   C36 3317   0.866   6.741   6.098 -0.6632 -0.7314  0.4049
   26DOPE   H6X 3318   0.886   6.632   6.097 -0.6737 -0.7361  0.7414
   26DOPE   H6Y 3319   0.961   6.789   6.066 -1.8987  1.2425 -0.4829
   26DOPE   C37 3320   0.770   6.767   5.989  0.7575 -0.5644  0.3253
   26DOPE   H7X 3321   0.675   6.731   6.035  2.0191 -0.1008  3.5701
   26DOPE   H7Y 3322   0.763   6.877   5.971 -0.4695 -0.8122 -0.9648
   26DOPE   C38 3323   0.799   6.707   5.848 -0.3045 -0.8284  0.5537
   26DOPE   H8X 3324   0.892   6.755   5.811  0.1118 -0.0462  2.4861
   26DOPE   H8Y 3325   0.712   6.747   5.792  1.3401  3.2965  0.6217
   26DOPE   C39 3326   0.808   6.561   5.840  0.1757  0.5899  0.0064
   26DOPE   H9X 3327   0.839   6.512   5.933 -1.7319  0.6427  0.7136
   26DOPE  C310 3328   0.754   6.494   5.735 -0.4746  0.0051 -0.0234
   26DOPE  H10X 3329   0.743   6.385   5.737  1.0078 -0.1434  1.3729
   26DOPE  C311 3330   0.690   6.555   5.608  0.3752  0.5768 -0.0440
   26DOPE  H11X 3331   0.589   6.514   5.589 -0.4813  1.0623  3.0487
   26DOPE  H11Y 3332   0.671   6.664   5.620  2.3084  0.8832  0.7431
   26DOPE  C312 3333   0.761   6.539   5.470  0.3487 -0.2340 -0.0643
   26DOPE  H12X 3334   0.786   6.436   5.438  1.4042  0.4360 -1.5578
   26DOPE  H12Y 3335   0.846   6.611   5.478 -0.1279  0.4721 -1.1349
   26DOPE  C313 3336   0.678   6.591   5.354 -0.7196 -0.4126  0.1675
   26DOPE  H13X 3337   0.581   6.630   5.391 -0.6632 -0.5667  0.4814
   26DOPE  H13Y 3338   0.731   6.683   5.322  0.3486 -0.9119  0.4726
   26DOPE  C314 3339   0.651   6.477   5.250  1.1991 -0.0781 -0.0890
   26DOPE  H14X 3340   0.566   6.417   5.289  2.7886 -1.2264  1.8244
   26DOPE  H14Y 3341   0.736   6.410   5.227 -0.6207 -1.9405 -1.7835
   26DOPE  C315 3342   0.613   6.537   5.114  0.0120 -0.4306  0.3901
   26DOPE  H15X 3343   0.695   6.599   5.071 -1.0418 -0.3008 -1.5460
   26DOPE  H15Y 3344   0.526   6.604   5.129 -0.5538 -1.5735  2.7273
   26DOPE  C316 3345   0.576   6.431   5.004  0.4840 -0.4660  0.2446
   26DOPE  H16X 3346   0.542   6.492   4.918 -0.4344 -0.4562  0.6001
   26DOPE  H16Y 3347   0.492   6.367   5.039  1.0587 -1.5111 -0.2496
   26DOPE  C317 3348   0.690   6.343   4.962  0.0733  0.3885 -0.0003
   26DOPE  H17X 3349   0.779   6.403   4.931  0.7621 -0.6423 -0.0671
   26DOPE  H17Y 3350   0.723   6.281   5.047  0.2244  0.8500  0.2819
   26DOPE  C318 3351   0.652   6.243   4.851 -0.2503 -0.1225  0.1122
   26DOPE  H18X 3352   0.560   6.187   4.878  0.8704 -2.1847 -0.1043
   26DOPE  H18Y 3353   0.625   6.292   4.755  0.9971  2.8598  1.1847
   26DOPE  H18Z 3354   0.736   6.172   4.831  0.7381  1.7489 -3.0180
   27DOPE     N 3355   5.423   0.573   6.693 -0.0079  0.3366  0.1760
   27DOPE   HN1 3356   5.375   0.631   6.765 -0.8093 -1.3249  1.0247
   27DOPE   HN2 3357   5.503   0.529   6.741  0.4046  1.9269  1.0242
   27DOPE   HN3 3358   5.453   0.643   6.622 -1.4388  3.4139  2.3906
   27DOPE   C12 3359   5.318   0.467   6.655 -0.0889  0.4622  0.1538
   27DOPE  H12A 3360   5.227   0.521   6.621  0.1718  0.4878 -0.5063
   27DOPE  H12B 3361   5.293   0.411   6.748  0.6840 -1.3511 -0.6829
   27DOPE   C11 3362   5.379   0.372   6.553 -1.0295 -0.1126 -0.2844
   27DOPE  H11A 3363   5.404   0.439   6.468 -0.0275 -0.9062 -0.6435
   27DOPE  H11B 3364   5.321   0.285   6.515 -0.5821 -0.0506 -1.1300
   27DOPE     P 3365   5.627   0.275   6.534  0.2881  0.2734 -0.0927
   27DOPE   O13 3366   5.706   0.194   6.632  0.7205 -0.2938 -0.0387
   27DOPE   O14 3367   5.691   0.396   6.472  0.6526  0.3687  0.0557
   27DOPE   O11 3368   5.562   0.177   6.431 -0.4778 -0.4023 -1.3150
   27DOPE   O12 3369   5.497   0.323   6.614  0.2352  0.1597 -0.0503
   27DOPE    C1 3370   5.547   0.040   6.456  0.1923  0.3125 -0.2177
   27DOPE    HA 3371   5.465   0.028   6.529 -1.1124  0.8685 -1.5372
   27DOPE    HB 3372   5.630  -0.016   6.503 -1.0727 -0.0641  1.6660
   27DOPE    C2 3373   5.502  -0.041   6.331  0.3461 -0.0022  0.1173
   27DOPE    HS 3374   5.511  -0.149   6.353  1.5060 -0.0500 -0.5399
   27DOPE   O21 3375   5.586  -0.011   6.218  0.5844  0.0065 -0.4995
   27DOPE   C21 3376   5.719  -0.037   6.237  0.5762 -0.4426  0.1060
   27DOPE   O22 3377   5.767  -0.105   6.324 -0.1072  0.4107 -0.1981
   27DOPE   C22 3378   5.794   0.017   6.119  0.4202 -0.4833 -0.3550
   27DOPE   H2R 3379   5.792   0.127   6.137 -2.4599 -0.3304 -1.0648
   27DOPE   H2S 3380   5.722   0.005   6.035 -1.3700 -1.1708  1.2059
   27DOPE    C3 3381   5.352  -0.017   6.300  0.4015 -0.3527  0.1909
   27DOPE    HX 3382   5.351   0.093   6.281 -1.7949 -0.3544 -0.0553
   27DOPE    HY 3383   5.284  -0.031   6.387 -1.7986  1.7085 -1.0389
   27DOPE   O31 3384   5.302  -0.083   6.186  0.6042  0.2565  0.0385
   27DOPE   C31 3385   5.172  -0.065   6.166  0.2626  0.3435 -0.4249
   27DOPE   O32 3386   5.096   0.001   6.239  0.0746  0.3145  0.1881
   27DOPE   C32 3387   5.110  -0.135   6.047  0.6607  0.3040 -0.3725
   27DOPE   H2X 3388   5.061  -0.227   6.085 -1.6484  1.1449 -1.1448
   27DOPE   H2Y 3389   5.035  -0.063   6.008 -2.0732 -2.9453 -1.6998
   27DOPE   C23 3390   5.924  -0.044   6.072 -0.1883 -0.7779  0.3104
   27DOPE   H3R 3391   6.007  -0.040   6.146  1.1645  1.1856 -1.2069
   27DOPE   H3S 3392   5.964   0.012   5.985  0.7231 -0.5284  0.8711
   27DOPE   C24 3393   5.901  -0.182   6.034  0.0340  0.3442  0.2051
   27DOPE   H4R 3394   5.880  -0.233   6.130 -1.5599 -0.4046 -0.4909
   27DOPE   H4S 3395   5.994  -0.228   5.995 -1.3189 -0.4959 -2.2734
   27DOPE   C25 3396   5.795  -0.203   5.924 -0.2136  0.5059 -0.0666
   27DOPE   H5R 3397   5.830  -0.140   5.839 -1.7863 -0.7961 -1.7712
   27DOPE   H5S 3398   5.694  -0.166   5.951  0.1294  2.2374 -1.0306
   27DOPE   C26 3399   5.779  -0.346   5.874 -0.4748 -0.7242  0.5317
   27DOPE   H6R 3400   5.756  -0.411   5.961  2.5289 -1.0934  1.1613
   27DOPE   H6S 3401   5.871  -0.384   5.825  0.7124  1.6339  0.8272
   27DOPE   C27 3402   5.668  -0.364   5.774  0.2587 -0.6255 -0.2851
   27DOPE   H7R 3403   5.569  -0.336   5.815 -0.7079 -4.3026  0.2901
   27DOPE   H7S 3404   5.649  -0.469   5.743 -2.5102 -0.7717  1.5989
   27DOPE   C28 3405   5.679  -0.276   5.646  0.9569  0.8931  0.6075
   27DOPE   H8R 3406   5.786  -0.265   5.616  0.5972  1.4338 -0.5230
   27DOPE   H8S 3407   5.641  -0.177   5.679 -0.0199  0.0044  2.2661
   27DOPE   C29 3408   5.595  -0.338   5.536 -0.3740  0.0397  0.1889
   27DOPE   H9R 3409   5.521  -0.415   5.564  2.2572 -2.0831  1.7446
   27DOPE  C210 3410   5.626  -0.320   5.406 -0.8335 -0.3404  0.0716
   27DOPE  H10R 3411   5.547  -0.351   5.336 -0.1504 -0.0790 -0.8235
   27DOPE  C211 3412   5.740  -0.226   5.349  1.1409  0.3645 -0.1489
   27DOPE  H11R 3413   5.839  -0.275   5.333  0.7089  0.0695 -2.2658
   27DOPE  H11S 3414   5.764  -0.146   5.422 -0.3326 -1.3545  2.3544
   27DOPE  C212 3415   5.699  -0.161   5.213 -0.3077  0.4364  0.1489
   27DOPE  H12R 3416   5.739  -0.058   5.202 -0.7867  0.4518 -1.8261
   27DOPE  H12S 3417   5.589  -0.144   5.226 -0.4412 -2.0271  4.0517
   27DOPE  C213 3418   5.741  -0.240   5.092  0.2645 -0.5105 -0.6525
   27DOPE  H13R 3419   5.831  -0.295   5.126 -0.1468 -0.0100  1.3964
   27DOPE  H13S 3420   5.762  -0.166   5.011  1.9130  1.3423  1.3261
   27DOPE  C214 3421   5.643  -0.347   5.035  0.4295  0.2867  0.5791
   27DOPE  H14R 3422   5.548  -0.291   5.018 -0.1822 -1.2009 -1.2473
   27DOPE  H14S 3423   5.638  -0.441   5.093  0.4238 -0.0402  0.0505
   27DOPE  C215 3424   5.673  -0.391   4.894 -0.1997 -0.8100  0.7986
   27DOPE  H15R 3425   5.630  -0.488   4.861 -0.0990 -0.3600 -0.6963
   27DOPE  H15S 3426   5.781  -0.416   4.888 -0.6568 -2.6432 -0.7118
   27DOPE  C216 3427   5.643  -0.283   4.786  0.5680  0.0562 -0.4170
   27DOPE  H16R 3428   5.681  -0.182   4.811  1.1329 -0.6487  1.8575
   27DOPE  H16S 3429   5.533  -0.282   4.796  0.6192  3.7034  1.7336
   27DOPE  C217 3430   5.679  -0.325   4.642 -0.3392 -0.0798 -0.0083
   27DOPE  H17R 3431   5.667  -0.435   4.631 -0.1296 -0.0785 -0.2677
   27DOPE  H17S 3432   5.788  -0.310   4.625 -0.7110  1.4339 -1.2876
   27DOPE  C218 3433   5.605  -0.253   4.527 -0.2407  0.1678  0.7360
   27DOPE  H18R 3434   5.497  -0.263   4.552 -0.7135 -2.6762 -1.8034
   27DOPE  H18S 3435   5.617  -0.305   4.429 -2.1168 -2.7347  1.9287
   27DOPE  H18T 3436   5.634  -0.146   4.520  0.4873 -0.1203 -1.9496
   27DOPE   C33 3437   5.208  -0.163   5.930 -0.3864 -0.6953  0.5815
   27DOPE   H3X 3438   5.297  -0.223   5.958  0.0216 -0.9971 -1.1978
   27DOPE   H3Y 3439   5.240  -0.062   5.896 -0.7333 -0.6073  0.5152
   27DOPE   C34 3440   5.144  -0.237   5.809  0.4897 -0.4945  0.2266
   27DOPE   H4X 3441   5.099  -0.334   5.838 -0.7170  0.1537  0.6180
   27DOPE   H4Y 3442   5.068  -0.168   5.765  1.1496 -0.4367 -0.8595
   27DOPE   C35 3443   5.249  -0.256   5.700  0.6982 -0.0694 -0.8549
   27DOPE   H5X 3444   5.344  -0.305   5.731 -0.7974 -1.9728  1.0136
   27DOPE   H5Y 3445   5.282  -0.152   5.681 -0.2451  0.3696 -0.1699
   27DOPE   C36 3446   5.205  -0.329   5.576 -0.2261 -0.2932  0.4630
   27DOPE   H6X 3447   5.195  -0.438   5.591 -0.2773 -0.4197 -0.4673
   27DOPE   H6Y 3448   5.293  -0.312   5.509 -0.0919  1.5756  1.0426
   27DOPE   C37 3449   5.079  -0.285   5.513  0.1667 -0.1135  0.4111
   27DOPE   H7X 3450   4.988  -0.301   5.576 -0.5726  2.3177  0.0431
   27DOPE   H7Y 3451   5.086  -0.175   5.500  2.1425 -0.0179  1.9618
   27DOPE   C38 3452   5.063  -0.341   5.369 -0.3741  0.1623  0.5142
   27DOPE   H8X 3453   5.161  -0.322   5.320  0.5400  1.7902  2.7910
   27DOPE   H8Y 3454   4.992  -0.273   5.318 -0.1874  1.1655  1.5730
   27DOPE   C39 3455   5.023  -0.484   5.355  0.0490  0.1905 -0.2029
   27DOPE   H9X 3456   4.935  -0.517   5.413 -0.1565 -0.4061 -0.8504
   27DOPE  C310 3457   5.087  -0.577   5.285  0.5586  0.4915  0.2193
   27DOPE  H10X 3458   5.043  -0.677   5.274 -1.3616  1.3927 -0.9701
   27DOPE  C311 3459   5.205  -0.561   5.183 -0.2068  0.6991 -0.1430
   27DOPE  H11X 3460   5.277  -0.484   5.217 -0.4222  0.3601  1.1011
   27DOPE  H11Y 3461   5.261  -0.656   5.199 -0.8967  0.6082  1.9611
   27DOPE  C312 3462   5.155  -0.544   5.043  0.4357  0.5268 -0.0209
   27DOPE  H12X 3463   5.094  -0.452   5.031 -0.8743 -0.0743  1.6259
   27DOPE  H12Y 3464   5.085  -0.627   5.017 -0.1212  0.4040  1.7581
   27DOPE  C313 3465   5.271  -0.538   4.935 -0.0848 -0.3441  0.0786
   27DOPE  H13X 3466   5.333  -0.451   4.965  1.7833 -1.2552 -0.9935
   27DOPE  H13Y 3467   5.332  -0.630   4.951  0.1714  0.1373  2.2197
   27DOPE  C314 3468   5.215  -0.532   4.803 -0.0934 -0.0253  1.0283
   27DOPE  H14X 3469   5.152  -0.441   4.793  0.8602  0.4967 -0.6423
   27DOPE  H14Y 3470   5.153  -0.623   4.786  1.9463 -1.4265  0.6584
   27DOPE  C315 3471   5.319  -0.530   4.701 -0.3179 -0.3492  0.1149
   27DOPE  H15X 3472   5.396  -0.609   4.715 -0.9774 -1.0256 -0.0416
   27DOPE  H15Y 3473   5.373  -0.432   4.703 -1.4827  0.2953  1.3669
   27DOPE  C316 3474   5.264  -0.555   4.562  0.1664 -0.0866  0.0488
   27DOPE  H16X 3475   5.195  -0.471   4.539 -1.5201 -1.4046  0.1287
   27DOPE  H16Y 3476   5.201  -0.645   4.547  1.9927 -1.1578 -1.7291
   27DOPE  C317 3477   5.372  -0.570   4.457  0.2841  0.0889 -0.0091
   27DOPE  H17X 3478   5.442  -0.484   4.465  1.1347 -0.4612 -1.1667
   27DOPE  H17Y 3479   5.437  -0.658   4.474 -0.3340 -0.1124  1.3674
   27DOPE  C318 3480   5.308  -0.574   4.317 -0.1396  0.4169  0.1856
   27DOPE  H18X 3481   5.254  -0.478   4.310 -2.0070 -0.6303 -0.6063
   27DOPE  H18Y 3482   5.389  -0.586   4.241 -1.3015  2.4568 -1.4802
   27DOPE  H18Z 3483   5.237  -0.659   4.304 -1.1348  0.8018  2.5816
   28DOPE     N 3484   7.364   7.527   7.399 -0.0225  0.3742 -0.3089
   28DOPE   HN1 3485   7.332   7.522   7.498  1.3343 -2.3788  0.0880
   28DOPE   HN2 3486   7.379   7.425   7.383  2.3760  0.6622 -0.3015
   28DOPE   HN3 3487   7.460   7.568   7.396 -1.0387  3.0301  0.4758
   28DOPE   C12 3488   7.264   7.568   7.294 -0.0867 -0.1917 -0.5823
   28DOPE  H12A 3489   7.312   7.576   7.193 -0.7865 -1.6047 -1.0472
   28DOPE  H12B 3490   7.228   7.670   7.322 -1.5792 -1.5239  2.7798
   28DOPE   C11 3491   7.145   7.470   7.278 -0.0342 -0.9905 -0.0062
   28DOPE  H11A 3492   7.080   7.497   7.192  1.2539  1.1674 -0.3844
   28DOPE  H11B 3493   7.081   7.491   7.366 -1.3351  1.5311 -1.4334
   28DOPE     P 3494   7.200   7.251   7.148 -0.2376 -0.0418 -0.0092
   28DOPE   O13 3495   7.203   7.108   7.190  0.0722 -0.0870 -0.3064
   28DOPE   O14 3496   7.321   7.301   7.068 -0.2974  0.6325  0.0428
   28DOPE   O11 3497   7.071   7.273   7.059  0.1550 -0.1258 -0.0209
   28DOPE   O12 3498   7.199   7.338   7.288  0.3596 -0.0956 -0.1918
   28DOPE    C1 3499   6.938   7.227   7.089  0.6494 -0.5283 -1.1450
   28DOPE    HA 3500   6.867   7.308   7.117  1.1791 -0.5746  0.4598
   28DOPE    HB 3501   6.936   7.162   7.179  0.3654  0.2454 -0.5819
   28DOPE    C2 3502   6.872   7.138   6.973 -0.4472  0.2608  0.9263
   28DOPE    HS 3503   6.936   7.047   6.964  2.6073  2.2374  1.0013
   28DOPE   O21 3504   6.878   7.215   6.854 -0.4675  0.6628 -0.1246
   28DOPE   C21 3505   6.981   7.198   6.775  0.2167 -0.0075 -0.4490
   28DOPE   O22 3506   7.080   7.134   6.797 -0.0017  0.3982 -0.1635
   28DOPE   C22 3507   6.962   7.288   6.651  0.2696 -0.1424 -1.1910
   28DOPE   H2R 3508   7.013   7.385   6.664 -1.6969  0.8858 -0.7166
   28DOPE   H2S 3509   6.853   7.302   6.636  0.1704  1.1098  0.4534
   28DOPE    C3 3510   6.727   7.084   7.006  0.7822 -0.6085 -0.5248
   28DOPE    HX 3511   6.658   7.168   7.025  0.5825 -0.8131 -0.3357
   28DOPE    HY 3512   6.728   7.036   7.106 -1.3997 -0.8111 -0.5567
   28DOPE   O31 3513   6.672   6.995   6.904 -0.1006 -0.0068 -0.1215
   28DOPE   C31 3514   6.717   6.866   6.901 -0.2003  0.3624 -0.3794
   28DOPE   O32 3515   6.802   6.820   6.972  0.2385 -0.2923  0.0622
   28DOPE   C32 3516   6.648   6.798   6.788 -0.4425 -0.6221  0.4957
   28DOPE   H2X 3517   6.541   6.787   6.815 -0.6064  0.1404  0.1839
   28DOPE   H2Y 3518   6.656   6.869   6.702  2.4786 -0.3717  0.8826
   28DOPE   C23 3519   7.016   7.223   6.526  0.0318  0.5363 -0.3437
   28DOPE   H3R 3520   6.946   7.141   6.502  0.1144  0.6983 -1.1527
   28DOPE   H3S 3521   7.112   7.175   6.554 -0.1277  0.6821  0.4692
   28DOPE   C24 3522   7.027   7.325   6.407 -0.5102 -0.6692  0.2182
   28DOPE   H4R 3523   7.088   7.410   6.446 -0.5129 -0.7413  0.3841
   28DOPE   H4S 3524   6.930   7.379   6.403 -0.4456 -0.6171 -0.6773
   28DOPE   C25 3525   7.075   7.265   6.276 -0.1642 -0.4680  0.3179
   28DOPE   H5R 3526   6.991   7.205   6.236 -1.0924  1.1701 -0.2778
   28DOPE   H5S 3527   7.169   7.207   6.287  0.1207 -0.2923 -0.9897
   28DOPE   C26 3528   7.116   7.373   6.171  0.3470 -0.6735 -0.2438
   28DOPE   H6R 3529   7.186   7.339   6.092  1.3052  1.4916 -0.4066
   28DOPE   H6S 3530   7.171   7.451   6.228 -1.7992  0.9268 -0.2245
   28DOPE   C27 3531   7.007   7.446   6.090  0.2254 -0.0452  0.0798
   28DOPE   H7R 3532   6.962   7.508   6.170  1.2309 -0.7885  1.2543
   28DOPE   H7S 3533   6.937   7.366   6.060  0.8341 -0.4958 -0.1697
   28DOPE   C28 3534   7.070   7.527   5.971  0.2570 -0.2489 -0.0401
   28DOPE   H8R 3535   7.120   7.454   5.904 -1.0918 -1.7312  0.5223
   28DOPE   H8S 3536   7.154   7.590   6.011 -0.6394  0.2448  1.1354
   28DOPE   C29 3537   6.961   7.611   5.898 -0.8045 -0.3333 -0.3086
   28DOPE   H9R 3538   6.897   7.664   5.971 -0.7862  0.5482 -0.9291
   28DOPE  C210 3539   6.943   7.621   5.762  0.3164 -0.0891  0.7967
   28DOPE  H10R 3540   6.846   7.660   5.729  0.3332 -0.2862  0.5086
   28DOPE  C211 3541   7.035   7.560   5.660  0.4640  0.3560 -0.3366
   28DOPE  H11R 3542   6.979   7.485   5.600 -0.4030  0.3495  0.4474
   28DOPE  H11S 3543   7.130   7.524   5.703  0.0080  0.6834  0.9769
   28DOPE  C212 3544   7.075   7.660   5.556 -0.0255 -0.5829  0.4113
   28DOPE  H12R 3545   6.986   7.712   5.516 -0.4109  0.7420  2.7687
   28DOPE  H12S 3546   7.118   7.601   5.473  1.2683  0.9553 -0.0608
   28DOPE  C213 3547   7.194   7.751   5.602 -0.4713  0.3201 -0.2014
   28DOPE  H13R 3548   7.282   7.696   5.642 -0.7294 -0.3525 -0.5454
   28DOPE  H13S 3549   7.153   7.810   5.687 -1.3888 -0.1705 -0.2820
   28DOPE  C214 3550   7.242   7.855   5.491  0.5017 -0.3161 -0.1248
   28DOPE  H14R 3551   7.324   7.916   5.535 -0.5929 -0.7644  2.8032
   28DOPE  H14S 3552   7.158   7.924   5.469 -1.7796 -3.0648 -0.4764
   28DOPE  C215 3553   7.291   7.785   5.359 -0.0095  0.1197  1.0405
   28DOPE  H15R 3554   7.306   7.677   5.380  0.1702 -0.1920 -0.6071
   28DOPE  H15S 3555   7.393   7.828   5.345 -0.0933  1.2532  3.3114
   28DOPE  C216 3556   7.210   7.806   5.233  0.7045  0.0813 -0.0364
   28DOPE  H16R 3557   7.116   7.754   5.265  0.8589 -0.2211 -0.0682
   28DOPE  H16S 3558   7.253   7.752   5.147 -0.2642 -0.0066 -0.4782
   28DOPE  C217 3559   7.177   7.955   5.201 -0.2536 -0.0875  0.9459
   28DOPE  H17R 3560   7.101   7.991   5.274  0.9096  0.8768  1.7196
   28DOPE  H17S 3561   7.121   7.952   5.105 -1.3749 -1.0965  1.5974
   28DOPE  C218 3562   7.302   8.053   5.195  0.3454  0.0441 -0.5659
   28DOPE  H18R 3563   7.381   8.016   5.127  1.6930  3.4444 -1.0488
   28DOPE  H18S 3564   7.347   8.045   5.296 -0.3972  0.9130 -0.1468
   28DOPE  H18T 3565   7.271   8.159   5.184 -0.1851 -0.0131  0.2595
   28DOPE   C33 3566   6.724   6.675   6.741 -0.3023  0.4546  0.2372
   28DOPE   H3X 3567   6.661   6.615   6.672  1.5466  0.8516 -1.9179
   28DOPE   H3Y 3568   6.744   6.607   6.827  0.0899 -1.9442 -1.6305
   28DOPE   C34 3569   6.862   6.693   6.673 -0.1350 -0.0341 -0.0321
   28DOPE   H4X 3570   6.932   6.750   6.736  0.1574  0.0166 -0.3985
   28DOPE   H4Y 3571   6.903   6.592   6.650 -0.8400 -0.1833 -0.6741
   28DOPE   C35 3572   6.849   6.762   6.538  0.0619 -0.0265 -0.2061
   28DOPE   H5X 3573   6.787   6.854   6.536 -0.6829 -0.4790 -3.4456
   28DOPE   H5Y 3574   6.798   6.686   6.476  0.1016 -1.3562  1.3181
   28DOPE   C36 3575   6.986   6.796   6.481  0.5516  0.7323 -0.2661
   28DOPE   H6X 3576   7.052   6.711   6.457 -0.2993 -0.0908  0.2422
   28DOPE   H6Y 3577   7.041   6.852   6.560  0.8810  0.9044 -0.6142
   28DOPE   C37 3578   6.977   6.891   6.357  0.0984 -0.1757  0.0512
   28DOPE   H7X 3579   6.923   6.985   6.382 -0.4549  0.1355 -2.1172
   28DOPE   H7Y 3580   7.082   6.924   6.349  0.0238 -0.1045 -0.7201
   28DOPE   C38 3581   6.934   6.838   6.223 -0.0578  0.6245 -0.6633
   28DOPE   H8X 3582   6.829   6.804   6.233 -0.1803  0.8979 -0.9886
   28DOPE   H8Y 3583   6.983   6.739   6.208 -0.9953 -0.3636  2.2188
   28DOPE   C39 3584   6.952   6.944   6.107  0.3021  0.3138  0.5761
   28DOPE   H9X 3585   6.879   7.025   6.115 -1.1457 -0.8488 -0.2530
   28DOPE  C310 3586   7.044   6.946   6.013 -0.8738  0.8823  0.3908
   28DOPE  H10X 3587   7.071   7.041   5.964  1.5467  1.6485  2.8823
   28DOPE  C311 3588   7.146   6.850   5.975 -0.1800  0.6645  0.5325
   28DOPE  H11X 3589   7.244   6.889   6.010 -0.3935  0.3579  1.4928
   28DOPE  H11Y 3590   7.122   6.746   6.003 -1.0071  0.2071 -1.6616
   28DOPE  C312 3591   7.154   6.841   5.815  0.0052  0.2358  0.1365
   28DOPE  H12X 3592   7.252   6.794   5.791 -0.1775 -0.2764  0.3778
   28DOPE  H12Y 3593   7.157   6.941   5.767 -0.6962 -0.3559 -1.1801
   28DOPE  C313 3594   7.052   6.740   5.755 -0.6359 -0.4453  0.0792
   28DOPE  H13X 3595   7.078   6.637   5.789 -0.7734 -0.5464 -0.1230
   28DOPE  H13Y 3596   6.951   6.759   5.796 -0.2910 -2.3976  2.0304
   28DOPE  C314 3597   7.046   6.740   5.597 -0.2750 -0.2307 -0.6872
   28DOPE  H14X 3598   7.023   6.844   5.567 -0.7239 -0.2021 -0.2513
   28DOPE  H14Y 3599   6.959   6.678   5.564 -1.0174  0.9498 -1.0155
   28DOPE  C315 3600   7.185   6.716   5.534  0.5651 -0.6116 -0.6030
   28DOPE  H15X 3601   7.219   6.627   5.591 -0.1010 -1.0555 -0.8922
   28DOPE  H15Y 3602   7.261   6.795   5.556  1.8978 -1.4106 -2.0656
   28DOPE  C316 3603   7.190   6.699   5.385  0.4243 -0.3129  0.4249
   28DOPE  H16X 3604   7.156   6.792   5.334  0.0323 -1.5621 -1.7471
   28DOPE  H16Y 3605   7.126   6.611   5.363  2.0092 -1.0451 -1.5626
   28DOPE  C317 3606   7.331   6.683   5.328  0.1779 -0.3885  0.1760
   28DOPE  H17X 3607   7.402   6.726   5.401 -0.6613 -0.3159  0.9739
   28DOPE  H17Y 3608   7.343   6.573   5.319  0.5647 -0.3017 -0.3886
   28DOPE  C318 3609   7.352   6.745   5.188  0.0248 -0.3667  1.1239
   28DOPE  H18X 3610   7.280   6.703   5.115  0.0798 -0.8412  1.3399
   28DOPE  H18Y 3611   7.330   6.854   5.189 -1.8104 -0.6919  0.1917
   28DOPE  H18Z 3612   7.449   6.715   5.143  0.8793  0.8049  2.1037
   29DOPE     N 3613   6.946   0.656   7.201 -0.5304  0.2525  0.0036
   29DOPE   HN1 3614   6.913   0.671   7.299 -1.9952  1.9820 -0.7004
   29DOPE   HN2 3615   7.029   0.715   7.181 -0.9580  1.5340  1.7230
   29DOPE   HN3 3616   6.887   0.690   7.123 -1.7611  0.6066  1.0392
   29DOPE   C12 3617   6.963   0.514   7.167  0.1697  0.5784  0.6230
   29DOPE  H12A 3618   6.942   0.499   7.058  3.4454  0.4460 -0.1020
   29DOPE  H12B 3619   6.894   0.455   7.230 -0.7740  0.5259 -0.4250
   29DOPE   C11 3620   7.107   0.464   7.184  0.6495  0.1133  0.5803
   29DOPE  H11A 3621   7.117   0.354   7.190 -2.4576 -0.2837  0.1055
   29DOPE  H11B 3622   7.146   0.502   7.280  1.8471  0.0800  0.1215
   29DOPE     P 3623   7.266   0.653   7.088  0.0037  0.0873 -0.3433
   29DOPE   O13 3624   7.391   0.611   7.155 -0.0467  0.6084 -0.2922
   29DOPE   O14 3625   7.191   0.761   7.164  0.7659  0.2979 -0.4169
   29DOPE   O11 3626   7.292   0.685   6.937 -0.5228 -0.2160  0.4534
   29DOPE   O12 3627   7.179   0.524   7.075 -0.7174  1.1579 -0.1045
   29DOPE    C1 3628   7.304   0.579   6.839  0.2243 -0.0881  0.1795
   29DOPE    HA 3629   7.269   0.623   6.743 -0.1520  1.5055  0.9989
   29DOPE    HB 3630   7.231   0.499   6.859 -1.4845  1.4540  0.3882
   29DOPE    C2 3631   7.444   0.525   6.838 -0.0351  0.3295  1.0727
   29DOPE    HS 3632   7.464   0.469   6.932  0.1131  0.5790  1.1910
   29DOPE   O21 3633   7.531   0.637   6.836  0.2010  0.2900  0.0296
   29DOPE   C21 3634   7.640   0.629   6.904  0.7751 -0.3840  0.7168
   29DOPE   O22 3635   7.673   0.545   6.983 -0.3885 -0.0859  0.4654
   29DOPE   C22 3636   7.721   0.758   6.865 -0.2354  0.3076  0.4802
   29DOPE   H2R 3637   7.773   0.782   6.959 -0.6869 -1.7018  1.2940
   29DOPE   H2S 3638   7.643   0.836   6.847 -1.2128 -0.2236  2.1855
   29DOPE    C3 3639   7.462   0.442   6.708  0.0751 -0.0456 -0.0644
   29DOPE    HX 3640   7.554   0.380   6.710 -1.0988 -2.3589 -4.4730
   29DOPE    HY 3641   7.470   0.521   6.630 -0.1862 -0.1290 -0.1742
   29DOPE   O31 3642   7.342   0.362   6.681 -0.0494 -0.1278  0.2426
   29DOPE   C31 3643   7.347   0.249   6.745 -0.5667  0.2233 -0.5175
   29DOPE   O32 3644   7.440   0.205   6.815 -0.4574 -0.8398 -0.0934
   29DOPE   C32 3645   7.230   0.158   6.721  1.0868 -0.4439  0.8122
   29DOPE   H2X 3646   7.192   0.126   6.820  1.4613 -3.6931  0.0219
   29DOPE   H2Y 3647   7.145   0.213   6.676  1.8589 -0.0191 -0.1820
   29DOPE   C23 3648   7.823   0.733   6.757 -0.0408  0.0727 -0.0246
   29DOPE   H3R 3649   7.780   0.675   6.674  0.7075 -0.3112 -0.1570
   29DOPE   H3S 3650   7.919   0.686   6.788  0.0520 -0.1362 -0.6263
   29DOPE   C24 3651   7.883   0.871   6.697 -0.1402  0.2618  0.1095
   29DOPE   H4R 3652   7.962   0.914   6.762  0.2660  0.5042 -0.5294
   29DOPE   H4S 3653   7.800   0.945   6.686 -0.5748 -0.0740  1.0674
   29DOPE   C25 3654   7.952   0.860   6.557  0.5566  0.4509 -0.0486
   29DOPE   H5R 3655   7.876   0.829   6.483  1.0975 -0.1269 -0.3706
   29DOPE   H5S 3656   8.023   0.775   6.567 -0.5914 -0.5544 -0.2572
   29DOPE   C26 3657   8.019   0.984   6.512 -0.0006 -0.4716  1.1937
   29DOPE   H6R 3658   8.102   1.012   6.580 -1.5072  2.7053  1.9043
   29DOPE   H6S 3659   7.946   1.067   6.525  0.4159  0.1465 -0.1936
   29DOPE   C27 3660   8.047   0.978   6.357 -0.1080  0.0041  0.3654
   29DOPE   H7R 3661   8.093   1.069   6.314  0.3730 -1.1017 -1.5765
   29DOPE   H7S 3662   7.950   0.966   6.304  0.6089 -2.8056 -0.4730
   29DOPE   C28 3663   8.137   0.861   6.312 -0.0633 -0.4821  0.3962
   29DOPE   H8R 3664   8.106   0.765   6.359  0.6561 -1.0094 -0.1760
   29DOPE   H8S 3665   8.241   0.872   6.350  0.5278 -3.5652 -0.0363
   29DOPE   C29 3666   8.145   0.823   6.163 -0.1024 -0.4770 -0.3807
   29DOPE   H9R 3667   8.060   0.756   6.146 -0.1652 -0.6552  0.5820
   29DOPE  C210 3668   8.232   0.866   6.074 -0.1379 -0.8020  0.1009
   29DOPE  H10R 3669   8.232   0.811   5.979 -0.5637  1.5847 -1.3564
   29DOPE  C211 3670   8.361   0.945   6.090  0.2480 -0.3588  0.4767
   29DOPE  H11R 3671   8.430   0.887   6.156  0.3397 -2.2363 -1.1736
   29DOPE  H11S 3672   8.347   1.045   6.138 -0.7365 -0.6273  0.7796
   29DOPE  C212 3673   8.420   0.959   5.948  0.5552  0.5191 -0.5299
   29DOPE  H12R 3674   8.450   0.857   5.915 -3.6389 -0.5777 -1.5319
   29DOPE  H12S 3675   8.503   1.032   5.952  1.3417 -0.3015 -1.3306
   29DOPE  C213 3676   8.324   1.013   5.841 -0.3567 -1.0068 -0.2867
   29DOPE  H13R 3677   8.245   1.070   5.895  0.7135 -0.7985  1.1208
   29DOPE  H13S 3678   8.270   0.925   5.800 -0.4376 -1.6005  1.0398
   29DOPE  C214 3679   8.400   1.087   5.733  0.0662 -0.0800  0.0487
   29DOPE  H14R 3680   8.454   1.177   5.769  1.7943 -1.7502  1.8911
   29DOPE  H14S 3681   8.329   1.099   5.649 -1.4037 -2.7309  0.7932
   29DOPE  C215 3682   8.517   0.998   5.675  0.2654 -0.3801 -0.2833
   29DOPE  H15R 3683   8.475   0.902   5.637 -1.9619  0.6946 -0.7165
   29DOPE  H15S 3684   8.596   0.978   5.750  0.8485 -0.7287 -0.9780
   29DOPE  C216 3685   8.594   1.083   5.576 -0.0395 -0.7176 -0.7196
   29DOPE  H16R 3686   8.646   1.163   5.632  1.2426 -0.7385 -1.8276
   29DOPE  H16S 3687   8.521   1.135   5.510 -1.2704  0.7866  1.6894
   29DOPE  C217 3688   8.698   1.005   5.489 -0.3161 -0.3973 -0.3189
   29DOPE  H17R 3689   8.641   0.924   5.437 -1.0071  0.6729 -1.2778
   29DOPE  H17S 3690   8.781   0.955   5.543  0.6709  1.9151  0.3928
   29DOPE  C218 3691   8.756   1.097   5.383  0.2790  0.5997  0.6408
   29DOPE  H18R 3692   8.810   1.183   5.429 -0.9038  2.1910 -0.7787
   29DOPE  H18S 3693   8.674   1.136   5.318  0.5714  0.6651  0.3084
   29DOPE  H18T 3694   8.828   1.038   5.323  1.0944  1.6343  0.5650
   29DOPE   C33 3695   7.268   0.033   6.636 -0.5873 -0.3815 -1.0999
   29DOPE   H3X 3696   7.193  -0.048   6.627 -1.5113  0.2859  0.2989
   29DOPE   H3Y 3697   7.365  -0.009   6.669 -0.7580  0.6971  0.9407
   29DOPE   C34 3698   7.288   0.084   6.491 -0.3337  0.3394 -0.3662
   29DOPE   H4X 3699   7.192   0.136   6.472  0.2460  0.3506 -4.0996
   29DOPE   H4Y 3700   7.377   0.151   6.490 -0.2165  0.2018 -1.9624
   29DOPE   C35 3701   7.313  -0.026   6.385 -0.2059  0.1417 -0.0256
   29DOPE   H5X 3702   7.213  -0.069   6.363  0.0968 -1.0984  0.9218
   29DOPE   H5Y 3703   7.372  -0.103   6.439 -2.6214 -0.8573  1.3427
   29DOPE   C36 3704   7.369   0.012   6.250  0.3378 -0.1076 -0.2801
   29DOPE   H6X 3705   7.336  -0.070   6.183  1.6074 -3.4970  2.8891
   29DOPE   H6Y 3706   7.480   0.007   6.244  0.4713  1.2943  0.5442
   29DOPE   C37 3707   7.316   0.156   6.199  0.2423  0.1501  0.8484
   29DOPE   H7X 3708   7.207   0.152   6.221 -0.0833 -2.0946 -0.7771
   29DOPE   H7Y 3709   7.367   0.244   6.243  1.9870  0.7318 -2.0715
   29DOPE   C38 3710   7.331   0.170   6.049  0.0982  0.5446 -0.0048
   29DOPE   H8X 3711   7.257   0.106   5.995  2.3040 -2.2351  0.0677
   29DOPE   H8Y 3712   7.429   0.130   6.015  0.7152 -0.0043  2.3050
   29DOPE   C39 3713   7.322   0.313   6.008  0.5658  0.0325  0.3178
   29DOPE   H9X 3714   7.228   0.365   6.031 -0.5659 -2.2454  1.2011
   29DOPE  C310 3715   7.406   0.381   5.927  1.5999 -0.2248 -0.6845
   29DOPE  H10X 3716   7.377   0.482   5.894  0.3200 -0.6455 -0.8748
   29DOPE  C311 3717   7.535   0.330   5.869  0.1953 -1.0222  0.1907
   29DOPE  H11X 3718   7.609   0.412   5.865 -1.5407  0.7568  1.8469
   29DOPE  H11Y 3719   7.571   0.245   5.931 -0.5226 -1.2679  0.2909
   29DOPE  C312 3720   7.516   0.285   5.728 -0.0920  0.4777  0.0379
   29DOPE  H12X 3721   7.486   0.370   5.664  0.7184  2.6654  2.3946
   29DOPE  H12Y 3722   7.438   0.206   5.723  1.2315 -0.8725 -0.2544
   29DOPE  C313 3723   7.638   0.223   5.665  0.1342 -0.2203 -0.2999
   29DOPE  H13X 3724   7.728   0.284   5.642 -0.5841  0.3037 -1.8300
   29DOPE  H13Y 3725   7.672   0.140   5.731  2.6721  0.1813 -0.9843
   29DOPE  C314 3726   7.606   0.164   5.525 -0.4891 -0.5701  0.1535
   29DOPE  H14X 3727   7.581   0.253   5.464  3.0891  0.7832  0.3917
   29DOPE  H14Y 3728   7.518   0.096   5.524  0.0063 -1.2408 -1.8057
   29DOPE  C315 3729   7.724   0.086   5.463 -0.7383  0.6448  0.1578
   29DOPE  H15X 3730   7.753   0.006   5.535  3.1441 -0.1040 -1.9539
   29DOPE  H15Y 3731   7.808   0.159   5.459 -1.6184  1.6238 -1.0554
   29DOPE  C316 3732   7.695   0.017   5.323 -0.1540 -0.2938 -0.5449
   29DOPE  H16X 3733   7.597  -0.029   5.346  0.4201 -0.4159  1.9863
   29DOPE  H16Y 3734   7.778  -0.055   5.311 -0.5067 -1.2963  2.2267
   29DOPE  C317 3735   7.700   0.119   5.212  0.4306 -1.6076 -0.4648
   29DOPE  H17X 3736   7.626   0.199   5.234  0.6041 -1.5432 -0.0998
   29DOPE  H17Y 3737   7.791   0.183   5.207 -0.3874 -0.5031 -3.6000
   29DOPE  C318 3738   7.661   0.065   5.069  0.3764  0.1120 -0.4023
   29DOPE  H18X 3739   7.656   0.149   4.997 -1.3289  0.2352 -0.1922
   29DOPE  H18Y 3740   7.740  -0.006   5.038 -0.4818 -1.4811  0.9034
   29DOPE  H18Z 3741   7.562   0.014   5.070 -0.6307  1.9640 -0.9822
   30DOPE     N 3742   0.428   6.974   7.318 -0.2489  0.5158 -0.0256
   30DOPE   HN1 3743   0.334   6.960   7.359 -0.0145 -2.2031 -0.2823
   30DOPE   HN2 3744   0.451   6.883   7.274 -0.3808  0.8529 -0.8102
   30DOPE   HN3 3745   0.502   7.010   7.382 -0.0854  0.2913 -0.0882
   30DOPE   C12 3746   0.397   7.076   7.218 -0.0687  0.0128 -0.4339
   30DOPE  H12A 3747   0.490   7.083   7.157  2.0786  0.3189  2.6343
   30DOPE  H12B 3748   0.390   7.167   7.280 -1.0469  1.5523 -2.6978
   30DOPE   C11 3749   0.269   7.035   7.144 -0.1266 -0.0854 -0.1958
   30DOPE  H11A 3750   0.304   6.951   7.082  2.9937 -0.7969  2.2684
   30DOPE  H11B 3751   0.238   7.116   7.075 -0.9370  1.0186  1.3721
   30DOPE     P 3752   0.019   7.018   7.197  0.4088 -0.2237  0.1373
   30DOPE   O13 3753   0.006   7.166   7.198  0.6687  0.2916  0.0014
   30DOPE   O14 3754  -0.066   6.929   7.283  0.4406 -0.4169 -0.2629
   30DOPE   O11 3755   0.024   6.961   7.045 -0.0482  0.9677  0.0103
   30DOPE   O12 3756   0.165   6.994   7.240  0.0899  0.1690  0.3756
   30DOPE    C1 3757   0.017   6.823   7.015 -0.4337 -0.4068 -0.5036
   30DOPE    HA 3758  -0.085   6.782   7.029 -0.6232  0.0966 -0.3822
   30DOPE    HB 3759   0.089   6.767   7.078 -2.6072  0.1545  2.7273
   30DOPE    C2 3760   0.066   6.808   6.871  0.2080 -0.1639 -0.5838
   30DOPE    HS 3761   0.004   6.738   6.811 -1.6115  0.0555  0.9506
   30DOPE   O21 3762   0.204   6.774   6.867 -0.1584 -0.2456  0.3271
   30DOPE   C21 3763   0.228   6.639   6.845  0.0506 -0.2618  1.1078
   30DOPE   O22 3764   0.140   6.560   6.829  0.0462  0.1419  0.2968
   30DOPE   C22 3765   0.378   6.608   6.842 -0.7823 -0.1323 -0.9969
   30DOPE   H2R 3766   0.383   6.542   6.932 -0.4320 -0.1360 -1.0181
   30DOPE   H2S 3767   0.442   6.696   6.866  0.7149 -0.9157 -1.9545
   30DOPE    C3 3768   0.063   6.950   6.796 -0.6423  0.5034 -0.8604
   30DOPE    HX 3769   0.135   7.008   6.858 -0.0468 -1.3286  0.2430
   30DOPE    HY 3770  -0.041   6.984   6.810 -1.0960 -1.7981  2.4527
   30DOPE   O31 3771   0.108   6.944   6.655 -0.7855  0.2742  0.0886
   30DOPE   C31 3772   0.015   6.899   6.575  0.1792 -0.2221 -0.2020
   30DOPE   O32 3773  -0.102   6.890   6.606  0.6598 -0.4005  0.4017
   30DOPE   C32 3774   0.084   6.865   6.440  0.1966  0.0342  0.1920
   30DOPE   H2X 3775   0.102   6.965   6.395  2.0965 -0.3267  0.0691
   30DOPE   H2Y 3776   0.183   6.820   6.466 -0.2064  0.0310  1.8500
   30DOPE   C23 3777   0.422   6.534   6.721 -0.6396  0.5095  0.2162
   30DOPE   H3R 3778   0.387   6.429   6.719  0.8627  0.0014  0.0175
   30DOPE   H3S 3779   0.533   6.526   6.720 -0.5350  1.7873 -1.1263
   30DOPE   C24 3780   0.402   6.615   6.595 -0.0276 -0.2076 -0.8613
   30DOPE   H4R 3781   0.469   6.703   6.605 -1.4807  0.7174  1.8095
   30DOPE   H4S 3782   0.296   6.645   6.587 -0.5324 -1.5492  0.3210
   30DOPE   C25 3783   0.438   6.538   6.466  0.6961 -0.2551 -0.1985
   30DOPE   H5R 3784   0.393   6.437   6.464  0.7954 -0.2992 -1.7102
   30DOPE   H5S 3785   0.547   6.516   6.468  1.2479  2.1902 -0.6581
   30DOPE   C26 3786   0.404   6.614   6.336 -0.0408  0.2548  0.5192
   30DOPE   H6R 3787   0.446   6.713   6.363  1.1858 -0.2415  0.4550
   30DOPE   H6S 3788   0.296   6.641   6.330 -0.3176 -0.5889  1.5582
   30DOPE   C27 3789   0.466   6.553   6.215  0.3454 -0.2484  0.0404
   30DOPE   H7R 3790   0.568   6.517   6.240  0.6055  2.4339  3.5068
   30DOPE   H7S 3791   0.471   6.631   6.136  0.0108 -0.7282 -0.4627
   30DOPE   C28 3792   0.384   6.427   6.160  0.3792 -0.8252 -0.4456
   30DOPE   H8R 3793   0.276   6.451   6.167  0.6938  0.2363  1.8561
   30DOPE   H8S 3794   0.387   6.353   6.242 -0.7865  0.8719  1.2421
   30DOPE   C29 3795   0.431   6.368   6.030 -0.7731 -0.4731  0.0836
   30DOPE   H9R 3796   0.530   6.319   6.034 -0.4518  0.1095 -0.5592
   30DOPE  C210 3797   0.369   6.353   5.909  0.1060  0.0220  0.1508
   30DOPE  H10R 3798   0.433   6.310   5.830  1.3420  0.2504  0.9976
   30DOPE  C211 3799   0.233   6.405   5.881  0.2121  0.3182  0.0689
   30DOPE  H11R 3800   0.197   6.474   5.960  0.4242  2.6762 -1.7651
   30DOPE  H11S 3801   0.164   6.319   5.870 -1.9909  2.0046 -0.0315
   30DOPE  C212 3802   0.231   6.509   5.761 -0.0289 -0.1562  0.2396
   30DOPE  H12R 3803   0.291   6.476   5.674 -0.0872  0.0338  0.1280
   30DOPE  H12S 3804   0.265   6.606   5.804 -0.7535  0.0706  0.3213
   30DOPE  C213 3805   0.090   6.531   5.702  0.0902  0.0758  0.1862
   30DOPE  H13R 3806   0.079   6.608   5.623 -0.5286  0.2272  0.4177
   30DOPE  H13S 3807   0.021   6.541   5.788  0.3064 -2.2981  0.6995
   30DOPE  C214 3808   0.037   6.406   5.634  0.1595  0.1038 -0.0323
   30DOPE  H14R 3809  -0.070   6.422   5.609 -0.0371 -3.4290 -2.0990
   30DOPE  H14S 3810   0.052   6.318   5.700 -2.6364 -1.8436 -1.8071
   30DOPE  C215 3811   0.111   6.366   5.502 -0.5798 -0.8301  0.4057
   30DOPE  H15R 3812   0.085   6.262   5.474  0.1708 -1.1037  0.7243
   30DOPE  H15S 3813   0.221   6.361   5.516 -0.5781 -0.6568  0.4548
   30DOPE  C216 3814   0.068   6.443   5.373  0.3947 -0.0346 -0.0906
   30DOPE  H16R 3815   0.091   6.549   5.397  3.6355 -1.0133  1.8383
   30DOPE  H16S 3816  -0.038   6.439   5.339  1.1492 -1.8466 -2.4843
   30DOPE  C217 3817   0.164   6.409   5.258  0.1824 -0.0384  0.0711
   30DOPE  H17R 3818   0.141   6.312   5.208  0.0152 -0.7764  1.5493
   30DOPE  H17S 3819   0.263   6.404   5.307  0.0065  1.2650  0.5991
   30DOPE  C218 3820   0.146   6.518   5.153  0.1493  0.4968 -0.5666
   30DOPE  H18R 3821   0.226   6.495   5.079 -0.4647 -0.5934 -0.9120
   30DOPE  H18S 3822   0.156   6.624   5.185 -1.2011  0.6246 -0.4934
   30DOPE  H18T 3823   0.045   6.504   5.108  0.2617  2.0138 -1.3396
   30DOPE   C33 3824   0.004   6.771   6.361  0.4263  0.1070 -0.0397
   30DOPE   H3X 3825  -0.105   6.788   6.375  0.3548 -1.0652  1.0131
   30DOPE   H3Y 3826   0.021   6.671   6.407  0.4200 -0.5498 -1.4070
   30DOPE   C34 3827   0.028   6.758   6.211  0.0405  0.1715  0.6511
   30DOPE   H4X 3828   0.022   6.866   6.186 -1.0666  0.3205  1.4754
   30DOPE   H4Y 3829   0.123   6.706   6.186  0.6622  1.5925 -0.0507
   30DOPE   C35 3830  -0.093   6.695   6.133 -0.3518 -0.7620 -0.1743
   30DOPE   H5X 3831  -0.078   6.729   6.029  0.6908 -0.6608 -0.0008
   30DOPE   H5Y 3832  -0.179   6.752   6.174  0.5157 -0.1467  0.8259
   30DOPE   C36 3833  -0.126   6.542   6.136 -0.0926  0.4511  0.5024
   30DOPE   H6X 3834  -0.123   6.509   6.241 -0.1382 -0.2956  0.2741
   30DOPE   H6Y 3835  -0.054   6.486   6.073 -1.4401 -1.9552  1.0165
   30DOPE   C37 3836  -0.269   6.524   6.080  0.1168 -0.4140 -0.5905
   30DOPE   H7X 3837  -0.316   6.434   6.125 -1.7013  1.1960  0.8868
   30DOPE   H7Y 3838  -0.330   6.611   6.113 -0.0193 -1.2695  1.5680
   30DOPE   C38 3839  -0.275   6.506   5.921  0.4302 -0.0551  0.0265
   30DOPE   H8X 3840  -0.217   6.417   5.888 -3.0742 -1.3126 -3.5551
   30DOPE   H8Y 3841  -0.241   6.594   5.863 -0.2835 -1.3552 -2.4873
   30DOPE   C39 3842  -0.412   6.462   5.879 -0.0369  0.0011  0.0123
   30DOPE   H9X 3843  -0.490   6.520   5.930 -0.8808 -1.8143  0.8452
   30DOPE  C310 3844  -0.446   6.385   5.773  0.2062 -0.3644  0.0039
   30DOPE  H10X 3845  -0.553   6.372   5.749  0.2290 -0.0559 -0.2775
   30DOPE  C311 3846  -0.353   6.307   5.676 -0.0153 -0.0805  0.4597
   30DOPE  H11X 3847  -0.253   6.356   5.671  0.0608 -0.2505  0.2669
   30DOPE  H11Y 3848  -0.333   6.208   5.723 -0.5941 -0.3972  0.0519
   30DOPE  C312 3849  -0.410   6.291   5.533  0.9713 -0.1268  0.1975
   30DOPE  H12X 3850  -0.433   6.391   5.492  3.9064 -0.2400 -2.0255
   30DOPE  H12Y 3851  -0.500   6.226   5.532  1.7268 -1.2068 -0.6826
   30DOPE  C313 3852  -0.313   6.240   5.428  0.0810 -0.4866 -0.2258
   30DOPE  H13X 3853  -0.368   6.227   5.333  0.5641 -1.4438 -0.3752
   30DOPE  H13Y 3854  -0.249   6.327   5.402 -2.0723  0.3876 -3.1135
   30DOPE  C314 3855  -0.219   6.116   5.466  0.0639  0.3138  0.2681
   30DOPE  H14X 3856  -0.288   6.035   5.499 -0.6658  0.9279  0.2955
   30DOPE  H14Y 3857  -0.158   6.149   5.553  0.7702  0.4645 -0.2779
   30DOPE  C315 3858  -0.122   6.068   5.349  0.1943  0.1093  0.3743
   30DOPE  H15X 3859  -0.041   6.142   5.332  0.4784 -0.6331 -1.7067
   30DOPE  H15Y 3860  -0.187   6.069   5.258 -0.5008  2.8090  0.7958
   30DOPE  C316 3861  -0.072   5.925   5.379 -0.4920 -0.2349  0.1065
   30DOPE  H16X 3862  -0.031   5.874   5.289 -0.6660  0.2114 -0.2240
   30DOPE  H16Y 3863  -0.160   5.867   5.415 -1.8000  1.3437 -0.4592
   30DOPE  C317 3864   0.047   5.936   5.468  0.3371  0.6006  0.0344
   30DOPE  H17X 3865   0.127   5.994   5.418  1.4431 -1.4860 -0.7336
   30DOPE  H17Y 3866   0.017   5.992   5.559 -1.7842  1.7193 -1.2460
   30DOPE  C318 3867   0.108   5.801   5.492  0.0493  0.7188 -0.0370
   30DOPE  H18X 3868   0.045   5.723   5.540  0.6850 -0.9876 -1.8561
   30DOPE  H18Y 3869   0.149   5.766   5.395  0.0443 -1.0061  0.5645
   30DOPE  H18Z 3870   0.194   5.814   5.560 -1.0213  0.0730  1.4887
   31DOPE     N 3871   2.858   4.062   3.420 -0.7819  0.6348 -0.4383
   31DOPE   HN1 3872   2.804   4.020   3.497  0.2533 -0.0607 -0.0717
   31DOPE   HN2 3873   2.884   4.154   3.461 -0.2566 -0.2586  1.3273
   31DOPE   HN3 3874   2.789   4.075   3.343  0.0724  2.6301 -0.9623
   31DOPE   C12 3875   2.976   3.982   3.373  0.7452 -0.5348 -0.4636
   31DOPE  H12A 3876   3.061   4.010   3.438  0.5482  1.8314 -1.1517
   31DOPE  H12B 3877   3.009   4.029   3.278  0.1973  0.1345 -0.3322
   31DOPE   C11 3878   2.943   3.829   3.392 -0.8405 -1.1504 -0.3579
   31DOPE  H11A 3879   2.945   3.816   3.502  0.5626  2.3042  0.1434
   31DOPE  H11B 3880   3.035   3.776   3.361  1.5178  0.9763  2.3697
   31DOPE     P 3881   2.796   3.636   3.294 -0.6343 -0.3552  0.2327
   31DOPE   O13 3882   2.895   3.579   3.202  0.0170  0.0143 -0.4032
   31DOPE   O14 3883   2.653   3.615   3.253 -0.5304 -0.2445 -0.1231
   31DOPE   O11 3884   2.830   3.573   3.438  0.3823  0.0555  0.1725
   31DOPE   O12 3885   2.830   3.794   3.308 -0.3377  0.1744  0.3201
   31DOPE    C1 3886   2.714   3.539   3.520 -0.7296  0.2851 -0.1243
   31DOPE    HA 3887   2.625   3.500   3.465 -0.1319  1.4910 -2.0577
   31DOPE    HB 3888   2.678   3.632   3.569  0.1721  0.1163  0.8856
   31DOPE    C2 3889   2.759   3.444   3.637  0.1867  0.2925 -0.1311
   31DOPE    HS 3890   2.667   3.440   3.700  0.0737  0.5607 -0.2766
   31DOPE   O21 3891   2.869   3.482   3.723  0.2549  0.0547 -0.1425
   31DOPE   C21 3892   2.875   3.596   3.784 -0.3274 -0.3830 -1.0541
   31DOPE   O22 3893   2.796   3.689   3.776  0.3919 -0.8714 -0.0995
   31DOPE   C22 3894   2.999   3.604   3.876  0.9299  0.1067 -0.1962
   31DOPE   H2R 3895   3.091   3.576   3.821 -0.9216 -1.2831 -2.7806
   31DOPE   H2S 3896   2.969   3.530   3.953 -1.2008  1.2082  0.1101
   31DOPE    C3 3897   2.787   3.295   3.596 -0.1099 -0.5547  0.6081
   31DOPE    HX 3898   2.887   3.294   3.548  0.3796 -2.0631  1.6114
   31DOPE    HY 3899   2.716   3.243   3.527  0.8004  0.3165 -1.0474
   31DOPE   O31 3900   2.804   3.220   3.720 -0.3013 -0.4900  0.0109
   31DOPE   C31 3901   2.690   3.181   3.781  0.1482  0.4944 -0.1937
   31DOPE   O32 3902   2.578   3.201   3.735 -0.0312  0.6796 -0.1337
   31DOPE   C32 3903   2.716   3.098   3.899 -0.7725  0.2996 -0.6342
   31DOPE   H2X 3904   2.619   3.059   3.935  0.1790  0.2697  2.1394
   31DOPE   H2Y 3905   2.775   3.007   3.874 -1.1023  0.3591 -1.6507
   31DOPE   C23 3906   3.028   3.743   3.937  0.2622 -1.0209 -0.1113
   31DOPE   H3R 3907   2.943   3.780   3.999  1.0680  0.0228  0.3806
   31DOPE   H3S 3908   3.043   3.818   3.857 -0.4621 -2.3583 -1.5634
   31DOPE   C24 3909   3.147   3.738   4.030  0.5281  0.3936  0.0791
   31DOPE   H4R 3910   3.239   3.710   3.973  1.7465  1.3686  1.4864
   31DOPE   H4S 3911   3.120   3.660   4.104 -1.5023  1.4724  0.5519
   31DOPE   C25 3912   3.185   3.871   4.107  0.3215 -0.6307 -0.0758
   31DOPE   H5R 3913   3.090   3.919   4.137  1.5772  0.7093  2.0684
   31DOPE   H5S 3914   3.235   3.940   4.035 -1.7559  1.1314  0.0765
   31DOPE   C26 3915   3.283   3.846   4.225 -0.2930 -0.0494 -0.9871
   31DOPE   H6R 3916   3.384   3.877   4.188 -0.3334  0.9517 -0.3172
   31DOPE   H6S 3917   3.288   3.738   4.249  0.1682  0.3084  0.7103
   31DOPE   C27 3918   3.254   3.913   4.353  0.2814  0.1001 -0.5254
   31DOPE   H7R 3919   3.144   3.910   4.366  0.4008  1.7938  1.5266
   31DOPE   H7S 3920   3.292   4.018   4.359 -1.4164  0.6952  0.9717
   31DOPE   C28 3921   3.311   3.844   4.479 -0.1410  0.2526 -0.0911
   31DOPE   H8R 3922   3.421   3.854   4.484 -0.1006 -0.7517  2.2884
   31DOPE   H8S 3923   3.283   3.738   4.465  1.8110 -0.1155 -1.4877
   31DOPE   C29 3924   3.256   3.912   4.602 -0.3545 -0.1653 -0.7721
   31DOPE   H9R 3925   3.147   3.908   4.618 -0.0284  0.5704  2.2022
   31DOPE  C210 3926   3.322   3.993   4.686  0.5314 -0.6304  0.2655
   31DOPE  H10R 3927   3.254   4.022   4.767  1.2457 -0.3344  0.7635
   31DOPE  C211 3928   3.465   4.040   4.687 -0.0922  0.6224 -0.2142
   31DOPE  H11R 3929   3.476   4.114   4.604  1.4053  0.1677 -0.4425
   31DOPE  H11S 3930   3.543   3.968   4.654  1.1971  2.0767 -0.4685
   31DOPE  C212 3931   3.505   4.129   4.810  0.0482 -0.8414 -0.5546
   31DOPE  H12R 3932   3.529   4.060   4.893  0.6279  0.0807  0.0573
   31DOPE  H12S 3933   3.417   4.188   4.843  1.4656  1.1826 -0.2541
   31DOPE  C213 3934   3.606   4.239   4.775 -0.2531  0.2464  0.2392
   31DOPE  H13R 3935   3.618   4.300   4.867  0.8856 -1.1971  1.0962
   31DOPE  H13S 3936   3.577   4.301   4.687 -0.4061  0.5317  0.4890
   31DOPE  C214 3937   3.751   4.191   4.753 -0.0116 -0.1853  0.1177
   31DOPE  H14R 3938   3.764   4.144   4.653 -0.0662 -1.7194  0.7981
   31DOPE  H14S 3939   3.767   4.110   4.827 -2.5228 -3.4568 -2.6081
   31DOPE  C215 3940   3.858   4.300   4.743 -0.0018  0.0322  0.1467
   31DOPE  H15R 3941   3.852   4.361   4.836  1.5802  1.7470 -0.8065
   31DOPE  H15S 3942   3.823   4.364   4.659 -0.8040 -0.0283  0.4253
   31DOPE  C216 3943   4.003   4.240   4.713  1.2865  0.6572  0.4898
   31DOPE  H16R 3944   4.021   4.205   4.609  0.4501 -2.3151  1.2366
   31DOPE  H16S 3945   4.024   4.154   4.780 -0.1987 -0.3087 -0.2300
   31DOPE  C217 3946   4.122   4.331   4.756  0.4226  0.4833 -0.2951
   31DOPE  H17R 3947   4.099   4.337   4.864 -2.5363 -3.1125 -0.5429
   31DOPE  H17S 3948   4.101   4.431   4.710 -1.9132 -0.2882 -1.0725
   31DOPE  C218 3949   4.256   4.292   4.712  0.6528  0.4867 -0.4885
   31DOPE  H18R 3950   4.288   4.313   4.607 -0.5897 -0.1594 -1.0140
   31DOPE  H18S 3951   4.281   4.185   4.728  2.1351  1.0289  1.1677
   31DOPE  H18T 3952   4.327   4.330   4.789 -0.3781 -0.2337  0.8677
   31DOPE   C33 3953   2.790   3.183   4.005 -0.0429  0.3232  0.4184
   31DOPE   H3X 3954   2.719   3.255   4.049 -0.6724 -1.2436  2.0860
   31DOPE   H3Y 3955   2.871   3.242   3.957 -0.2501  1.5739  1.5482
   31DOPE   C34 3956   2.842   3.098   4.114  0.1576  0.4756  0.5618
   31DOPE   H4X 3957   2.781   3.005   4.114 -0.5564  0.9291 -0.3844
   31DOPE   H4Y 3958   2.948   3.079   4.088  0.0660  0.6002  0.1074
   31DOPE   C35 3959   2.838   3.158   4.252 -0.2154  0.7848 -0.2912
   31DOPE   H5X 3960   2.729   3.173   4.267 -0.1996 -0.1119  0.8774
   31DOPE   H5Y 3961   2.881   3.258   4.275  0.4417  0.1665  1.3258
   31DOPE   C36 3962   2.868   3.062   4.367 -0.1471  0.4189 -0.7273
   31DOPE   H6X 3963   2.783   2.992   4.379  0.4799 -0.4237 -1.0793
   31DOPE   H6Y 3964   2.883   3.112   4.466 -0.2455 -1.0296  0.0504
   31DOPE   C37 3965   2.984   2.965   4.329  0.5902 -0.6745 -0.0053
   31DOPE   H7X 3966   2.955   2.893   4.249  0.4738  0.1561 -0.7271
   31DOPE   H7Y 3967   3.067   3.025   4.285  0.2095 -0.7817 -0.8880
   31DOPE   C38 3968   3.043   2.891   4.449 -0.3450  0.4171  0.4011
   31DOPE   H8X 3969   2.961   2.878   4.523 -0.3801  0.4327  0.3654
   31DOPE   H8Y 3970   3.114   2.966   4.488  2.0131 -1.6862  0.4410
   31DOPE   C39 3971   3.111   2.760   4.415  0.0892  0.1162  0.0611
   31DOPE   H9X 3972   3.051   2.668   4.422  1.6111 -0.8289  1.2907
   31DOPE  C310 3973   3.241   2.752   4.377 -0.3754 -0.0575 -0.2808
   31DOPE  H10X 3974   3.289   2.654   4.358 -0.0923 -0.7540  3.1773
   31DOPE  C311 3975   3.334   2.865   4.355 -0.0506  0.0280  0.5621
   31DOPE  H11X 3976   3.321   2.902   4.250 -2.6678  2.4223  1.5919
   31DOPE  H11Y 3977   3.312   2.951   4.422  1.2067  0.3973  0.5257
   31DOPE  C312 3978   3.480   2.830   4.377  0.4792  0.0686 -0.0391
   31DOPE  H12X 3979   3.547   2.910   4.339  0.4367  0.2568  0.2816
   31DOPE  H12Y 3980   3.505   2.743   4.313 -1.7953 -0.4472 -0.3299
   31DOPE  C313 3981   3.515   2.809   4.525 -0.1613 -0.4587 -0.3774
   31DOPE  H13X 3982   3.478   2.896   4.584 -0.5809  0.4135 -1.8802
   31DOPE  H13Y 3983   3.471   2.714   4.562  1.6607 -2.1187 -2.2184
   31DOPE  C314 3984   3.671   2.799   4.531  0.2138  0.1436 -0.3143
   31DOPE  H14X 3985   3.694   2.743   4.438  1.1335 -0.8543  0.4841
   31DOPE  H14Y 3986   3.695   2.736   4.620 -2.5500  1.8042  1.7913
   31DOPE  C315 3987   3.754   2.928   4.550 -0.1621 -0.3523  0.6564
   31DOPE  H15X 3988   3.754   2.988   4.456 -1.4275  0.6942  1.2890
   31DOPE  H15Y 3989   3.855   2.889   4.574 -0.3816 -1.1343  0.3441
   31DOPE  C316 3990   3.705   3.007   4.666  0.2122  0.1950  0.8340
   31DOPE  H16X 3991   3.676   2.931   4.742 -0.0406  0.2951  0.8405
   31DOPE  H16Y 3992   3.617   3.071   4.643 -0.5372 -1.0563  0.1248
   31DOPE  C317 3993   3.806   3.099   4.735  0.2956 -0.4836  0.0868
   31DOPE  H17X 3994   3.758   3.141   4.826  0.9784 -1.9115  1.1466
   31DOPE  H17Y 3995   3.890   3.043   4.782  0.0798  1.3452  2.9262
   31DOPE  C318 3996   3.863   3.216   4.647 -0.0182 -0.2687  0.0390
   31DOPE  H18X 3997   3.965   3.191   4.610  0.2375  2.0739 -0.9730
   31DOPE  H18Y 3998   3.808   3.250   4.557 -0.0710 -1.7521 -0.5137
   31DOPE  H18Z 3999   3.875   3.299   4.720 -0.8534 -0.1480  0.0444
   32DOPE     N 4000   5.180   2.877   2.552  0.0151  0.1770  0.0107
   32DOPE   HN1 4001   5.205   2.949   2.623 -3.3602  1.5299  0.0148
   32DOPE   HN2 4002   5.078   2.864   2.565  0.1102 -1.9413 -0.9997
   32DOPE   HN3 4003   5.235   2.790   2.564  0.0258  0.0870 -0.7066
   32DOPE   C12 4004   5.211   2.944   2.416 -0.4921 -0.0932 -0.0035
   32DOPE  H12A 4005   5.146   3.034   2.410 -0.8026 -0.3541 -0.6524
   32DOPE  H12B 4006   5.182   2.875   2.334  1.6188  2.1544 -2.8968
   32DOPE   C11 4007   5.364   2.976   2.411 -0.1413 -0.0236  0.3559
   32DOPE  H11A 4008   5.379   3.029   2.315  1.6022 -0.6391  0.2577
   32DOPE  H11B 4009   5.431   2.888   2.403  0.6020  0.4102  1.5866
   32DOPE     P 4010   5.560   3.077   2.545  0.3789  0.1113 -0.2269
   32DOPE   O13 4011   5.580   3.187   2.640 -0.0105 -0.0465  0.7887
   32DOPE   O14 4012   5.630   3.086   2.413 -0.4630 -0.2959 -0.2133
   32DOPE   O11 4013   5.617   2.948   2.613  0.1694  0.4677  0.2124
   32DOPE   O12 4014   5.405   3.047   2.527  0.7454  0.0720  0.6762
   32DOPE    C1 4015   5.546   2.895   2.723 -0.4567  0.5880 -0.4890
   32DOPE    HA 4016   5.567   2.786   2.714  0.8312  0.9315 -2.2042
   32DOPE    HB 4017   5.436   2.911   2.717 -0.1344  2.6729 -2.0239
   32DOPE    C2 4018   5.589   2.961   2.856 -0.3094  0.0483 -0.4269
   32DOPE    HS 4019   5.616   3.066   2.834  2.6952 -0.8287 -1.4515
   32DOPE   O21 4020   5.709   2.894   2.900 -0.1019 -0.2764  0.0495
   32DOPE   C21 4021   5.798   2.973   2.960  0.0033  0.1450  0.1428
   32DOPE   O22 4022   5.794   3.092   2.968  0.4227 -0.5302  0.2987
   32DOPE   C22 4023   5.908   2.888   3.023  0.7035 -0.0752 -0.9903
   32DOPE   H2R 4024   5.956   2.826   2.944  0.2654 -1.6169 -0.0918
   32DOPE   H2S 4025   5.862   2.832   3.107  0.9517  1.0187 -0.1061
   32DOPE    C3 4026   5.486   2.942   2.964 -0.4704  0.0433 -0.2709
   32DOPE    HX 4027   5.478   2.834   2.987  0.9938  0.1464  0.8788
   32DOPE    HY 4028   5.392   2.981   2.921 -0.1914  2.1964  0.9286
   32DOPE   O31 4029   5.519   3.007   3.092 -0.1383 -0.3874  0.2169
   32DOPE   C31 4030   5.515   3.142   3.087 -0.0333  0.8389 -0.0209
   32DOPE   O32 4031   5.492   3.213   2.991 -0.2356  0.2149  0.0684
   32DOPE   C32 4032   5.550   3.199   3.227 -0.0881 -0.2100 -0.3807
   32DOPE   H2X 4033   5.467   3.157   3.287  0.5128  1.1213  1.4774
   32DOPE   H2Y 4034   5.650   3.159   3.255  0.1669  1.0833  0.6528
   32DOPE   C23 4035   6.018   2.970   3.093 -0.0430  0.5121  0.2931
   32DOPE   H3R 4036   6.046   3.055   3.028 -1.9526  0.8517 -0.1470
   32DOPE   H3S 4037   6.097   2.894   3.111 -0.7701 -0.4195 -0.3095
   32DOPE   C24 4038   5.978   3.026   3.224 -0.3618 -0.6483 -0.4140
   32DOPE   H4R 4039   5.971   2.942   3.296 -0.9040  0.3523  0.7491
   32DOPE   H4S 4040   5.882   3.083   3.225  0.1368  0.2123  0.8013
   32DOPE   C25 4041   6.091   3.118   3.281 -0.2304  0.5978  0.0522
   32DOPE   H5R 4042   6.120   3.186   3.199 -0.7822  0.5733 -0.1730
   32DOPE   H5S 4043   6.181   3.058   3.306 -0.7795 -0.1384  0.3268
   32DOPE   C26 4044   6.045   3.211   3.402 -0.1524 -0.7494  0.0901
   32DOPE   H6R 4045   5.949   3.259   3.373  0.2747 -0.0967 -0.2548
   32DOPE   H6S 4046   6.113   3.299   3.398 -1.6834  0.4351 -2.1770
   32DOPE   C27 4047   6.049   3.132   3.535  0.0934  0.1570  1.1023
   32DOPE   H7R 4048   6.150   3.093   3.557  0.6761  1.4240  0.7112
   32DOPE   H7S 4049   5.995   3.035   3.525 -0.2331  0.4072  0.4203
   32DOPE   C28 4050   6.000   3.222   3.653  0.4544  0.1536 -0.4105
   32DOPE   H8R 4051   5.907   3.274   3.622 -1.1701 -3.3773 -2.0469
   32DOPE   H8S 4052   6.081   3.296   3.672  0.8794 -0.5259  0.5071
   32DOPE   C29 4053   5.972   3.126   3.769 -0.6749 -0.2453  0.5907
   32DOPE   H9R 4054   5.895   3.049   3.758 -0.4559 -0.4414  0.4062
   32DOPE  C210 4055   6.047   3.120   3.883 -0.8787  0.1686  0.1232
   32DOPE  H10R 4056   6.017   3.047   3.960 -1.3852 -0.6166 -0.8036
   32DOPE  C211 4057   6.172   3.203   3.905  0.1922 -0.8491 -0.5380
   32DOPE  H11R 4058   6.213   3.261   3.820 -0.2489 -2.9380 -2.2658
   32DOPE  H11S 4059   6.253   3.128   3.918  0.4218 -0.6657 -0.9139
   32DOPE  C212 4060   6.152   3.279   4.041 -0.3193  0.5205 -0.4624
   32DOPE  H12R 4061   6.062   3.343   4.050 -1.3616 -1.1618  2.3389
   32DOPE  H12S 4062   6.240   3.347   4.045  0.1291 -0.0903  0.3103
   32DOPE  C213 4063   6.176   3.192   4.160  0.0827  0.4135  0.3100
   32DOPE  H13R 4064   6.269   3.134   4.144  0.2828  1.1717 -1.4752
   32DOPE  H13S 4065   6.107   3.106   4.174  3.4281 -2.3504  1.0813
   32DOPE  C214 4066   6.188   3.272   4.295 -0.2389  0.0455  0.5898
   32DOPE  H14R 4067   6.101   3.342   4.293 -0.4955 -0.2622 -1.2168
   32DOPE  H14S 4068   6.279   3.335   4.295 -0.1442 -0.0456  2.3027
   32DOPE  C215 4069   6.201   3.178   4.420  0.2310  0.4236 -0.0980
   32DOPE  H15R 4070   6.296   3.122   4.406  1.2599  2.0295  0.1726
   32DOPE  H15S 4071   6.116   3.109   4.436 -0.4511  1.5529  1.4235
   32DOPE  C216 4072   6.220   3.245   4.562  0.3999 -0.4274 -0.4575
   32DOPE  H16R 4073   6.126   3.304   4.575  1.2707  1.5433 -2.4498
   32DOPE  H16S 4074   6.291   3.327   4.583 -1.0738  0.8187 -0.1138
   32DOPE  C217 4075   6.243   3.142   4.680 -0.8106 -0.2334 -0.8690
   32DOPE  H17R 4076   6.326   3.072   4.660  0.9063  1.2435  0.7173
   32DOPE  H17S 4077   6.157   3.072   4.685  0.8561 -2.3121  0.5774
   32DOPE  C218 4078   6.257   3.216   4.809 -0.3881 -0.1710  0.2112
   32DOPE  H18R 4079   6.253   3.145   4.894  0.2693 -0.8642 -0.3208
   32DOPE  H18S 4080   6.176   3.291   4.823  0.3317  0.9733 -1.4376
   32DOPE  H18T 4081   6.353   3.272   4.807 -0.5970  0.2346  1.0594
   32DOPE   C33 4082   5.549   3.350   3.252  0.1398 -0.2772  0.0906
   32DOPE   H3X 4083   5.439   3.370   3.255 -0.0220 -1.1312  0.2933
   32DOPE   H3Y 4084   5.595   3.418   3.178 -0.2670 -0.0996 -0.0046
   32DOPE   C34 4085   5.592   3.385   3.400  0.4058  0.2047  0.3804
   32DOPE   H4X 4086   5.703   3.378   3.401  0.4878 -0.2081 -2.7326
   32DOPE   H4Y 4087   5.569   3.493   3.416 -3.1194 -0.5479  1.1492
   32DOPE   C35 4088   5.530   3.291   3.503  0.5709 -0.1110  0.0554
   32DOPE   H5X 4089   5.553   3.183   3.488  2.0293  0.4423 -2.0989
   32DOPE   H5Y 4090   5.420   3.306   3.490  0.9636  2.7371 -0.6226
   32DOPE   C36 4091   5.583   3.327   3.640  0.0451  0.0617 -0.3166
   32DOPE   H6X 4092   5.546   3.429   3.665  1.1789 -0.1873  2.9189
   32DOPE   H6Y 4093   5.692   3.337   3.655  0.0788  1.8254 -1.4593
   32DOPE   C37 4094   5.526   3.233   3.747  0.3767  0.1432  0.1939
   32DOPE   H7X 4095   5.416   3.224   3.729  0.5462 -0.6865 -0.4782
   32DOPE   H7Y 4096   5.579   3.138   3.725  0.9625  0.3753  0.5844
   32DOPE   C38 4097   5.548   3.278   3.886 -0.5871 -0.4241 -0.3783
   32DOPE   H8X 4098   5.470   3.243   3.957 -1.3208  1.9238  0.0820
   32DOPE   H8Y 4099   5.541   3.388   3.900  0.8315 -0.4782  0.9414
   32DOPE   C39 4100   5.680   3.228   3.942  0.3037  0.7664 -0.2275
   32DOPE   H9X 4101   5.770   3.271   3.895  2.1483 -0.0426  2.3120
   32DOPE  C310 4102   5.703   3.161   4.060  0.2185 -0.2447 -0.7177
   32DOPE  H10X 4103   5.809   3.139   4.079 -0.5049 -2.2851  1.4189
   32DOPE  C311 4104   5.607   3.096   4.154 -0.0354 -0.5265  0.2046
   32DOPE  H11X 4105   5.516   3.159   4.163 -0.7987 -1.0192 -2.9688
   32DOPE  H11Y 4106   5.570   3.001   4.111 -0.8336  0.1774 -0.7232
   32DOPE  C312 4107   5.664   3.079   4.298 -0.2427 -0.8474 -0.4486
   32DOPE  H12X 4108   5.757   3.019   4.285  1.6053  1.6876  0.0467
   32DOPE  H12Y 4109   5.599   3.026   4.370  0.4543  0.0670  0.9075
   32DOPE  C313 4110   5.700   3.217   4.368  0.8933 -0.1455 -0.4044
   32DOPE  H13X 4111   5.775   3.278   4.313  0.3750  1.3823  0.5113
   32DOPE  H13Y 4112   5.611   3.282   4.356  0.3530 -0.3187  2.0864
   32DOPE  C314 4113   5.740   3.218   4.516  0.1701  0.5306 -0.1010
   32DOPE  H14X 4114   5.651   3.222   4.583  1.2926  2.2836  1.3720
   32DOPE  H14Y 4115   5.809   3.304   4.529  1.0188 -0.2596  0.7441
   32DOPE  C315 4116   5.824   3.093   4.563 -0.4670 -0.3181 -0.1438
   32DOPE  H15X 4117   5.919   3.093   4.506 -0.0868 -0.9357  0.4827
   32DOPE  H15Y 4118   5.758   3.007   4.538  0.5848 -0.8338 -1.2047
   32DOPE  C316 4119   5.831   3.094   4.719 -0.0555 -0.1746  0.0191
   32DOPE  H16X 4120   5.737   3.136   4.761 -1.9095 -3.0755 -0.9834
   32DOPE  H16Y 4121   5.910   3.169   4.742  0.0111  0.2439 -1.4938
   32DOPE  C317 4122   5.856   2.959   4.789  0.1968 -0.0955 -0.1551
   32DOPE  H17X 4123   5.771   2.892   4.766 -1.4426  0.8993  2.6063
   32DOPE  H17Y 4124   5.941   2.918   4.730 -1.3328  0.3618 -2.8396
   32DOPE  C318 4125   5.884   2.975   4.937  0.2911  0.2201 -0.4812
   32DOPE  H18X 4126   5.898   2.878   4.989 -0.7905 -0.4761 -1.4233
   32DOPE  H18Y 4127   5.974   3.033   4.963  1.0123 -1.5998  1.3296
   32DOPE  H18Z 4128   5.804   3.045   4.971 -0.7517 -0.7340 -0.8815
   33DOPE     N 4129   2.846   2.805   3.146  0.0993  0.5413 -0.5111
   33DOPE   HN1 4130   2.754   2.787   3.190 -0.0485 -0.3739 -1.1859
   33DOPE   HN2 4131   2.912   2.849   3.213  0.8768  1.2299 -1.6799
   33DOPE   HN3 4132   2.830   2.873   3.068 -0.7720  1.4971  0.4712
   33DOPE   C12 4133   2.901   2.669   3.109 -0.2139  0.0972 -0.1207
   33DOPE  H12A 4134   2.928   2.620   3.205 -0.0765 -0.5587 -0.4820
   33DOPE  H12B 4135   2.999   2.682   3.058 -0.3007 -1.6129 -0.7926
   33DOPE   C11 4136   2.806   2.593   3.027  0.4616 -0.2345 -0.0634
   33DOPE  H11A 4137   2.863   2.506   2.987 -0.1007 -0.4247 -0.4710
   33DOPE  H11B 4138   2.768   2.644   2.936  1.1527  1.3075  0.4851
   33DOPE     P 4139   2.578   2.614   3.161  0.0839 -0.4039 -0.2134
   33DOPE   O13 4140   2.480   2.512   3.191  0.2880 -0.1423 -0.0683
   33DOPE   O14 4141   2.529   2.723   3.074  0.5293 -0.5598  0.4861
   33DOPE   O11 4142   2.646   2.683   3.285 -0.8327 -0.3321  0.0142
   33DOPE   O12 4143   2.696   2.537   3.094  0.1551 -0.3029 -0.3401
   33DOPE    C1 4144   2.680   2.616   3.408  0.6917  0.3881 -0.1096
   33DOPE    HA 4145   2.788   2.619   3.431  1.6552 -1.0897 -3.8376
   33DOPE    HB 4146   2.643   2.512   3.415  0.0906  0.5807 -0.3317
   33DOPE    C2 4147   2.610   2.699   3.517  0.5031 -0.4185  0.0919
   33DOPE    HS 4148   2.663   2.797   3.517  1.6231 -0.9985 -0.1814
   33DOPE   O21 4149   2.609   2.620   3.641  0.2901 -0.1130 -0.2620
   33DOPE   C21 4150   2.609   2.697   3.746 -0.3797  0.0716  0.1859
   33DOPE   O22 4151   2.658   2.807   3.748 -0.6176 -0.4685 -0.6756
   33DOPE   C22 4152   2.552   2.631   3.872  0.1702 -0.0355 -0.4363
   33DOPE   H2R 4153   2.612   2.550   3.917 -2.4146 -0.1996  3.1539
   33DOPE   H2S 4154   2.454   2.584   3.849  1.9515 -3.3828 -1.7352
   33DOPE    C3 4155   2.460   2.731   3.471 -0.3032  0.1524 -0.2282
   33DOPE    HX 4156   2.401   2.638   3.460  0.2766 -0.2661  0.1540
   33DOPE    HY 4157   2.470   2.777   3.371 -0.6919 -0.9525 -0.7875
   33DOPE   O31 4158   2.393   2.810   3.568  0.0102  0.3444 -0.5252
   33DOPE   C31 4159   2.417   2.941   3.550  0.5731 -1.3926 -0.5049
   33DOPE   O32 4160   2.503   2.994   3.477 -0.3876  0.6903 -0.2292
   33DOPE   C32 4161   2.302   3.017   3.618  0.5019  0.0684 -0.0987
   33DOPE   H2X 4162   2.339   3.119   3.643  0.9088 -0.0617 -0.1649
   33DOPE   H2Y 4163   2.222   3.022   3.541  1.2043 -0.7107 -0.8988
   33DOPE   C23 4164   2.525   2.746   3.975  0.3633 -0.4147  0.5797
   33DOPE   H3R 4165   2.434   2.789   3.927  1.7894  1.2358 -0.7585
   33DOPE   H3S 4166   2.610   2.818   3.975  0.1745 -0.1501 -0.9877
   33DOPE   C24 4167   2.498   2.695   4.111  0.2746  0.3896 -0.3575
   33DOPE   H4R 4168   2.575   2.619   4.133  1.1832  1.0947 -1.0420
   33DOPE   H4S 4169   2.395   2.653   4.115 -0.1383  1.4027  0.2723
   33DOPE   C25 4170   2.500   2.806   4.221 -0.0496  0.2154  0.0276
   33DOPE   H5R 4171   2.429   2.890   4.205 -1.0947 -0.9533 -1.8392
   33DOPE   H5S 4172   2.602   2.845   4.202 -0.1243  0.2860 -0.2193
   33DOPE   C26 4173   2.488   2.763   4.365  0.0582  0.6360 -0.2698
   33DOPE   H6R 4174   2.401   2.694   4.376  2.6888 -2.9462 -0.1625
   33DOPE   H6S 4175   2.472   2.852   4.429 -0.9610 -1.4206  2.5579
   33DOPE   C27 4176   2.609   2.681   4.425 -0.1648  0.0170  0.5078
   33DOPE   H7R 4177   2.688   2.760   4.431 -2.3730  2.3722  0.3184
   33DOPE   H7S 4178   2.636   2.612   4.342 -1.1803 -0.7741  0.8168
   33DOPE   C28 4179   2.593   2.613   4.569 -0.5482  1.1253  0.4086
   33DOPE   H8R 4180   2.513   2.536   4.566  0.6818 -0.3376  2.4419
   33DOPE   H8S 4181   2.561   2.695   4.636  0.3209  3.0701 -1.4389
   33DOPE   C29 4182   2.712   2.533   4.617  0.3307  0.0515 -0.4114
   33DOPE   H9R 4183   2.761   2.466   4.544 -1.0616 -2.7439  1.0544
   33DOPE  C210 4184   2.753   2.514   4.749  0.0271 -1.2833 -0.0534
   33DOPE  H10R 4185   2.852   2.468   4.767  0.1601 -0.2117  2.3751
   33DOPE  C211 4186   2.693   2.590   4.864 -0.4910  0.2885 -0.2743
   33DOPE  H11R 4187   2.653   2.513   4.933 -0.7976 -0.7204 -1.5349
   33DOPE  H11S 4188   2.614   2.663   4.837  1.1859  2.1806 -0.3114
   33DOPE  C212 4189   2.800   2.666   4.938 -0.2766  0.3741  0.5866
   33DOPE  H12R 4190   2.848   2.740   4.870  2.5812 -1.1640  0.7650
   33DOPE  H12S 4191   2.879   2.591   4.959  2.9422  2.5886 -2.4244
   33DOPE  C213 4192   2.764   2.744   5.063 -0.3988  0.2078 -0.2031
   33DOPE  H13R 4193   2.722   2.677   5.140  1.2275  0.9010  1.3548
   33DOPE  H13S 4194   2.683   2.814   5.035  0.1537  0.3591 -1.5408
   33DOPE  C214 4195   2.885   2.809   5.129 -0.5320 -0.0537 -0.2530
   33DOPE  H14R 4196   2.936   2.873   5.054 -2.7498  1.3091 -0.6958
   33DOPE  H14S 4197   2.956   2.729   5.159  0.6905  1.4342  0.9936
   33DOPE  C215 4198   2.850   2.877   5.258 -1.2982  0.1450 -0.3658
   33DOPE  H15R 4199   2.786   2.811   5.319  0.9844  0.3641  2.5297
   33DOPE  H15S 4200   2.806   2.974   5.225  0.3992  0.5825 -1.4738
   33DOPE  C216 4201   2.973   2.906   5.351 -0.5257 -0.0619  0.2587
   33DOPE  H16R 4202   3.043   2.966   5.288 -0.3456 -1.0805 -0.5431
   33DOPE  H16S 4203   3.031   2.815   5.376 -0.7041 -0.5008 -0.8544
   33DOPE  C217 4204   2.936   2.994   5.471  0.7378 -0.0299 -0.4176
   33DOPE  H17R 4205   2.888   3.086   5.430  1.6247  1.1964  1.1825
   33DOPE  H17S 4206   3.030   3.018   5.526  0.4926  0.7924 -0.3455
   33DOPE  C218 4207   2.832   2.929   5.564 -0.6472  0.4124 -0.7155
   33DOPE  H18R 4208   2.748   2.891   5.502 -0.8822  1.5741 -1.1420
   33DOPE  H18S 4209   2.790   3.007   5.631 -0.6576  0.0005 -0.2310
   33DOPE  H18T 4210   2.881   2.846   5.619 -1.0502 -0.0817 -1.0941
   33DOPE   C33 4211   2.243   2.942   3.740  0.3273  0.1797 -0.8335
   33DOPE   H3X 4212   2.329   2.921   3.807 -0.6941 -0.0995  0.4304
   33DOPE   H3Y 4213   2.200   2.843   3.715  1.1405 -0.4853  0.2869
   33DOPE   C34 4214   2.129   3.024   3.798 -0.2389  0.5977 -0.1526
   33DOPE   H4X 4215   2.169   3.128   3.798  0.4249  0.3710 -1.4832
   33DOPE   H4Y 4216   2.047   3.017   3.723  2.2000  0.2131 -3.0230
   33DOPE   C35 4217   2.074   2.978   3.931  0.0166 -0.4203  0.3945
   33DOPE   H5X 4218   2.031   2.878   3.909  1.8937 -0.7984 -2.0137
   33DOPE   H5Y 4219   1.997   3.054   3.953  1.2546  0.8029  0.6449
   33DOPE   C36 4220   2.171   2.975   4.046  0.6711  0.4662 -1.1820
   33DOPE   H6X 4221   2.196   3.081   4.065 -0.1990  0.6591 -1.0891
   33DOPE   H6Y 4222   2.264   2.933   4.001  0.0887 -1.8496 -0.3878
   33DOPE   C37 4223   2.113   2.900   4.170  0.0242  0.2226  0.5422
   33DOPE   H7X 4224   2.042   2.819   4.142 -1.8861  2.5662 -2.0028
   33DOPE   H7Y 4225   2.197   2.860   4.231  1.7534  2.9675  0.1646
   33DOPE   C38 4226   2.021   2.989   4.253  0.0780  0.3080 -0.0825
   33DOPE   H8X 4227   1.948   3.029   4.179  1.0457  3.3202  0.4672
   33DOPE   H8Y 4228   2.068   3.086   4.279 -1.0443  0.5387  1.1915
   33DOPE   C39 4229   1.943   2.920   4.358 -0.7245 -0.1645  0.1187
   33DOPE   H9X 4230   1.901   2.824   4.326  0.3595 -0.0842 -1.7135
   33DOPE  C310 4231   1.943   2.954   4.490 -0.2880  0.4499  0.0483
   33DOPE  H10X 4232   1.888   2.898   4.567  0.1850  2.0950  1.6298
   33DOPE  C311 4233   2.016   3.071   4.556 -0.3162 -0.3903  0.8512
   33DOPE  H11X 4234   2.029   3.164   4.497  0.4557 -0.8152  0.3354
   33DOPE  H11Y 4235   1.972   3.101   4.654 -0.5527 -1.8867  1.2422
   33DOPE  C312 4236   2.161   3.031   4.584 -0.4310 -0.0059 -0.1345
   33DOPE  H12X 4237   2.209   3.130   4.595  1.0255 -0.4960 -1.7022
   33DOPE  H12Y 4238   2.213   2.988   4.496  0.4010  0.9727 -0.1388
   33DOPE  C313 4239   2.189   2.941   4.700 -0.4802 -0.1501 -0.9524
   33DOPE  H13X 4240   2.158   2.992   4.794  1.7187 -2.0425  0.9478
   33DOPE  H13Y 4241   2.127   2.849   4.697  0.5985 -0.8845 -1.4183
   33DOPE  C314 4242   2.337   2.908   4.715 -0.3282  0.4280  0.7750
   33DOPE  H14X 4243   2.377   2.859   4.624 -0.8481  2.9738 -0.9251
   33DOPE  H14Y 4244   2.340   2.839   4.803 -0.1629 -0.0340  0.4091
   33DOPE  C315 4245   2.437   3.021   4.747 -0.6867  0.1932  0.0318
   33DOPE  H15X 4246   2.397   3.070   4.838 -0.8737 -2.6263  1.5873
   33DOPE  H15Y 4247   2.431   3.088   4.659  0.0524 -2.2223 -1.9891
   33DOPE  C316 4248   2.589   2.969   4.745 -0.2702 -0.1616 -0.6231
   33DOPE  H16X 4249   2.613   2.922   4.647  0.1104 -0.3430 -0.4440
   33DOPE  H16Y 4250   2.600   2.893   4.825  2.9777  1.8922  1.0893
   33DOPE  C317 4251   2.694   3.077   4.772  0.2502  0.3853 -0.1799
   33DOPE  H17X 4252   2.694   3.152   4.691  0.0901 -1.1180 -1.6227
   33DOPE  H17Y 4253   2.670   3.127   4.868  0.3362 -0.4327  0.2826
   33DOPE  C318 4254   2.834   3.022   4.775 -0.7284  0.0808 -0.0978
   33DOPE  H18X 4255   2.835   2.917   4.739 -1.1492 -0.9475  2.6239
   33DOPE  H18Y 4256   2.908   3.081   4.716  1.1737  0.5506  2.5879
   33DOPE  H18Z 4257   2.878   3.013   4.877  0.3710 -0.0974 -0.5738
   34DOPE     N 4258   3.584   3.788   3.091  0.1487  0.2255  0.1908
   34DOPE   HN1 4259   3.487   3.822   3.100  1.0353  3.0025  0.1727
   34DOPE   HN2 4260   3.624   3.847   3.016  2.5873 -2.0064 -0.4100
   34DOPE   HN3 4261   3.583   3.688   3.061 -1.8577  0.1182  0.5032
   34DOPE   C12 4262   3.658   3.808   3.218 -0.1962  0.2305  0.5086
   34DOPE  H12A 4263   3.760   3.768   3.201 -0.6475 -0.3918 -0.9548
   34DOPE  H12B 4264   3.610   3.739   3.291  0.4713 -1.3022 -0.4568
   34DOPE   C11 4265   3.643   3.955   3.274 -0.2870 -0.3671  0.4350
   34DOPE  H11A 4266   3.706   4.021   3.212 -2.3090  0.9054 -0.3818
   34DOPE  H11B 4267   3.681   3.960   3.378 -0.2957  0.4812  0.4006
   34DOPE     P 4268   3.403   3.977   3.377  0.3340  0.3877  0.0835
   34DOPE   O13 4269   3.410   3.837   3.423 -0.2551 -0.4383 -0.2682
   34DOPE   O14 4270   3.271   4.039   3.346 -0.4404  0.0963 -0.4360
   34DOPE   O11 4271   3.471   4.064   3.491  0.7441 -0.3261  0.1135
   34DOPE   O12 4272   3.507   4.001   3.260  0.2315 -0.0240  0.0924
   34DOPE    C1 4273   3.530   4.194   3.473 -0.1790 -0.5097  0.3675
   34DOPE    HA 4274   3.519   4.234   3.370  0.5430 -0.9340  0.1199
   34DOPE    HB 4275   3.638   4.180   3.492  0.0353  1.2291  0.5832
   34DOPE    C2 4276   3.473   4.300   3.580 -0.3824  0.6815  0.3760
   34DOPE    HS 4277   3.533   4.392   3.564  1.8503 -0.9561 -1.1307
   34DOPE   O21 4278   3.489   4.243   3.707  0.2775  0.0914 -0.4089
   34DOPE   C21 4279   3.606   4.259   3.768 -0.3643 -0.3071  0.0643
   34DOPE   O22 4280   3.706   4.300   3.712  0.0787  0.2448 -0.4127
   34DOPE   C22 4281   3.597   4.215   3.910 -0.3784  0.1434  0.2376
   34DOPE   H2R 4282   3.624   4.109   3.894  1.0771  0.0709  2.6739
   34DOPE   H2S 4283   3.489   4.212   3.939 -0.4422  0.2903  0.0166
   34DOPE    C3 4284   3.313   4.333   3.558 -0.9647 -1.1804  0.1209
   34DOPE    HX 4285   3.264   4.234   3.561  0.8306 -2.1159  0.3582
   34DOPE    HY 4286   3.298   4.372   3.455 -4.0970 -2.0771  0.1581
   34DOPE   O31 4287   3.248   4.427   3.654 -0.0539 -0.7597  0.0916
   34DOPE   C31 4288   3.282   4.557   3.633  0.2968  0.0721  0.2134
   34DOPE   O32 4289   3.351   4.598   3.543  0.4765  0.9791  0.2245
   34DOPE   C32 4290   3.223   4.646   3.748 -0.1577  0.2716  0.4730
   34DOPE   H2X 4291   3.176   4.728   3.689 -0.6629 -1.5817 -1.8683
   34DOPE   H2Y 4292   3.146   4.585   3.799  0.6937 -1.1864  0.0718
   34DOPE   C23 4293   3.696   4.282   4.008  0.4804  0.1332 -0.1175
   34DOPE   H3R 4294   3.631   4.355   4.062 -0.9495 -2.5095  2.0210
   34DOPE   H3S 4295   3.786   4.330   3.965  0.4404  0.4073  0.0961
   34DOPE   C24 4296   3.747   4.176   4.110  0.1067  0.0481  0.0135
   34DOPE   H4R 4297   3.826   4.116   4.062  0.4059  0.0894  0.4494
   34DOPE   H4S 4298   3.663   4.112   4.145 -1.6099  2.5406  0.7664
   34DOPE   C25 4299   3.816   4.227   4.237 -0.1227  0.3578 -0.6138
   34DOPE   H5R 4300   3.741   4.280   4.300  0.8663 -0.9422  1.7795
   34DOPE   H5S 4301   3.903   4.291   4.212 -0.2781  2.0789  2.6878
   34DOPE   C26 4302   3.877   4.106   4.309  0.1826 -0.0417 -1.2887
   34DOPE   H6R 4303   3.955   4.137   4.382  1.0111 -2.1146 -1.2172
   34DOPE   H6S 4304   3.930   4.044   4.233  1.3668 -0.9026  0.1901
   34DOPE   C27 4305   3.761   4.021   4.376  0.0899 -0.2224 -0.3598
   34DOPE   H7R 4306   3.686   3.975   4.309 -0.4580  0.7773 -0.4413
   34DOPE   H7S 4307   3.700   4.082   4.446  1.7423  0.1280  0.8649
   34DOPE   C28 4308   3.835   3.903   4.434  0.1309  0.0914 -0.4186
   34DOPE   H8R 4309   3.908   3.952   4.502 -2.1978 -0.6697  2.8662
   34DOPE   H8S 4310   3.883   3.838   4.357  1.6813 -1.5749  1.8157
   34DOPE   C29 4311   3.735   3.825   4.522  0.5848  1.1239  0.1068
   34DOPE   H9R 4312   3.640   3.807   4.469  0.4446 -0.2354  0.7909
   34DOPE  C210 4313   3.752   3.796   4.650  0.1045  0.3442 -1.4616
   34DOPE  H10R 4314   3.680   3.729   4.699 -0.7990  2.8841  0.9538
   34DOPE  C211 4315   3.857   3.835   4.741 -0.1334  0.1264 -0.1484
   34DOPE  H11R 4316   3.810   3.864   4.838  0.7311 -1.4789  0.8018
   34DOPE  H11S 4317   3.924   3.916   4.705 -1.0388  0.1173 -1.9467
   34DOPE  C212 4318   3.952   3.721   4.780 -0.0013  0.7596  0.3785
   34DOPE  H12R 4319   4.044   3.754   4.832  0.9965  0.8494 -1.3797
   34DOPE  H12S 4320   3.977   3.655   4.694 -4.8027 -1.2665  0.1999
   34DOPE  C213 4321   3.884   3.625   4.876 -0.1969 -0.3199 -0.2226
   34DOPE  H13R 4322   3.809   3.559   4.828 -1.3721 -0.2201  1.3776
   34DOPE  H13S 4323   3.832   3.684   4.955  1.4514 -0.3754  0.9576
   34DOPE  C214 4324   3.990   3.532   4.946  0.4289 -0.0475 -0.1771
   34DOPE  H14R 4325   4.047   3.595   5.017 -1.0956  1.9273 -0.6178
   34DOPE  H14S 4326   4.062   3.485   4.875 -1.1083 -1.4831 -0.8740
   34DOPE  C215 4327   3.935   3.431   5.030 -0.6582  0.3066  0.9080
   34DOPE  H15R 4328   4.017   3.381   5.088  2.4143  0.4529 -2.9241
   34DOPE  H15S 4329   3.883   3.352   4.972  0.7846  0.4485 -0.6675
   34DOPE  C216 4330   3.833   3.484   5.138  0.5159 -0.0128 -0.0256
   34DOPE  H16R 4331   3.768   3.562   5.092 -1.2079 -0.8830  0.8700
   34DOPE  H16S 4332   3.893   3.537   5.214 -0.6550 -2.6243  2.9183
   34DOPE  C217 4333   3.762   3.366   5.192  0.6081  0.2232 -0.2148
   34DOPE  H17R 4334   3.821   3.299   5.258 -2.1720 -0.4067  1.8326
   34DOPE  H17S 4335   3.708   3.315   5.110  0.3361  0.4023 -0.1476
   34DOPE  C218 4336   3.653   3.413   5.291 -0.6231 -0.0307 -0.4990
   34DOPE  H18R 4337   3.589   3.333   5.333 -0.5331 -0.1522 -0.5916
   34DOPE  H18S 4338   3.590   3.491   5.244  1.0302  1.0486 -0.9984
   34DOPE  H18T 4339   3.705   3.463   5.375 -0.8169 -3.2026  1.6901
   34DOPE   C33 4340   3.333   4.705   3.844 -0.4141 -0.2031  0.0986
   34DOPE   H3X 4341   3.397   4.786   3.802 -0.4973 -0.2643 -0.1492
   34DOPE   H3Y 4342   3.407   4.627   3.868 -0.4001 -0.0790  0.4633
   34DOPE   C34 4343   3.267   4.766   3.968 -0.2883 -0.6793  0.5488
   34DOPE   H4X 4344   3.207   4.852   3.932 -0.2597 -0.7877  0.2419
   34DOPE   H4Y 4345   3.196   4.697   4.018 -3.1954  1.3717 -0.5039
   34DOPE   C35 4346   3.366   4.828   4.076 -0.4716  0.7401 -0.4583
   34DOPE   H5X 4347   3.436   4.897   4.024 -1.1556  0.7481 -1.3830
   34DOPE   H5Y 4348   3.415   4.747   4.133  0.1094  0.9559 -0.6459
   34DOPE   C36 4349   3.290   4.922   4.171 -0.1864  0.5862  0.1310
   34DOPE   H6X 4350   3.223   5.002   4.130 -2.2426 -0.3496  1.5068
   34DOPE   H6Y 4351   3.370   4.963   4.235  1.0874 -0.5918 -0.6654
   34DOPE   C37 4352   3.183   4.854   4.260  0.6682  0.0124  0.2091
   34DOPE   H7X 4353   3.098   4.830   4.192 -0.9963  2.2007  1.4175
   34DOPE   H7Y 4354   3.219   4.759   4.305 -0.2072  0.2912  1.5390
   34DOPE   C38 4355   3.123   4.958   4.356  0.2684  0.1599  0.5584
   34DOPE   H8X 4356   3.110   5.056   4.304 -1.9130  0.0841  0.8413
   34DOPE   H8Y 4357   3.203   4.978   4.430  3.3324  3.2749 -3.1971
   34DOPE   C39 4358   2.997   4.903   4.412 -0.2580  0.2586 -0.5626
   34DOPE   H9X 4359   2.971   4.802   4.378  0.1218 -0.7270  1.9057
   34DOPE  C310 4360   2.940   4.959   4.521  0.1781 -0.0477 -0.3011
   34DOPE  H10X 4361   2.850   4.910   4.563  0.3364 -0.1728 -0.1041
   34DOPE  C311 4362   2.992   5.079   4.593 -0.3162 -0.1486 -0.5159
   34DOPE  H11X 4363   3.056   5.147   4.533  0.3896 -0.4153 -0.0785
   34DOPE  H11Y 4364   2.905   5.143   4.617 -0.3095  0.1118 -1.1926
   34DOPE  C312 4365   3.063   5.064   4.723 -0.1201  0.1443  0.3156
   34DOPE  H12X 4366   3.098   5.154   4.778  1.6212 -0.1038 -0.3386
   34DOPE  H12Y 4367   3.159   5.008   4.716  0.3999  1.1827 -1.3159
   34DOPE  C313 4368   2.985   4.987   4.836 -0.5377 -0.5185  0.2906
   34DOPE  H13X 4369   2.889   5.038   4.855  0.6647  1.4496  1.4097
   34DOPE  H13Y 4370   2.966   4.887   4.792  1.8195 -0.1220 -1.9101
   34DOPE  C314 4371   3.063   4.978   4.964 -0.5334  0.5990  0.4212
   34DOPE  H14X 4372   3.087   5.080   5.000 -1.4157  0.5445  1.1684
   34DOPE  H14Y 4373   3.161   4.930   4.941 -1.6002 -0.3585 -2.6991
   34DOPE  C315 4374   3.009   4.891   5.078  0.3625  0.3134  0.1845
   34DOPE  H15X 4375   3.087   4.872   5.154 -0.9259  1.1337  1.7621
   34DOPE  H15Y 4376   2.973   4.791   5.046  1.3465  0.2498 -0.7841
   34DOPE  C316 4377   2.893   4.968   5.148 -0.4779  0.0160 -0.1729
   34DOPE  H16X 4378   2.824   5.016   5.075 -0.6294 -0.7100 -0.5142
   34DOPE  H16Y 4379   2.936   5.055   5.203  1.3783 -0.5473 -0.6552
   34DOPE  C317 4380   2.808   4.871   5.241  0.0070 -0.3479  1.1063
   34DOPE  H17X 4381   2.808   4.763   5.212  0.5804 -0.0859  0.0934
   34DOPE  H17Y 4382   2.863   4.871   5.337  1.7650  1.3869  0.1705
   34DOPE  C318 4383   2.655   4.900   5.251  0.7313  0.2621 -0.3422
   34DOPE  H18X 4384   2.638   5.008   5.271 -0.3799 -0.3101  2.3866
   34DOPE  H18Y 4385   2.614   4.884   5.149  1.9330  0.8861 -0.9422
   34DOPE  H18Z 4386   2.602   4.834   5.324  0.4519  1.6764  0.7861
   35DOPE     N 4387   7.222   2.859   2.955 -0.9724 -0.2017 -0.5910
   35DOPE   HN1 4388   7.204   2.768   3.002 -1.9599 -0.1641 -0.8786
   35DOPE   HN2 4389   7.130   2.901   2.930 -0.9760  0.1797  0.0611
   35DOPE   HN3 4390   7.262   2.827   2.864 -0.6929 -1.0565 -0.1816
   35DOPE   C12 4391   7.330   2.946   3.023  0.5559  0.7043 -0.2400
   35DOPE  H12A 4392   7.342   3.043   2.971  3.7652  0.7511  0.3748
   35DOPE  H12B 4393   7.428   2.895   3.015  0.4643  0.7846 -2.8279
   35DOPE   C11 4394   7.283   2.978   3.167  0.4034 -0.3929 -0.3505
   35DOPE  H11A 4395   7.349   3.049   3.221  0.6677  0.0330 -1.2176
   35DOPE  H11B 4396   7.300   2.886   3.228 -1.0814 -2.4984 -2.8816
   35DOPE     P 4397   7.113   3.168   3.136  0.1328  0.0096  0.0076
   35DOPE   O13 4398   7.138   3.169   2.985  0.7744 -0.5851 -1.0395
   35DOPE   O14 4399   7.201   3.267   3.211  0.0362 -0.8222 -0.1787
   35DOPE   O11 4400   6.961   3.207   3.166  0.6918  0.4677 -0.5370
   35DOPE   O12 4401   7.144   3.021   3.182  0.3213  0.4249 -0.1555
   35DOPE    C1 4402   6.863   3.105   3.156 -0.6095 -0.1758  0.4434
   35DOPE    HA 4403   6.896   3.001   3.135  0.0037 -0.4213  2.4057
   35DOPE    HB 4404   6.784   3.131   3.082  0.0619 -0.1406 -0.2787
   35DOPE    C2 4405   6.781   3.083   3.285 -0.7393  0.0213  0.3206
   35DOPE    HS 4406   6.724   3.175   3.309 -1.0823 -0.4363  1.3351
   35DOPE   O21 4407   6.871   3.032   3.389 -0.8065 -0.5028 -0.3263
   35DOPE   C21 4408   6.914   3.130   3.466 -0.7050 -0.4547  0.5696
   35DOPE   O22 4409   6.885   3.250   3.451  0.5524 -0.5567 -0.2352
   35DOPE   C22 4410   7.005   3.076   3.568  0.3498 -0.9642 -0.3733
   35DOPE   H2R 4411   7.094   3.025   3.528  0.6287 -0.4597 -0.4018
   35DOPE   H2S 4412   6.948   3.002   3.629 -1.8815  1.8140  1.1806
   35DOPE    C3 4413   6.667   2.972   3.261 -0.5463 -0.1204  0.1690
   35DOPE    HX 4414   6.719   2.876   3.242  2.6164  1.6569 -0.8387
   35DOPE    HY 4415   6.613   2.994   3.167  2.7103 -1.0013 -2.0648
   35DOPE   O31 4416   6.593   2.962   3.385  0.5239  0.2182  0.1676
   35DOPE   C31 4417   6.479   2.894   3.365 -0.1080  0.0755 -0.4974
   35DOPE   O32 4418   6.442   2.843   3.260 -0.3385  0.4954 -0.3736
   35DOPE   C32 4419   6.417   2.873   3.501 -0.5053  0.4937 -0.3606
   35DOPE   H2X 4420   6.488   2.819   3.567  1.0579  1.1125 -1.4846
   35DOPE   H2Y 4421   6.389   2.966   3.555 -2.0255  0.3287 -0.8104
   35DOPE   C23 4422   7.045   3.179   3.675 -0.0240  0.2155  0.0584
   35DOPE   H3R 4423   6.948   3.209   3.720 -0.4330 -1.0979  0.1033
   35DOPE   H3S 4424   7.105   3.260   3.629  1.1727 -1.0997 -0.7624
   35DOPE   C24 4425   7.128   3.116   3.792  0.6265  0.1164 -0.6071
   35DOPE   H4R 4426   7.174   3.201   3.848  0.1317  0.2575 -0.4035
   35DOPE   H4S 4427   7.202   3.050   3.743 -1.2953 -0.6563 -2.5993
   35DOPE   C25 4428   7.036   3.043   3.894 -0.3867 -0.0034  0.2255
   35DOPE   H5R 4429   7.020   2.940   3.856  0.6411 -0.0194 -0.2014
   35DOPE   H5S 4430   6.935   3.087   3.900 -0.8099 -0.9290 -0.0217
   35DOPE   C26 4431   7.104   3.025   4.031 -0.3641 -0.5579 -0.6378
   35DOPE   H6R 4432   7.134   3.119   4.082  1.0493 -0.5836 -1.3558
   35DOPE   H6S 4433   7.198   2.968   4.018  0.2599  0.3189 -0.1099
   35DOPE   C27 4434   7.013   2.941   4.131  0.0656 -0.1447 -0.1984
   35DOPE   H7R 4435   6.965   2.857   4.076  0.8339 -0.6871 -0.0636
   35DOPE   H7S 4436   6.931   3.001   4.176  2.0518  0.9262  2.2923
   35DOPE   C28 4437   7.080   2.872   4.253 -0.1549  0.1621 -0.4898
   35DOPE   H8R 4438   7.117   2.950   4.323 -0.7080 -1.0955  1.2561
   35DOPE   H8S 4439   7.171   2.815   4.226 -0.5051 -0.8644  0.4276
   35DOPE   C29 4440   6.979   2.786   4.324 -0.4754 -0.2905 -0.2195
   35DOPE   H9R 4441   6.925   2.718   4.257 -0.6828 -0.7672  0.4160
   35DOPE  C210 4442   6.951   2.783   4.459  0.4297 -1.0682  0.4595
   35DOPE  H10R 4443   6.891   2.703   4.505  1.3163 -0.9887  1.8052
   35DOPE  C211 4444   7.033   2.864   4.554 -0.4677  0.1906 -0.1658
   35DOPE  H11R 4445   7.002   2.970   4.548  1.6890  0.7845 -2.7160
   35DOPE  H11S 4446   7.140   2.871   4.524 -0.6646 -0.5798 -1.0739
   35DOPE  C212 4447   7.034   2.793   4.687  0.2069  0.9434 -0.8205
   35DOPE  H12R 4448   7.062   2.687   4.673 -1.1220  0.0831  2.2514
   35DOPE  H12S 4449   6.936   2.804   4.738 -0.0752 -0.7095 -0.9608
   35DOPE  C213 4450   7.144   2.844   4.782 -0.3687  0.0945  0.5563
   35DOPE  H13R 4451   7.134   2.954   4.795  3.8605  0.7721 -0.4671
   35DOPE  H13S 4452   7.240   2.829   4.729  0.9703  0.0739  2.8688
   35DOPE  C214 4453   7.146   2.778   4.920 -0.2308 -0.0979 -0.3645
   35DOPE  H14R 4454   7.186   2.675   4.910  2.9146  0.9282  0.5016
   35DOPE  H14S 4455   7.041   2.773   4.956 -0.3777  1.3392 -0.5551
   35DOPE  C215 4456   7.226   2.862   5.024 -0.3468  0.6489  0.3686
   35DOPE  H15R 4457   7.226   2.813   5.124 -0.7401 -0.4128 -0.1427
   35DOPE  H15S 4458   7.181   2.961   5.047 -0.2022  0.2525  2.6570
   35DOPE  C216 4459   7.369   2.884   4.973  0.3177  0.5928  0.1865
   35DOPE  H16R 4460   7.377   2.930   4.873  1.7438 -0.2799 -0.1276
   35DOPE  H16S 4461   7.416   2.785   4.952 -1.2651  0.0899 -1.1905
   35DOPE  C217 4462   7.450   2.964   5.075 -0.3017  0.3085 -0.0757
   35DOPE  H17R 4463   7.388   3.048   5.112 -1.2694 -0.3322 -0.2104
   35DOPE  H17S 4464   7.538   3.016   5.031  0.7729  0.4554  2.1358
   35DOPE  C218 4465   7.495   2.869   5.181 -0.9984  0.1134 -0.2953
   35DOPE  H18R 4466   7.415   2.799   5.215  2.2563 -3.1354  1.2474
   35DOPE  H18S 4467   7.541   2.918   5.269 -0.5995 -1.0568  0.1572
   35DOPE  H18T 4468   7.578   2.805   5.144 -1.4083 -0.8770  0.4439
   35DOPE   C33 4469   6.287   2.789   3.495  0.0047 -0.1911 -0.0711
   35DOPE   H3X 4470   6.326   2.699   3.445  2.6467  0.5181  0.5757
   35DOPE   H3Y 4471   6.200   2.830   3.439 -1.3224  0.1324  2.0911
   35DOPE   C34 4472   6.236   2.751   3.633 -0.4963  1.0475 -0.4555
   35DOPE   H4X 4473   6.326   2.733   3.695  0.1264 -1.6982 -1.9649
   35DOPE   H4Y 4474   6.176   2.839   3.667 -0.9216  0.2152  1.0100
   35DOPE   C35 4475   6.147   2.626   3.630 -0.0977 -0.4167  0.5485
   35DOPE   H5X 4476   6.103   2.598   3.727  0.2770  1.0650  1.1715
   35DOPE   H5Y 4477   6.213   2.540   3.604  0.5709  0.4241 -0.6579
   35DOPE   C36 4478   6.031   2.626   3.525  1.1548  0.0729  0.0431
   35DOPE   H6X 4479   5.988   2.523   3.521 -1.4358  1.0440  0.8405
   35DOPE   H6Y 4480   6.057   2.656   3.421  0.6106 -1.1019 -0.4629
   35DOPE   C37 4481   5.919   2.724   3.572  0.5629  0.3892 -0.4287
   35DOPE   H7X 4482   5.888   2.694   3.674  2.2620 -0.4816 -0.1256
   35DOPE   H7Y 4483   5.962   2.824   3.593  2.1436 -0.6745  1.7077
   35DOPE   C38 4484   5.793   2.726   3.469 -0.2771  0.8724  0.1778
   35DOPE   H8X 4485   5.744   2.626   3.471  1.3390  0.0539  0.4626
   35DOPE   H8Y 4486   5.842   2.738   3.370 -0.3102  0.1496  0.0628
   35DOPE   C39 4487   5.703   2.836   3.506  0.5955 -0.0399  0.1065
   35DOPE   H9X 4488   5.721   2.926   3.447  2.6083 -0.4319  0.0258
   35DOPE  C310 4489   5.600   2.829   3.593 -0.0319 -0.2028  1.0764
   35DOPE  H10X 4490   5.534   2.916   3.606 -0.2182  0.0708 -1.1930
   35DOPE  C311 4491   5.570   2.714   3.688 -0.5089 -0.6403 -0.3987
   35DOPE  H11X 4492   5.460   2.708   3.708 -0.1634  0.0000  2.1539
   35DOPE  H11Y 4493   5.606   2.616   3.650  1.0272  0.0451 -0.7927
   35DOPE  C312 4494   5.639   2.732   3.830  0.0266  0.5820  0.3690
   35DOPE  H12X 4495   5.590   2.818   3.881  0.8841  0.8656  0.7310
   35DOPE  H12Y 4496   5.749   2.744   3.836  0.1324  0.2731 -0.7701
   35DOPE  C313 4497   5.607   2.602   3.914 -0.0489 -0.4513  0.3994
   35DOPE  H13X 4498   5.511   2.554   3.883  2.0052 -3.6751 -1.5095
   35DOPE  H13Y 4499   5.673   2.518   3.885 -1.5212 -1.7617  0.6788
   35DOPE  C314 4500   5.594   2.625   4.063 -0.2429 -0.2552  0.0524
   35DOPE  H14X 4501   5.557   2.530   4.107 -0.4569 -0.2736 -0.1645
   35DOPE  H14Y 4502   5.520   2.708   4.069  0.6616  0.4904  1.5575
   35DOPE  C315 4503   5.733   2.671   4.117  0.4848  0.0049  0.1788
   35DOPE  H15X 4504   5.778   2.764   4.076  0.3988  0.2143  0.5482
   35DOPE  H15Y 4505   5.806   2.588   4.106  0.5640 -0.3595  2.6864
   35DOPE  C316 4506   5.745   2.693   4.269 -0.0267 -0.3107 -0.2488
   35DOPE  H16X 4507   5.678   2.619   4.317 -2.1655  2.9952  2.2874
   35DOPE  H16Y 4508   5.723   2.797   4.301  1.2526 -0.5869  1.7185
   35DOPE  C317 4509   5.886   2.659   4.322 -0.0733 -0.4660 -0.2316
   35DOPE  H17X 4510   5.881   2.652   4.433  0.6349  2.5248  0.0960
   35DOPE  H17Y 4511   5.915   2.557   4.289  1.3952 -0.0957 -0.1720
   35DOPE  C318 4512   6.001   2.754   4.291 -0.1793 -0.4975 -0.0099
   35DOPE  H18X 4513   6.018   2.770   4.183  0.7737 -1.6595 -0.0500
   35DOPE  H18Y 4514   5.990   2.847   4.352 -0.6733 -1.0898  0.8147
   35DOPE  H18Z 4515   6.094   2.702   4.323 -0.8586 -1.8798 -0.2078
   36DOPE     N 4516   6.022   4.276   2.888  0.3276 -0.4417  0.0582
   36DOPE   HN1 4517   6.122   4.296   2.866 -0.1470 -0.6363 -2.5127
   36DOPE   HN2 4518   6.002   4.188   2.837  1.5171 -0.2613 -0.7790
   36DOPE   HN3 4519   5.976   4.354   2.837  2.5354  0.0252 -1.3684
   36DOPE   C12 4520   6.014   4.276   3.039 -0.1509  1.2975 -0.5185
   36DOPE  H12A 4521   6.043   4.175   3.073 -1.9656  0.3816 -1.5179
   36DOPE  H12B 4522   5.909   4.285   3.074 -0.1594 -0.5384  0.0414
   36DOPE   C11 4523   6.100   4.384   3.096  0.2345 -0.1475  0.1485
   36DOPE  H11A 4524   6.207   4.359   3.079  0.2436 -0.0619  0.0794
   36DOPE  H11B 4525   6.096   4.393   3.206  1.8858 -2.6603  0.4842
   36DOPE     P 4526   6.164   4.609   2.976  0.0438  0.2992 -0.5376
   36DOPE   O13 4527   6.078   4.712   2.913 -0.3959  0.0261 -0.0705
   36DOPE   O14 4528   6.264   4.540   2.890  0.1289 -0.3941  0.1111
   36DOPE   O11 4529   6.230   4.673   3.107 -0.2094 -0.1270 -0.0976
   36DOPE   O12 4530   6.064   4.508   3.043  0.1152 -0.1888 -0.0412
   36DOPE    C1 4531   6.362   4.633   3.152 -0.1254  0.0696 -0.1257
   36DOPE    HA 4532   6.439   4.688   3.095 -0.6186  0.5082 -0.3740
   36DOPE    HB 4533   6.375   4.523   3.141 -1.9546  0.0401 -3.3983
   36DOPE    C2 4534   6.373   4.688   3.303 -0.1761  0.6147  0.0550
   36DOPE    HS 4535   6.460   4.630   3.342 -1.0645  0.1460  1.3911
   36DOPE   O21 4536   6.254   4.659   3.377 -0.8291  0.0929 -0.6297
   36DOPE   C21 4537   6.222   4.536   3.409  0.0463 -0.3491  0.2098
   36DOPE   O22 4538   6.287   4.437   3.387 -0.0290  0.4253  0.2407
   36DOPE   C22 4539   6.098   4.539   3.502 -0.3133 -0.2832 -0.5630
   36DOPE   H2R 4540   6.034   4.460   3.457 -0.1827 -0.4742 -0.4169
   36DOPE   H2S 4541   6.044   4.636   3.494 -0.5342  0.2500  4.2816
   36DOPE    C3 4542   6.396   4.838   3.307  0.1122  0.3683 -0.0024
   36DOPE    HX 4543   6.306   4.887   3.262  0.3506  1.2460  0.4630
   36DOPE    HY 4544   6.478   4.880   3.245 -0.4978  3.2782  1.0039
   36DOPE   O31 4545   6.428   4.882   3.440 -0.0241  0.0852 -0.3769
   36DOPE   C31 4546   6.335   4.955   3.500 -0.5790  0.0259 -1.0607
   36DOPE   O32 4547   6.231   4.987   3.448  0.0301 -0.1020  0.2252
   36DOPE   C32 4548   6.378   4.990   3.634 -0.2387 -0.3251  0.0302
   36DOPE   H2X 4549   6.395   4.900   3.696  3.0602 -0.0338 -0.2509
   36DOPE   H2Y 4550   6.468   5.054   3.619 -0.0878 -0.3245  0.9293
   36DOPE   C23 4551   6.129   4.504   3.652 -0.3672  0.5962  0.2014
   36DOPE   H3R 4552   6.216   4.561   3.690 -1.7220  0.7283  3.4718
   36DOPE   H3S 4553   6.149   4.397   3.670 -1.9528  0.4600  1.3342
   36DOPE   C24 4554   6.014   4.550   3.739  1.0996 -0.1964  0.4941
   36DOPE   H4R 4555   5.923   4.497   3.705  2.7298 -1.8550 -1.5110
   36DOPE   H4S 4556   5.993   4.659   3.729 -1.0140 -0.6574 -0.6475
   36DOPE   C25 4557   6.031   4.517   3.887 -0.1408 -0.2133 -1.0195
   36DOPE   H5R 4558   6.093   4.425   3.895  1.2982  0.8356  0.4944
   36DOPE   H5S 4559   5.931   4.496   3.932 -0.1295 -0.5102 -1.1352
   36DOPE   C26 4560   6.100   4.630   3.961  1.1749 -0.0882 -0.3908
   36DOPE   H6R 4561   6.043   4.725   3.955  0.6444 -0.2616  1.4112
   36DOPE   H6S 4562   6.198   4.638   3.909  1.8880  2.3999  1.1342
   36DOPE   C27 4563   6.115   4.603   4.113 -0.1801 -0.2244 -0.1080
   36DOPE   H7R 4564   6.149   4.500   4.134  0.4687 -0.0106 -0.0759
   36DOPE   H7S 4565   6.014   4.618   4.157  0.3396  1.3515  0.6512
   36DOPE   C28 4566   6.209   4.697   4.184  0.3661  0.2048 -1.0789
   36DOPE   H8R 4567   6.310   4.692   4.137 -0.2412  1.3443 -2.6124
   36DOPE   H8S 4568   6.224   4.664   4.289 -1.0500 -1.0837 -1.2531
   36DOPE   C29 4569   6.159   4.840   4.180  0.2846 -0.2591  0.4337
   36DOPE   H9R 4570   6.148   4.887   4.082 -2.7764  1.7935  1.6306
   36DOPE  C210 4571   6.121   4.911   4.289 -0.4858 -0.4203  0.4680
   36DOPE  H10R 4572   6.080   5.012   4.274 -0.4025 -0.2969  1.0224
   36DOPE  C211 4573   6.128   4.860   4.432  0.1338 -0.1981 -0.5978
   36DOPE  H11R 4574   6.234   4.873   4.462  0.7135  1.0139 -2.9252
   36DOPE  H11S 4575   6.103   4.751   4.432 -1.2623  0.0835  0.8168
   36DOPE  C212 4576   6.035   4.931   4.529 -0.0371  0.7173  0.3203
   36DOPE  H12R 4577   6.035   4.889   4.632 -0.9989 -0.7947 -0.2559
   36DOPE  H12S 4578   5.926   4.939   4.511 -0.1554 -0.8621  0.2031
   36DOPE  C213 4579   6.098   5.070   4.552 -0.1973 -0.2691  0.1542
   36DOPE  H13R 4580   6.073   5.126   4.460 -0.9610 -0.7038  0.0816
   36DOPE  H13S 4581   6.208   5.074   4.556 -0.2179  2.4983 -0.3574
   36DOPE  C214 4582   6.039   5.164   4.665  0.1585 -0.4479  0.2418
   36DOPE  H14R 4583   6.074   5.131   4.765  0.9664 -0.7899 -0.1466
   36DOPE  H14S 4584   5.928   5.155   4.663  0.2311 -1.7569  0.7689
   36DOPE  C215 4585   6.067   5.311   4.635 -0.0165  0.3141 -0.0533
   36DOPE  H15R 4586   6.061   5.331   4.526  0.8808 -0.8744 -0.3499
   36DOPE  H15S 4587   6.169   5.323   4.676 -0.2974  0.4679  0.6054
   36DOPE  C216 4588   5.976   5.404   4.715 -0.5336  0.0856 -0.0187
   36DOPE  H16R 4589   6.002   5.389   4.822  1.3114 -0.5288 -0.5050
   36DOPE  H16S 4590   5.868   5.384   4.697 -0.6585  0.2008  0.5689
   36DOPE  C217 4591   6.011   5.550   4.683 -0.0252 -0.2673 -0.5639
   36DOPE  H17R 4592   6.029   5.561   4.574  3.1702 -0.1512 -0.1183
   36DOPE  H17S 4593   6.109   5.572   4.730  0.8561 -2.3239 -1.3266
   36DOPE  C218 4594   5.901   5.654   4.722 -0.1799 -0.9060 -0.2486
   36DOPE  H18R 4595   5.936   5.757   4.701  1.1161 -1.4594 -0.9309
   36DOPE  H18S 4596   5.882   5.641   4.831 -0.9360 -3.1931 -0.6111
   36DOPE  H18T 4597   5.807   5.630   4.668 -1.1557  0.2691  0.8602
   36DOPE   C33 4598   6.274   5.085   3.697 -0.6667 -0.3838  0.3466
   36DOPE   H3X 4599   6.172   5.039   3.704 -0.9935 -0.1166 -1.9278
   36DOPE   H3Y 4600   6.257   5.173   3.632  0.6221 -0.7261 -0.4924
   36DOPE   C34 4601   6.311   5.119   3.844  0.2595 -0.7494 -0.1439
   36DOPE   H4X 4602   6.304   5.029   3.909 -0.3206 -0.0868  0.7415
   36DOPE   H4Y 4603   6.419   5.146   3.847 -0.1452  0.9694  0.8610
   36DOPE   C35 4604   6.232   5.231   3.900 -0.5387 -0.4901 -0.4056
   36DOPE   H5X 4605   6.129   5.197   3.923  0.2828 -1.4245  2.3467
   36DOPE   H5Y 4606   6.225   5.316   3.829  0.7324  1.8997  2.1220
   36DOPE   C36 4607   6.289   5.285   4.041  0.1489  0.3600 -0.0129
   36DOPE   H6X 4608   6.393   5.323   4.025 -0.2340  1.3539 -0.2655
   36DOPE   H6Y 4609   6.291   5.197   4.108  2.8261 -1.4693 -2.2263
   36DOPE   C37 4610   6.209   5.406   4.095 -0.1556  0.4359 -0.1186
   36DOPE   H7X 4611   6.200   5.481   4.013  1.5456  1.4632  0.5643
   36DOPE   H7Y 4612   6.109   5.387   4.138  0.1688  0.6688  0.7675
   36DOPE   C38 4613   6.289   5.482   4.211 -0.0102  0.4077  0.1890
   36DOPE   H8X 4614   6.243   5.578   4.243 -0.8461 -0.7601  2.7538
   36DOPE   H8Y 4615   6.390   5.507   4.174  0.0088 -1.6838 -1.3535
   36DOPE   C39 4616   6.303   5.391   4.330 -0.0048  0.3650 -0.2488
   36DOPE   H9X 4617   6.267   5.287   4.322  0.3399  0.1132  1.1745
   36DOPE  C310 4618   6.364   5.424   4.447  0.8580 -0.3018 -0.4038
   36DOPE  H10X 4619   6.377   5.341   4.518  1.9618 -0.3315 -0.6218
   36DOPE  C311 4620   6.416   5.562   4.482 -0.7831  0.1228 -0.2152
   36DOPE  H11X 4621   6.466   5.609   4.394  1.5783 -0.1273  0.8968
   36DOPE  H11Y 4622   6.324   5.623   4.496 -1.2933 -0.9243  1.3579
   36DOPE  C312 4623   6.501   5.579   4.616  0.2538 -0.0773  0.0494
   36DOPE  H12X 4624   6.589   5.513   4.603 -1.2432 -2.3367  0.8522
   36DOPE  H12Y 4625   6.435   5.537   4.695 -0.8225 -1.1160 -1.3267
   36DOPE  C313 4626   6.523   5.726   4.641 -0.0282 -0.5053  0.1495
   36DOPE  H13X 4627   6.582   5.747   4.732 -0.2911 -0.9874  0.4354
   36DOPE  H13Y 4628   6.591   5.764   4.562  0.8483  0.1438  1.2107
   36DOPE  C314 4629   6.396   5.816   4.661  0.2796 -0.1555  0.4959
   36DOPE  H14X 4630   6.328   5.819   4.573  0.4951 -3.1161  0.1313
   36DOPE  H14Y 4631   6.422   5.924   4.668 -3.4812  1.1518 -2.1811
   36DOPE  C315 4632   6.322   5.785   4.788  0.0825 -0.0551  0.4777
   36DOPE  H15X 4633   6.401   5.785   4.866 -1.2999 -1.0949  1.9446
   36DOPE  H15Y 4634   6.291   5.679   4.781  1.3603 -0.4211  0.0915
   36DOPE  C316 4635   6.204   5.877   4.818 -0.4287 -0.9241  0.0517
   36DOPE  H16X 4636   6.126   5.870   4.739 -1.6921 -0.8119  1.2387
   36DOPE  H16Y 4637   6.247   5.979   4.822  2.7648 -2.1712 -0.1658
   36DOPE  C317 4638   6.132   5.843   4.950 -0.7778  0.7001 -0.2769
   36DOPE  H17X 4639   6.121   5.733   4.961 -0.5520  0.8209  1.3319
   36DOPE  H17Y 4640   6.190   5.889   5.032 -0.5676  0.2171 -0.1492
   36DOPE  C318 4641   5.999   5.907   4.961  0.4103 -0.6289 -0.3870
   36DOPE  H18X 4642   5.957   5.885   5.062  0.6251 -0.9921 -0.3743
   36DOPE  H18Y 4643   5.992   6.015   4.937 -2.3739 -0.7293 -0.3292
   36DOPE  H18Z 4644   5.931   5.853   4.892 -0.9394  3.6968 -2.7765
   37DOPE     N 4645   2.389   3.590   3.230 -0.1096  0.4035 -0.2028
   37DOPE   HN1 4646   2.371   3.674   3.171  1.9767  0.6219 -0.5817
   37DOPE   HN2 4647   2.491   3.591   3.246 -0.2828  1.2391  0.9697
   37DOPE   HN3 4648   2.359   3.504   3.180 -0.9583  0.4637  0.1839
   37DOPE   C12 4649   2.317   3.613   3.353  0.0224  0.3667 -0.8979
   37DOPE  H12A 4650   2.320   3.719   3.387 -2.5638 -0.3493  2.0794
   37DOPE  H12B 4651   2.360   3.546   3.430  2.3747  1.6486 -0.9917
   37DOPE   C11 4652   2.167   3.585   3.335  0.1222 -0.1743  0.1010
   37DOPE  H11A 4653   2.105   3.604   3.426 -2.2937 -1.6314 -1.1298
   37DOPE  H11B 4654   2.159   3.476   3.318  0.9730 -0.0600 -1.1071
   37DOPE     P 4655   2.038   3.795   3.240 -0.1215  0.1096  0.1158
   37DOPE   O13 4656   2.009   3.848   3.105 -0.0800 -0.3125 -0.3983
   37DOPE   O14 4657   2.105   3.883   3.339  0.2182 -0.5373  0.2873
   37DOPE   O11 4658   1.901   3.748   3.292 -0.0223 -0.4709 -1.0872
   37DOPE   O12 4659   2.122   3.664   3.225  0.1167 -0.0156 -0.0397
   37DOPE    C1 4660   1.821   3.820   3.382  0.2183 -0.1988 -0.2984
   37DOPE    HA 4661   1.713   3.800   3.364  0.1583  0.1855 -0.3709
   37DOPE    HB 4662   1.832   3.931   3.375  0.0044 -0.0570  1.1256
   37DOPE    C2 4663   1.831   3.778   3.535  0.1077 -0.7532  0.6557
   37DOPE    HS 4664   1.760   3.837   3.596  0.6906 -0.0200  0.6440
   37DOPE   O21 4665   1.960   3.799   3.590  0.5833 -0.0437  0.0753
   37DOPE   C21 4666   2.000   3.921   3.609 -0.4223 -0.3889  0.6606
   37DOPE   O22 4667   1.930   4.019   3.593  0.0866 -0.7783  0.3202
   37DOPE   C22 4668   2.142   3.925   3.653  0.0890 -0.1922 -0.1573
   37DOPE   H2R 4669   2.156   4.028   3.690  1.3553 -0.4378  0.1210
   37DOPE   H2S 4670   2.215   3.905   3.571  0.7229 -2.1007  0.8058
   37DOPE    C3 4671   1.792   3.636   3.549  0.3211 -0.1940 -0.0296
   37DOPE    HX 4672   1.852   3.574   3.479  0.5389  2.5637 -2.4898
   37DOPE    HY 4673   1.686   3.625   3.518  0.2695  0.2522 -0.0278
   37DOPE   O31 4674   1.796   3.596   3.691 -0.7990  0.1201  0.0661
   37DOPE   C31 4675   1.893   3.505   3.726 -0.1983 -0.6873 -1.5566
   37DOPE   O32 4676   1.985   3.467   3.659  0.7694 -0.3159 -0.6384
   37DOPE   C32 4677   1.851   3.467   3.875  0.0253  0.0394  0.1068
   37DOPE   H2X 4678   1.856   3.565   3.929  0.8440 -0.7265  1.4669
   37DOPE   H2Y 4679   1.744   3.435   3.878  0.0516 -0.2390 -1.2738
   37DOPE   C23 4680   2.180   3.831   3.765 -0.4273 -0.4545  0.0498
   37DOPE   H3R 4681   2.095   3.815   3.835 -1.4971  1.3486 -0.7539
   37DOPE   H3S 4682   2.258   3.879   3.827  0.5948 -0.2031 -1.4052
   37DOPE   C24 4683   2.235   3.692   3.726 -0.6369 -0.0174 -0.5750
   37DOPE   H4R 4684   2.330   3.695   3.668 -2.1266  2.0717 -3.1357
   37DOPE   H4S 4685   2.153   3.645   3.668 -0.3309 -2.7229  1.0042
   37DOPE   C25 4686   2.253   3.600   3.845 -0.2448 -0.3794 -0.2840
   37DOPE   H5R 4687   2.249   3.492   3.822  0.5438 -0.8374  1.5839
   37DOPE   H5S 4688   2.173   3.620   3.919 -0.9806 -1.8861 -0.6286
   37DOPE   C26 4689   2.399   3.616   3.907  0.4632  0.7579 -0.5242
   37DOPE   H6R 4690   2.403   3.707   3.970  1.4561  1.5647 -1.7099
   37DOPE   H6S 4691   2.482   3.637   3.837  1.5647  0.2498  0.5945
   37DOPE   C27 4692   2.457   3.491   3.991  0.2351 -0.5869  1.0060
   37DOPE   H7R 4693   2.542   3.539   4.043 -0.0751 -1.4283  2.3110
   37DOPE   H7S 4694   2.502   3.409   3.931 -0.4570 -1.9343  2.2922
   37DOPE   C28 4695   2.356   3.436   4.092 -1.2419  0.2689 -0.2171
   37DOPE   H8R 4696   2.265   3.406   4.036 -0.5246 -1.4662 -0.5451
   37DOPE   H8S 4697   2.338   3.512   4.171 -1.2558  0.7180 -0.6568
   37DOPE   C29 4698   2.410   3.302   4.156  0.3199 -0.4115 -0.1519
   37DOPE   H9R 4699   2.443   3.227   4.083 -3.3007 -1.7484 -0.5680
   37DOPE  C210 4700   2.401   3.261   4.285  0.3300  0.8964 -0.8147
   37DOPE  H10R 4701   2.401   3.153   4.304  0.2794  1.3468  2.2355
   37DOPE  C211 4702   2.343   3.354   4.391  0.3423  0.9748 -0.6184
   37DOPE  H11R 4703   2.241   3.322   4.423 -0.3887  2.6384 -1.1379
   37DOPE  H11S 4704   2.326   3.457   4.353 -2.9940  0.2850 -1.3081
   37DOPE  C212 4705   2.437   3.356   4.513  0.0740 -0.2897  0.4996
   37DOPE  H12R 4706   2.534   3.405   4.492 -0.8571  1.0999 -0.8771
   37DOPE  H12S 4707   2.455   3.256   4.558  0.1165 -0.8657 -0.7527
   37DOPE  C213 4708   2.373   3.445   4.621 -0.5676  0.1762 -0.0732
   37DOPE  H13R 4709   2.293   3.382   4.664  0.8586 -0.8008  1.2845
   37DOPE  H13S 4710   2.333   3.542   4.585  0.0372  0.3798 -0.2118
   37DOPE  C214 4711   2.470   3.455   4.745  0.5672 -0.3284 -0.1549
   37DOPE  H14R 4712   2.546   3.534   4.725 -0.3818  1.5282  2.8208
   37DOPE  H14S 4713   2.515   3.357   4.768 -1.5198 -1.2399  0.2439
   37DOPE  C215 4714   2.400   3.500   4.880  0.1314 -0.7648  0.3049
   37DOPE  H15R 4715   2.487   3.498   4.949  0.2742  0.8300  0.2277
   37DOPE  H15S 4716   2.316   3.431   4.902 -1.1845 -0.9073 -4.1286
   37DOPE  C216 4717   2.334   3.645   4.864 -0.2417  0.3053 -0.3060
   37DOPE  H16R 4718   2.266   3.644   4.776  2.3749 -1.5922 -2.4955
   37DOPE  H16S 4719   2.418   3.715   4.846  1.1173 -1.0499  0.4505
   37DOPE  C217 4720   2.265   3.675   4.994 -0.0692 -0.2526  0.9344
   37DOPE  H17R 4721   2.319   3.613   5.068  1.1622 -0.8031 -0.3641
   37DOPE  H17S 4722   2.159   3.644   4.990  0.1397 -0.9759  0.9998
   37DOPE  C218 4723   2.275   3.823   5.027  0.8090  0.9565 -0.1115
   37DOPE  H18R 4724   2.231   3.854   5.124  1.1152 -0.0963  0.3780
   37DOPE  H18S 4725   2.217   3.872   4.945 -0.7036  1.3844  1.1689
   37DOPE  H18T 4726   2.383   3.849   5.025  1.1034 -0.1272  0.7162
   37DOPE   C33 4727   1.950   3.368   3.934  0.4290  0.0490 -0.0257
   37DOPE   H3X 4728   2.052   3.412   3.926  1.2379 -1.8531 -0.8799
   37DOPE   H3Y 4729   1.957   3.276   3.872  1.7557 -0.4779  0.8446
   37DOPE   C34 4730   1.937   3.316   4.079  0.1707 -0.0855 -0.1351
   37DOPE   H4X 4731   1.839   3.265   4.083  0.5044 -0.6782  0.7796
   37DOPE   H4Y 4732   2.013   3.237   4.094 -1.1376 -1.3164  0.1241
   37DOPE   C35 4733   1.931   3.426   4.192  0.0287  0.2795  0.2616
   37DOPE   H5X 4734   1.853   3.503   4.173  0.3166 -0.1928 -3.6576
   37DOPE   H5Y 4735   2.020   3.493   4.191 -2.1532  3.7597  4.6654
   37DOPE   C36 4736   1.904   3.371   4.333 -0.1629  0.0712  0.7546
   37DOPE   H6X 4737   1.994   3.317   4.370 -1.8090 -1.2981  3.0362
   37DOPE   H6Y 4738   1.818   3.300   4.334  0.2215 -0.4146 -0.0134
   37DOPE   C37 4739   1.859   3.480   4.423  0.0319 -0.3259 -0.1679
   37DOPE   H7X 4740   1.942   3.552   4.426  1.5736 -2.0222  2.7107
   37DOPE   H7Y 4741   1.770   3.535   4.385  0.7751  0.0211 -1.4435
   37DOPE   C38 4742   1.829   3.439   4.569 -0.0131  0.4465  0.9048
   37DOPE   H8X 4743   1.761   3.353   4.588 -0.1377  0.6913  1.5943
   37DOPE   H8Y 4744   1.765   3.523   4.604 -1.1550  1.0455 -2.3050
   37DOPE   C39 4745   1.956   3.416   4.645 -0.0615 -0.0518  0.2160
   37DOPE   H9X 4746   2.023   3.341   4.602 -0.6756  0.3005 -1.4122
   37DOPE  C310 4747   1.997   3.496   4.753  0.6948 -0.2948 -0.1135
   37DOPE  H10X 4748   2.068   3.446   4.821 -1.2681 -1.1391  1.4108
   37DOPE  C311 4749   1.920   3.607   4.815 -0.0973  0.5686 -0.1548
   37DOPE  H11X 4750   1.810   3.595   4.805  0.0525 -1.3056  0.0059
   37DOPE  H11Y 4751   1.931   3.599   4.925 -3.0827 -0.3957  0.1724
   37DOPE  C312 4752   1.962   3.746   4.768  0.3926 -0.5381 -0.5584
   37DOPE  H12X 4753   2.071   3.753   4.748 -0.0788  3.3431 -2.7253
   37DOPE  H12Y 4754   1.932   3.824   4.842  1.6969  0.9229 -1.5112
   37DOPE  C313 4755   1.894   3.792   4.646  0.0780 -0.4804  0.9379
   37DOPE  H13X 4756   1.915   3.727   4.558  0.1397  2.9305 -1.7647
   37DOPE  H13Y 4757   1.787   3.773   4.668 -0.2206  1.1632  0.9595
   37DOPE  C314 4758   1.926   3.937   4.608  0.1317  0.8599  0.4874
   37DOPE  H14X 4759   2.024   3.931   4.555 -0.0527 -0.5814  0.2557
   37DOPE  H14Y 4760   1.937   3.993   4.703 -4.3327  0.0866  1.6772
   37DOPE  C315 4761   1.825   4.009   4.520 -0.1314  0.1643  0.4712
   37DOPE  H15X 4762   1.741   4.038   4.587  0.1432 -0.6763  1.2101
   37DOPE  H15Y 4763   1.793   3.935   4.444  1.9834  0.1950 -0.5333
   37DOPE  C316 4764   1.886   4.139   4.461  0.1827 -0.6210  0.2219
   37DOPE  H16X 4765   1.955   4.106   4.380 -1.1921 -0.9853 -0.8257
   37DOPE  H16Y 4766   1.937   4.188   4.547  0.8859  0.4066 -0.7546
   37DOPE  C317 4767   1.779   4.228   4.403  0.0113 -0.0966  0.7645
   37DOPE  H17X 4768   1.763   4.181   4.304 -0.9159  1.7438 -0.0186
   37DOPE  H17Y 4769   1.681   4.246   4.452  0.6714  1.0036  1.7433
   37DOPE  C318 4770   1.840   4.368   4.371  0.4920  0.1000 -0.8005
   37DOPE  H18X 4771   1.774   4.420   4.298 -2.0706  0.6662  1.7498
   37DOPE  H18Y 4772   1.855   4.425   4.465 -2.1708 -1.2776  0.5712
   37DOPE  H18Z 4773   1.939   4.353   4.324  0.0131 -1.6558 -1.3438
   38DOPE     N 4774   4.383   5.185   2.816  0.2103 -0.4730  0.7127
   38DOPE   HN1 4775   4.478   5.142   2.818  0.7423  0.0469 -3.7809
   38DOPE   HN2 4776   4.394   5.269   2.756 -0.8186 -0.7938  0.0510
   38DOPE   HN3 4777   4.349   5.227   2.905 -3.6605 -0.4380 -0.6304
   38DOPE   C12 4778   4.276   5.088   2.766 -0.2232  0.6452 -0.2003
   38DOPE  H12A 4779   4.311   5.048   2.669  0.0074  0.9963 -0.2640
   38DOPE  H12B 4780   4.180   5.142   2.753  0.1026  1.1218 -0.6472
   38DOPE   C11 4781   4.269   4.977   2.871 -0.4587  0.2609 -0.0600
   38DOPE  H11A 4782   4.182   4.912   2.851  0.8865 -1.3405 -0.9407
   38DOPE  H11B 4783   4.267   5.027   2.971 -0.0782  0.8638 -0.3473
   38DOPE     P 4784   4.400   4.773   2.962  0.2270  0.2315  0.2905
   38DOPE   O13 4785   4.515   4.695   2.920  0.2950  0.7826 -0.1765
   38DOPE   O14 4786   4.267   4.706   2.974 -0.3883  0.6076 -0.4556
   38DOPE   O11 4787   4.442   4.843   3.100  0.9860 -0.4122 -0.6231
   38DOPE   O12 4788   4.384   4.890   2.856  0.0387 -0.3431 -0.6330
   38DOPE    C1 4789   4.569   4.896   3.117 -0.2631 -0.0616 -0.5241
   38DOPE    HA 4790   4.549   4.982   3.183 -3.3716 -0.7192 -0.4293
   38DOPE    HB 4791   4.614   4.939   3.025  0.9659 -0.3232 -0.0565
   38DOPE    C2 4792   4.665   4.793   3.183 -0.2110 -0.0065 -0.1804
   38DOPE    HS 4793   4.653   4.698   3.126 -0.1565 -0.8149  1.1158
   38DOPE   O21 4794   4.623   4.783   3.320  0.0933 -0.4832 -0.1479
   38DOPE   C21 4795   4.661   4.669   3.381 -0.7222  0.1628  0.4164
   38DOPE   O22 4796   4.729   4.583   3.328  0.2328 -0.3238 -0.2379
   38DOPE   C22 4797   4.588   4.666   3.517 -0.3023 -0.2175 -0.0892
   38DOPE   H2R 4798   4.504   4.594   3.514  0.2409 -1.2026  3.8674
   38DOPE   H2S 4799   4.539   4.764   3.536 -0.4103  0.3865 -2.9017
   38DOPE    C3 4800   4.814   4.834   3.178 -0.4205 -0.0334 -0.4987
   38DOPE    HX 4801   4.835   4.835   3.069  1.0571  2.2313 -0.2591
   38DOPE    HY 4802   4.874   4.754   3.227 -1.7859 -0.8498 -0.1132
   38DOPE   O31 4803   4.844   4.963   3.233  0.2968  0.0480  0.4682
   38DOPE   C31 4804   4.896   4.970   3.356 -0.6764 -0.9494 -0.0094
   38DOPE   O32 4805   4.922   4.874   3.427 -0.1375 -0.3280 -0.1817
   38DOPE   C32 4806   4.919   5.118   3.384 -0.3035  0.6967 -0.8946
   38DOPE   H2X 4807   4.999   5.157   3.318 -1.9535  2.7713 -1.7773
   38DOPE   H2Y 4808   4.821   5.170   3.383 -1.1649 -0.5649  2.4216
   38DOPE   C23 4809   4.677   4.629   3.641 -0.2060  0.1394  0.1439
   38DOPE   H3R 4810   4.763   4.700   3.650  0.6074 -0.8159  0.0553
   38DOPE   H3S 4811   4.725   4.533   3.613 -2.5179 -1.3979  1.1484
   38DOPE   C24 4812   4.602   4.621   3.769  0.2882  1.3330  0.0871
   38DOPE   H4R 4813   4.529   4.538   3.770  0.6990  0.9655  1.1334
   38DOPE   H4S 4814   4.542   4.713   3.780 -0.0734  1.2051 -0.7713
   38DOPE   C25 4815   4.690   4.586   3.891  0.6558 -0.5541 -0.0674
   38DOPE   H5R 4816   4.769   4.665   3.891  0.5484 -0.4271  0.9796
   38DOPE   H5S 4817   4.737   4.486   3.882  1.0558 -0.3364 -0.4676
   38DOPE   C26 4818   4.607   4.586   4.021 -0.1527  0.6040 -0.1349
   38DOPE   H6R 4819   4.541   4.498   4.014  1.5323 -0.8699  1.3986
   38DOPE   H6S 4820   4.542   4.676   4.021 -1.9045 -0.5898  1.1591
   38DOPE   C27 4821   4.693   4.572   4.146 -0.1870 -0.7381 -0.3354
   38DOPE   H7R 4822   4.743   4.672   4.149 -2.2136  0.5362 -3.6026
   38DOPE   H7S 4823   4.765   4.487   4.142  1.4394  0.4387  1.5745
   38DOPE   C28 4824   4.618   4.560   4.284  0.2555 -0.2067  0.6169
   38DOPE   H8R 4825   4.709   4.538   4.345  0.5023 -0.3270  0.2099
   38DOPE   H8S 4826   4.557   4.468   4.280 -1.4625  0.8509  1.5266
   38DOPE   C29 4827   4.528   4.677   4.333  0.3998 -0.0786 -0.0333
   38DOPE   H9R 4828   4.449   4.710   4.265  0.1901  0.1072  0.2945
   38DOPE  C210 4829   4.526   4.712   4.464  0.2776 -0.3686  0.5028
   38DOPE  H10R 4830   4.475   4.806   4.489  0.4864 -0.0539 -0.2280
   38DOPE  C211 4831   4.616   4.667   4.567 -0.3311  0.1389 -0.4224
   38DOPE  H11R 4832   4.709   4.622   4.527 -1.3946 -1.1740 -1.5262
   38DOPE  H11S 4833   4.568   4.580   4.619 -0.8168  1.9692  2.4369
   38DOPE  C212 4834   4.654   4.777   4.669  0.1083 -0.1979 -0.2861
   38DOPE  H12R 4835   4.572   4.847   4.696  2.1316  2.5160 -0.7490
   38DOPE  H12S 4836   4.737   4.834   4.621  1.0156 -2.3903 -1.4542
   38DOPE  C213 4837   4.706   4.716   4.800  1.0819 -0.0328 -0.2366
   38DOPE  H13R 4838   4.790   4.645   4.786 -0.2921 -1.5737 -1.0405
   38DOPE  H13S 4839   4.621   4.654   4.836  0.5873  0.8371  0.1379
   38DOPE  C214 4840   4.725   4.819   4.916 -0.2320  0.9577  0.5825
   38DOPE  H14R 4841   4.790   4.899   4.874  2.6465 -1.1087  0.8219
   38DOPE  H14S 4842   4.777   4.764   4.998 -3.2201 -1.7850  0.8327
   38DOPE  C215 4843   4.593   4.883   4.968 -0.2130 -0.2758  0.3286
   38DOPE  H15R 4844   4.520   4.800   4.966  0.0260 -0.5022  0.7531
   38DOPE  H15S 4845   4.571   4.960   4.891  1.5190 -0.1697 -0.1134
   38DOPE  C216 4846   4.613   4.938   5.108 -0.1823 -0.2074 -0.2898
   38DOPE  H16R 4847   4.655   4.860   5.176 -0.4261  0.9717  1.2661
   38DOPE  H16S 4848   4.507   4.961   5.134 -0.7337  0.3223 -2.7508
   38DOPE  C217 4849   4.710   5.057   5.117 -0.3780  0.4658 -0.6279
   38DOPE  H17R 4850   4.658   5.154   5.104 -0.5874  0.0825 -3.3201
   38DOPE  H17S 4851   4.784   5.060   5.033  0.0452 -0.7520 -0.3189
   38DOPE  C218 4852   4.783   5.075   5.253 -0.2417  0.0575 -0.5950
   38DOPE  H18R 4853   4.713   5.083   5.338  0.1898 -1.5416 -0.0548
   38DOPE  H18S 4854   4.841   5.169   5.243 -2.6843  1.6044 -1.2181
   38DOPE  H18T 4855   4.843   4.981   5.258 -0.0273  0.1646 -1.0359
   38DOPE   C33 4856   4.949   5.144   3.536  0.2573  0.7796  0.2502
   38DOPE   H3X 4857   5.045   5.090   3.550  0.4186  0.9239 -0.2601
   38DOPE   H3Y 4858   4.863   5.107   3.596 -0.5554  1.7349 -0.2867
   38DOPE   C34 4859   4.970   5.291   3.564 -0.7560 -0.5559  0.6131
   38DOPE   H4X 4860   5.060   5.341   3.521 -0.2899  0.3328  2.4867
   38DOPE   H4Y 4861   4.892   5.356   3.519  0.4276  0.3152 -0.2671
   38DOPE   C35 4862   4.968   5.321   3.714 -0.3585 -0.3038  0.1641
   38DOPE   H5X 4863   5.067   5.286   3.751  0.0154  0.1693 -0.3771
   38DOPE   H5Y 4864   4.881   5.265   3.753  0.9284 -2.6370 -0.1549
   38DOPE   C36 4865   4.969   5.472   3.733  0.2942  0.1712  0.4595
   38DOPE   H6X 4866   4.927   5.495   3.833 -0.7376  0.3263  0.0109
   38DOPE   H6Y 4867   4.889   5.522   3.673 -0.2795 -0.2047  0.8992
   38DOPE   C37 4868   5.105   5.536   3.705  0.9389 -0.0997 -0.1867
   38DOPE   H7X 4869   5.192   5.477   3.738 -0.1553 -1.0493  1.1368
   38DOPE   H7Y 4870   5.120   5.548   3.596  2.0062  1.0767  0.0681
   38DOPE   C38 4871   5.119   5.682   3.759  0.3608  0.0296 -0.8543
   38DOPE   H8X 4872   5.226   5.710   3.758  0.3718  0.0018 -0.5841
   38DOPE   H8Y 4873   5.099   5.673   3.868  1.6734 -0.9999 -0.6866
   38DOPE   C39 4874   5.035   5.790   3.694  0.3095 -0.8827 -0.1008
   38DOPE   H9X 4875   5.047   5.799   3.585 -0.1989 -1.9896 -0.2623
   38DOPE  C310 4876   4.933   5.862   3.761 -0.3519 -0.2764 -0.0111
   38DOPE  H10X 4877   4.882   5.943   3.706  0.1974  0.7042  0.8876
   38DOPE  C311 4878   4.883   5.855   3.904  0.6252  0.8465  0.0101
   38DOPE  H11X 4879   4.954   5.807   3.974 -1.1018  0.1832  1.3862
   38DOPE  H11Y 4880   4.856   5.957   3.941 -1.5076  0.0759  0.7888
   38DOPE  C312 4881   4.744   5.779   3.924 -0.6530 -0.1166  0.3491
   38DOPE  H12X 4882   4.766   5.671   3.933 -2.3401 -0.6843 -1.6215
   38DOPE  H12Y 4883   4.677   5.796   3.837 -1.5642  0.0089  1.0594
   38DOPE  C313 4884   4.667   5.817   4.047  0.1660  0.0642 -0.2533
   38DOPE  H13X 4885   4.732   5.834   4.135  0.3163 -0.1930 -0.3135
   38DOPE  H13Y 4886   4.623   5.917   4.024  0.2165  0.3002  0.6492
   38DOPE  C314 4887   4.557   5.720   4.088  0.1664 -0.1325  0.9782
   38DOPE  H14X 4888   4.616   5.634   4.127  2.4373  0.5353 -0.7169
   38DOPE  H14Y 4889   4.497   5.688   4.000  2.1403  0.0823 -0.5270
   38DOPE  C315 4890   4.465   5.772   4.203 -0.2846  1.0558 -0.2278
   38DOPE  H15X 4891   4.387   5.694   4.216 -0.9652  1.6816 -0.4985
   38DOPE  H15Y 4892   4.419   5.869   4.176 -1.1963  0.6678 -0.0970
   38DOPE  C316 4893   4.529   5.792   4.346  0.0720  0.3089  0.2768
   38DOPE  H16X 4894   4.604   5.874   4.344  2.3990 -1.6862  1.4674
   38DOPE  H16Y 4895   4.584   5.703   4.381  0.6813 -0.3919 -2.2789
   38DOPE  C317 4896   4.428   5.826   4.454 -0.3587 -0.2695 -0.2358
   38DOPE  H17X 4897   4.365   5.908   4.415  0.9073  0.9555  0.1955
   38DOPE  H17Y 4898   4.357   5.744   4.474 -2.7725  2.2793  2.6721
   38DOPE  C318 4899   4.501   5.855   4.589 -0.1487  0.4740  0.7225
   38DOPE  H18X 4900   4.427   5.859   4.672 -1.0488 -1.0051  0.0374
   38DOPE  H18Y 4901   4.580   5.779   4.609  0.2255 -0.0789 -2.3884
   38DOPE  H18Z 4902   4.547   5.956   4.579 -2.6120  1.3989 -4.2086
   39DOPE     N 4903   0.527   4.661   2.902 -0.4508  0.4066  0.2737
   39DOPE   HN1 4904   0.586   4.705   2.976  0.1892  0.1179 -0.0488
   39DOPE   HN2 4905   0.579   4.611   2.826 -0.0735 -1.7729  1.8708
   39DOPE   HN3 4906   0.474   4.738   2.856 -1.6918 -1.2841 -1.2650
   39DOPE   C12 4907   0.424   4.570   2.952 -0.1989 -0.4350  0.1208
   39DOPE  H12A 4908   0.367   4.538   2.863  0.9743 -2.4200  0.0357
   39DOPE  H12B 4909   0.360   4.628   3.023  2.8052  2.5477  0.6940
   39DOPE   C11 4910   0.473   4.454   3.040  0.1679  0.3923 -0.5850
   39DOPE  H11A 4911   0.384   4.409   3.089  0.9825 -0.2365  0.3714
   39DOPE  H11B 4912   0.531   4.492   3.127 -0.8051 -1.3763  0.9058
   39DOPE     P 4913   0.687   4.305   3.011  0.2012  0.2165  0.1984
   39DOPE   O13 4914   0.786   4.409   2.972 -0.0854  0.4886  0.5397
   39DOPE   O14 4915   0.707   4.169   2.965  0.1948 -0.2559  0.8010
   39DOPE   O11 4916   0.683   4.319   3.170 -0.1717  0.2545 -0.2196
   39DOPE   O12 4917   0.548   4.355   2.969  0.1386 -0.3207 -0.2914
   39DOPE    C1 4918   0.630   4.199   3.240  0.0323  0.4757  0.4674
   39DOPE    HA 4919   0.700   4.113   3.236  0.2636  0.6739  0.1378
   39DOPE    HB 4920   0.533   4.172   3.194  0.6468  0.0784 -0.6255
   39DOPE    C2 4921   0.577   4.233   3.381 -0.6203 -0.0137 -0.2127
   39DOPE    HS 4922   0.537   4.139   3.425  2.7646 -1.4920  0.0279
   39DOPE   O21 4923   0.483   4.338   3.366  0.2353 -0.7011  0.2397
   39DOPE   C21 4924   0.404   4.358   3.476  0.1999 -0.1538  0.7114
   39DOPE   O22 4925   0.423   4.301   3.580 -0.3184 -0.1689 -0.1793
   39DOPE   C22 4926   0.277   4.440   3.453 -0.1725  0.2136  0.1803
   39DOPE   H2R 4927   0.277   4.481   3.350 -0.6832 -0.2895 -0.0218
   39DOPE   H2S 4928   0.275   4.525   3.525  0.9812  1.7692 -1.5392
   39DOPE    C3 4929   0.702   4.282   3.460 -0.4393  0.7589 -0.6957
   39DOPE    HX 4930   0.666   4.297   3.564  0.3822  2.6585 -0.6488
   39DOPE    HY 4931   0.737   4.381   3.423  1.1146 -0.0382 -1.4533
   39DOPE   O31 4932   0.806   4.182   3.452 -0.7839 -0.1907 -0.4216
   39DOPE   C31 4933   0.879   4.182   3.569 -0.3893 -0.2243  1.1391
   39DOPE   O32 4934   0.862   4.263   3.656 -0.1138 -0.4853  0.6304
   39DOPE   C32 4935   0.998   4.098   3.555  0.2223  0.7607 -0.1457
   39DOPE   H2X 4936   0.970   4.011   3.492 -2.0839  0.6880  0.9084
   39DOPE   H2Y 4937   1.080   4.165   3.520  0.7052  1.0780  1.5360
   39DOPE   C23 4938   0.152   4.352   3.455  0.0921  0.4033  0.0463
   39DOPE   H3R 4939   0.162   4.272   3.379 -2.6516  1.2405 -1.3182
   39DOPE   H3S 4940   0.065   4.414   3.424 -1.3290 -1.3594  0.3223
   39DOPE   C24 4941   0.119   4.303   3.603 -0.3734 -0.1494  0.2367
   39DOPE   H4R 4942   0.173   4.364   3.679  0.3667 -1.6939  0.9939
   39DOPE   H4S 4943   0.177   4.210   3.623  0.7056  0.5561  0.5274
   39DOPE   C25 4944  -0.032   4.291   3.629 -0.4476  0.6669 -0.2168
   39DOPE   H5R 4945  -0.076   4.203   3.578 -2.3822 -0.0360  2.4277
   39DOPE   H5S 4946  -0.082   4.387   3.604  0.8724  1.2975 -0.5084
   39DOPE   C26 4947  -0.049   4.246   3.769 -0.7933  0.3413 -0.3291
   39DOPE   H6R 4948  -0.007   4.317   3.844 -0.2598  0.1099 -0.4046
   39DOPE   H6S 4949   0.001   4.149   3.788 -3.0550 -0.9381 -0.6042
   39DOPE   C27 4950  -0.200   4.233   3.811 -0.8460 -0.1724  0.3772
   39DOPE   H7R 4951  -0.233   4.338   3.798  1.9064  1.0014  1.8961
   39DOPE   H7S 4952  -0.204   4.204   3.919 -0.5267 -0.0432  0.4250
   39DOPE   C28 4953  -0.285   4.138   3.725  0.1848 -0.7180  0.8468
   39DOPE   H8R 4954  -0.287   4.195   3.630  0.2961  0.8282  1.7312
   39DOPE   H8S 4955  -0.390   4.129   3.760  0.0081  1.2872  0.9598
   39DOPE   C29 4956  -0.228   4.002   3.713 -1.0022 -0.2200 -0.0175
   39DOPE   H9R 4957  -0.175   3.981   3.619 -0.7705 -1.5535  0.3869
   39DOPE  C210 4958  -0.241   3.903   3.807  0.3606  0.1170 -0.0595
   39DOPE  H10R 4959  -0.181   3.815   3.781 -0.3250 -0.8969  1.6093
   39DOPE  C211 4960  -0.325   3.902   3.933  0.7776  0.1928  0.4111
   39DOPE  H11R 4961  -0.377   3.804   3.942  0.5961 -0.0012 -2.1669
   39DOPE  H11S 4962  -0.392   3.991   3.932  0.0671 -0.2930 -2.4696
   39DOPE  C212 4963  -0.247   3.934   4.062 -0.3226  0.0119 -0.2271
   39DOPE  H12R 4964  -0.224   4.043   4.062 -1.1405  0.1972 -0.2705
   39DOPE  H12S 4965  -0.153   3.878   4.077  0.6225  1.8023  0.9163
   39DOPE  C213 4966  -0.338   3.910   4.189  0.8332 -0.0539 -0.5182
   39DOPE  H13R 4967  -0.387   3.811   4.182  1.4651 -0.3277 -1.1227
   39DOPE  H13S 4968  -0.423   3.981   4.199  0.1219 -1.0071  0.4085
   39DOPE  C214 4969  -0.264   3.937   4.317 -0.4264 -0.8437  0.0166
   39DOPE  H14R 4970  -0.260   4.048   4.324  0.6117 -0.6673 -2.3113
   39DOPE  H14S 4971  -0.163   3.892   4.309 -0.5060 -0.9717 -0.2799
   39DOPE  C215 4972  -0.343   3.892   4.439 -1.1217  0.6062 -0.6214
   39DOPE  H15R 4973  -0.448   3.927   4.449 -1.4486 -0.9487  3.1917
   39DOPE  H15S 4974  -0.299   3.939   4.530 -1.7621 -2.1764  1.2277
   39DOPE  C216 4975  -0.336   3.736   4.466 -0.4776  0.2409 -0.3340
   39DOPE  H16R 4976  -0.228   3.708   4.471 -1.1320 -2.5047 -0.0929
   39DOPE  H16S 4977  -0.383   3.689   4.377  0.9709 -0.9730 -0.5216
   39DOPE  C217 4978  -0.394   3.697   4.599  0.1868  0.1795  0.2438
   39DOPE  H17R 4979  -0.504   3.708   4.587  0.2191 -0.3920 -0.6174
   39DOPE  H17S 4980  -0.370   3.768   4.681 -1.3934  0.4523  0.4985
   39DOPE  C218 4981  -0.371   3.550   4.634  0.4369  0.3423 -0.2563
   39DOPE  H18R 4982  -0.402   3.486   4.548  1.2745  2.1679 -2.0122
   39DOPE  H18S 4983  -0.425   3.517   4.725 -1.9757  0.1357 -1.6596
   39DOPE  H18T 4984  -0.262   3.534   4.641  0.2252 -0.8181  0.5558
   39DOPE   C33 4985   1.056   4.039   3.685 -0.2763 -0.0512  0.2045
   39DOPE   H3X 4986   0.979   3.978   3.738 -2.2045  0.5382 -1.7802
   39DOPE   H3Y 4987   1.070   4.120   3.760 -1.4809  0.0079  0.3842
   39DOPE   C34 4988   1.189   3.962   3.668  0.2547  0.0850 -0.4215
   39DOPE   H4X 4989   1.187   3.891   3.583 -0.4603  2.4219 -2.4967
   39DOPE   H4Y 4990   1.276   4.031   3.675  1.3892 -1.4291  0.9255
   39DOPE   C35 4991   1.210   3.869   3.792 -0.3683 -0.3146  0.3499
   39DOPE   H5X 4992   1.124   3.799   3.784  0.0329 -0.9064  1.0840
   39DOPE   H5Y 4993   1.193   3.926   3.885 -2.7342 -0.0417 -0.1954
   39DOPE   C36 4994   1.344   3.792   3.798 -0.1139  0.4860 -0.0403
   39DOPE   H6X 4995   1.372   3.758   3.696  0.6635 -0.3768  0.4546
   39DOPE   H6Y 4996   1.342   3.711   3.873  1.0211 -0.7101 -1.2682
   39DOPE   C37 4997   1.468   3.879   3.837 -0.6523  0.5147 -0.2216
   39DOPE   H7X 4998   1.497   3.962   3.767  2.8321  0.1623  0.6148
   39DOPE   H7Y 4999   1.445   3.938   3.928  3.0817  0.8062  0.7118
   39DOPE   C38 5000   1.600   3.789   3.868  0.9484  0.7895  0.6473
   39DOPE   H8X 5001   1.690   3.852   3.856  1.9267 -0.3460  1.6496
   39DOPE   H8Y 5002   1.612   3.710   3.791 -1.1689  0.4175  0.6305
   39DOPE   C39 5003   1.583   3.729   4.006 -0.0869 -0.3389  0.2920
   39DOPE   H9X 5004   1.493   3.667   4.019 -0.2184 -0.1661  0.2117
   39DOPE  C310 5005   1.653   3.772   4.116  0.3570  0.2414 -0.4048
   39DOPE  H10X 5006   1.629   3.723   4.212 -0.3765 -0.5108 -0.9653
   39DOPE  C311 5007   1.770   3.869   4.120  0.2218 -0.0597 -0.0483
   39DOPE  H11X 5008   1.783   3.930   4.028  0.8377 -0.1094 -0.0041
   39DOPE  H11Y 5009   1.749   3.951   4.192  1.2411 -0.1965  0.4274
   39DOPE  C312 5010   1.912   3.812   4.169  0.3666 -0.7795  0.4326
   39DOPE  H12X 5011   1.936   3.723   4.107 -0.2366 -0.3809 -0.3908
   39DOPE  H12Y 5012   1.902   3.773   4.273 -2.2466 -0.8536  0.2299
   39DOPE  C313 5013   2.016   3.924   4.152  0.0187  0.6588 -0.3571
   39DOPE  H13X 5014   2.021   3.943   4.042 -1.1374  0.5870 -0.4325
   39DOPE  H13Y 5015   1.974   4.012   4.205 -2.2194 -1.0555  0.8562
   39DOPE  C314 5016   2.160   3.886   4.199  0.5364  0.0652 -0.4117
   39DOPE  H14X 5017   2.235   3.947   4.146  0.7440 -0.0537 -0.2542
   39DOPE  H14Y 5018   2.184   3.784   4.162  0.6916 -0.1889  0.3574
   39DOPE  C315 5019   2.183   3.899   4.348  0.2168  0.4564 -0.0889
   39DOPE  H15X 5020   2.117   3.827   4.400  1.7044  0.4124  1.8603
   39DOPE  H15Y 5021   2.156   4.002   4.382 -1.0100  0.0787  0.1107
   39DOPE  C316 5022   2.322   3.853   4.387 -0.1317  0.7074 -0.6597
   39DOPE  H16X 5023   2.395   3.930   4.351 -0.0135  1.9635  2.0319
   39DOPE  H16Y 5024   2.342   3.754   4.340  2.1258 -0.2591  2.0504
   39DOPE  C317 5025   2.341   3.836   4.541  0.2700 -0.2979  0.5800
   39DOPE  H17X 5026   2.260   3.771   4.582 -0.0783 -0.9326 -1.0395
   39DOPE  H17Y 5027   2.435   3.779   4.557  1.3697  1.6315  1.2858
   39DOPE  C318 5028   2.354   3.967   4.609 -0.4747  0.4142  0.1940
   39DOPE  H18X 5029   2.254   4.009   4.634 -0.8430  0.0129 -0.5367
   39DOPE  H18Y 5030   2.407   3.959   4.705 -0.3762  0.1415  0.1160
   39DOPE  H18Z 5031   2.422   4.035   4.553  0.0037  0.4408  0.8043
   40DOPE     N 5032   4.071   7.428   2.914 -0.5072 -0.1451  0.3607
   40DOPE   HN1 5033   4.126   7.494   2.972  0.3460  0.2165 -0.8179
   40DOPE   HN2 5034   4.077   7.470   2.819  2.6655  1.7117  1.2362
   40DOPE   HN3 5035   3.972   7.429   2.947 -0.1880 -1.0401  1.4138
   40DOPE   C12 5036   4.137   7.292   2.917 -0.0199 -0.1945  0.1460
   40DOPE  H12A 5037   4.244   7.314   2.938 -0.0874 -0.9687  1.4025
   40DOPE  H12B 5038   4.127   7.237   2.821  1.0703 -0.8375  0.3831
   40DOPE   C11 5039   4.092   7.206   3.038 -0.2285  0.1267  0.6471
   40DOPE  H11A 5040   4.095   7.266   3.131  1.1877  1.0081  0.0614
   40DOPE  H11B 5041   4.171   7.129   3.039 -0.5801 -0.3055 -1.1828
   40DOPE     P 5042   3.834   7.192   3.089  0.1991  0.2366  0.0614
   40DOPE   O13 5043   3.723   7.101   3.051  0.6715 -0.3390  0.5323
   40DOPE   O14 5044   3.812   7.335   3.060 -0.3783  0.0897  0.2532
   40DOPE   O11 5045   3.858   7.178   3.243  0.3219  0.5937 -0.2672
   40DOPE   O12 5046   3.963   7.141   3.019 -0.1898  0.5318  0.0833
   40DOPE    C1 5047   3.876   7.056   3.313  0.0839  0.0713  0.5913
   40DOPE    HA 5048   3.967   7.004   3.275 -1.6910 -1.1896 -2.2132
   40DOPE    HB 5049   3.783   6.996   3.305 -0.7664  1.2946  1.0326
   40DOPE    C2 5050   3.917   7.077   3.458  0.3236 -0.7138  0.0672
   40DOPE    HS 5051   3.910   6.978   3.508  0.1997 -1.1428 -0.7806
   40DOPE   O21 5052   3.839   7.177   3.521  0.6106  0.1984  0.1228
   40DOPE   C21 5053   3.716   7.136   3.554  0.3952  0.1686 -0.2587
   40DOPE   O22 5054   3.677   7.018   3.552 -0.2860 -0.8470  0.7438
   40DOPE   C22 5055   3.638   7.259   3.606 -0.1513  0.3322  0.7421
   40DOPE   H2R 5056   3.570   7.291   3.524  1.8455  2.1213 -0.3196
   40DOPE   H2S 5057   3.722   7.328   3.628  0.8061 -0.3956 -0.5317
   40DOPE    C3 5058   4.068   7.109   3.467  0.2214  0.3789 -1.0351
   40DOPE    HX 5059   4.081   7.210   3.423  0.1251  0.0746 -1.7735
   40DOPE    HY 5060   4.120   7.031   3.407  0.5621 -1.2042  1.1779
   40DOPE   O31 5061   4.115   7.099   3.602  0.5497  0.3361  0.1717
   40DOPE   C31 5062   4.135   7.206   3.680  0.3338  0.6863  0.1166
   40DOPE   O32 5063   4.127   7.322   3.638 -0.3730 -0.3224 -0.5182
   40DOPE   C32 5064   4.156   7.163   3.820 -0.1153  0.8197 -0.6081
   40DOPE   H2X 5065   4.147   7.054   3.841 -1.5351  1.4194  2.6464
   40DOPE   H2Y 5066   4.264   7.183   3.838  0.3234 -1.6477 -0.0454
   40DOPE   C23 5067   3.562   7.222   3.741 -0.4419  0.0991 -0.0475
   40DOPE   H3R 5068   3.496   7.133   3.733  0.7554 -1.3154  3.5404
   40DOPE   H3S 5069   3.492   7.308   3.754  1.2699  1.4505  0.7309
   40DOPE   C24 5070   3.661   7.211   3.856 -0.0840 -0.1671  0.6123
   40DOPE   H4R 5071   3.721   7.304   3.856 -0.2776 -0.0233 -0.3252
   40DOPE   H4S 5072   3.727   7.122   3.857 -1.8069 -1.4869  1.2370
   40DOPE   C25 5073   3.597   7.198   3.990  0.0994  0.3069  0.8620
   40DOPE   H5R 5074   3.526   7.281   4.008  0.2994  0.6873 -0.0511
   40DOPE   H5S 5075   3.689   7.204   4.054  1.3220 -1.3641 -0.6285
   40DOPE   C26 5076   3.530   7.062   4.011 -0.4184  0.2890 -0.2623
   40DOPE   H6R 5077   3.594   6.988   3.958 -0.2390  0.9717 -1.0118
   40DOPE   H6S 5078   3.435   7.067   3.954  0.0575  0.1336 -1.0795
   40DOPE   C27 5079   3.508   7.039   4.158  0.9560 -0.1708 -0.7425
   40DOPE   H7R 5080   3.441   7.115   4.203  2.4677  0.6477  0.2091
   40DOPE   H7S 5081   3.599   7.046   4.221  1.3421 -0.4364 -1.2621
   40DOPE   C28 5082   3.431   6.908   4.193 -0.5330  0.3727  0.7135
   40DOPE   H8R 5083   3.333   6.912   4.142 -0.7678 -3.1602  0.6402
   40DOPE   H8S 5084   3.405   6.913   4.300 -2.9283 -3.8902  0.5437
   40DOPE   C29 5085   3.492   6.773   4.158 -0.2207  0.3671  0.5322
   40DOPE   H9R 5086   3.517   6.761   4.051 -1.6810  0.0328  0.2092
   40DOPE  C210 5087   3.507   6.669   4.248 -0.6611 -0.0592 -0.4582
   40DOPE  H10R 5088   3.527   6.566   4.216 -1.5318 -1.3106  2.6100
   40DOPE  C211 5089   3.484   6.666   4.395  0.5022  0.0233 -0.2265
   40DOPE  H11R 5090   3.527   6.737   4.468 -3.5806  1.5160  1.0313
   40DOPE  H11S 5091   3.531   6.568   4.416 -0.4499 -0.5342 -0.5975
   40DOPE  C212 5092   3.335   6.656   4.427 -0.8326 -0.3912 -0.0574
   40DOPE  H12R 5093   3.279   6.575   4.376 -2.2936 -0.5101  1.6339
   40DOPE  H12S 5094   3.288   6.750   4.391 -0.1318  0.4857  1.2311
   40DOPE  C213 5095   3.300   6.637   4.579 -0.3570 -0.9135  0.3076
   40DOPE  H13R 5096   3.327   6.725   4.642 -0.9207 -1.3926  1.2471
   40DOPE  H13S 5097   3.365   6.559   4.625 -1.1619 -0.5769  2.0877
   40DOPE  C214 5098   3.154   6.604   4.619  0.9164 -0.5901 -0.2107
   40DOPE  H14R 5099   3.134   6.602   4.728  1.6535 -1.5804 -0.0795
   40DOPE  H14S 5100   3.127   6.504   4.578 -0.0046 -0.2155 -0.5321
   40DOPE  C215 5101   3.045   6.693   4.564  0.2375 -0.0154  0.4131
   40DOPE  H15R 5102   3.071   6.703   4.456  0.2368 -0.2292  0.3929
   40DOPE  H15S 5103   3.053   6.795   4.609  0.0807  0.2530 -0.1520
   40DOPE  C216 5104   2.900   6.648   4.587  1.1277 -0.2364  0.5514
   40DOPE  H16R 5105   2.833   6.725   4.544 -1.4122 -1.4334  2.1388
   40DOPE  H16S 5106   2.875   6.632   4.694 -1.0511 -0.5093  0.0560
   40DOPE  C217 5107   2.872   6.510   4.523 -0.2768  0.2906 -0.2702
   40DOPE  H17R 5108   2.918   6.437   4.592 -0.2216  0.8298  0.2709
   40DOPE  H17S 5109   2.921   6.495   4.424 -2.7824 -2.0253 -1.3015
   40DOPE  C218 5110   2.726   6.469   4.519  0.4179  1.1660  0.1849
   40DOPE  H18R 5111   2.690   6.502   4.618 -0.0313  1.7461 -0.1682
   40DOPE  H18S 5112   2.709   6.361   4.497 -0.6477  1.0122  1.6441
   40DOPE  H18T 5113   2.668   6.533   4.449 -0.4079  0.5321  0.2782
   40DOPE   C33 5114   4.064   7.248   3.917 -0.3754 -0.5112 -0.2149
   40DOPE   H3X 5115   3.959   7.215   3.928 -0.6392  0.7828  1.6126
   40DOPE   H3Y 5116   4.057   7.353   3.881  1.0640 -0.4210 -0.2975
   40DOPE   C34 5117   4.129   7.277   4.058  0.0188 -0.2661  0.4226
   40DOPE   H4X 5118   4.120   7.187   4.122 -0.6190 -0.5578 -0.0688
   40DOPE   H4Y 5119   4.235   7.306   4.038 -0.0359  1.6350  2.5464
   40DOPE   C35 5120   4.060   7.395   4.119  0.3776 -0.5019 -0.1609
   40DOPE   H5X 5121   3.951   7.379   4.121  0.2117  0.5763 -0.0295
   40DOPE   H5Y 5122   4.080   7.482   4.053  2.1228 -1.1396 -0.5346
   40DOPE   C36 5123   4.099   7.432   4.262  0.6292 -0.1695  0.0185
   40DOPE   H6X 5124   4.210   7.438   4.271  0.8175 -1.7180 -0.9570
   40DOPE   H6Y 5125   4.064   7.350   4.328  1.9370 -0.5063  0.3298
   40DOPE   C37 5126   4.048   7.572   4.306  0.3367 -0.5246 -0.7089
   40DOPE   H7X 5127   3.938   7.565   4.317  0.6396 -2.1224  2.5894
   40DOPE   H7Y 5128   4.089   7.593   4.408 -3.3814  1.9700  0.4948
   40DOPE   C38 5129   4.107   7.685   4.223  0.6824 -0.6987  0.0379
   40DOPE   H8X 5130   4.050   7.775   4.255 -0.2481 -0.8627 -1.0676
   40DOPE   H8Y 5131   4.061   7.673   4.122  0.1188  0.5197  0.1328
   40DOPE   C39 5132   4.257   7.708   4.220 -0.5113  0.1278  0.2677
   40DOPE   H9X 5133   4.303   7.657   4.134 -1.5055 -2.4517  1.1663
   40DOPE  C310 5134   4.322   7.775   4.314 -0.3317  0.4518 -0.8781
   40DOPE  H10X 5135   4.429   7.791   4.299 -0.0773 -1.0986 -0.8713
   40DOPE  C311 5136   4.255   7.843   4.430 -0.2244  0.0595 -0.7238
   40DOPE  H11X 5137   4.144   7.845   4.426 -0.2207  1.3958 -0.4628
   40DOPE  H11Y 5138   4.286   7.789   4.522  1.2168  0.8682 -0.7035
   40DOPE  C312 5139   4.299   7.993   4.435 -0.0000  0.2719  0.1081
   40DOPE  H12X 5140   4.286   8.034   4.332  3.7274  1.3329 -0.1078
   40DOPE  H12Y 5141   4.406   8.003   4.462  0.7300 -2.0966 -1.6555
   40DOPE  C313 5142   4.215   8.079   4.530  0.2652  0.5647  0.5203
   40DOPE  H13X 5143   4.115   8.073   4.481  0.4981  0.4131  0.0512
   40DOPE  H13Y 5144   4.206   8.029   4.629 -0.7671  0.4329  0.3738
   40DOPE  C314 5145   4.263   8.222   4.543 -0.0745 -0.4814 -0.4781
   40DOPE  H14X 5146   4.270   8.275   4.445  0.8106  1.9404  0.8110
   40DOPE  H14Y 5147   4.366   8.213   4.585 -1.0744  1.3616  2.7292
   40DOPE  C315 5148   4.168   8.305   4.634  0.1763 -0.5978 -0.4788
   40DOPE  H15X 5149   4.224   8.396   4.663 -0.1264  0.0822 -1.9189
   40DOPE  H15Y 5150   4.153   8.243   4.725 -2.3344 -1.5222 -1.4110
   40DOPE  C316 5151   4.029   8.337   4.581 -0.4982 -0.3538 -0.5747
   40DOPE  H16X 5152   3.990   8.250   4.524 -0.6587 -1.1613  0.7341
   40DOPE  H16Y 5153   4.054   8.424   4.516  0.7710 -0.6526 -0.5103
   40DOPE  C317 5154   3.936   8.364   4.704 -0.4034 -0.1073  0.9826
   40DOPE  H17X 5155   3.920   8.270   4.762  1.1685 -1.3456 -0.5004
   40DOPE  H17Y 5156   3.978   8.449   4.761  0.8356  0.0434 -0.1042
   40DOPE  C318 5157   3.797   8.418   4.649 -0.7842  0.1614 -1.0283
   40DOPE  H18X 5158   3.815   8.509   4.587  1.9004  1.4574  1.4107
   40DOPE  H18Y 5159   3.736   8.343   4.595  0.2074  0.7812 -3.0980
   40DOPE  H18Z 5160   3.737   8.462   4.733  2.6697  2.0772  0.6505
   41DOPE     N 5161   2.769   5.687   3.116 -0.3646  0.4471 -0.6823
   41DOPE   HN1 5162   2.846   5.738   3.069  0.6603 -2.2026 -2.1058
   41DOPE   HN2 5163   2.755   5.701   3.218  1.0663  0.9285 -0.5375
   41DOPE   HN3 5164   2.788   5.585   3.124 -1.5073  0.2827  0.4340
   41DOPE   C12 5165   2.647   5.706   3.037 -0.9259 -0.5200  0.2881
   41DOPE  H12A 5166   2.587   5.790   3.079 -0.0604  2.3224 -3.6328
   41DOPE  H12B 5167   2.584   5.614   3.045 -1.5612 -0.1463 -0.2939
   41DOPE   C11 5168   2.681   5.753   2.896 -0.4211 -0.9870 -0.0797
   41DOPE  H11A 5169   2.702   5.860   2.913 -3.0411 -0.4613  0.3507
   41DOPE  H11B 5170   2.588   5.749   2.834  2.0814 -3.5113 -4.1340
   41DOPE     P 5171   2.931   5.728   2.799 -0.0327 -0.0904 -0.1468
   41DOPE   O13 5172   2.931   5.864   2.739 -0.1333  0.8300 -0.2769
   41DOPE   O14 5173   3.006   5.632   2.723 -0.1256  0.1130  0.2025
   41DOPE   O11 5174   2.983   5.731   2.948  0.0147  0.4398 -0.5776
   41DOPE   O12 5175   2.784   5.678   2.818  0.3646  0.1925  0.2295
   41DOPE    C1 5176   3.107   5.678   2.983 -0.4303 -0.3270 -0.2283
   41DOPE    HA 5177   3.188   5.701   2.911 -0.4547  0.9755  0.1305
   41DOPE    HB 5178   3.092   5.568   2.991  0.6299 -0.5395 -0.8508
   41DOPE    C2 5179   3.158   5.734   3.120 -0.0123 -0.2818  0.4833
   41DOPE    HS 5180   3.261   5.694   3.130  0.2743 -0.0143 -1.0999
   41DOPE   O21 5181   3.072   5.682   3.223  1.0425  0.1626  0.2519
   41DOPE   C21 5182   3.118   5.557   3.273  0.0194 -0.3898  0.5483
   41DOPE   O22 5183   3.204   5.495   3.225  0.3246  0.3190 -0.0875
   41DOPE   C22 5184   3.051   5.522   3.404  0.6160 -0.3171  0.6902
   41DOPE   H2R 5185   3.027   5.414   3.396  0.3749 -0.1287 -2.0415
   41DOPE   H2S 5186   2.958   5.580   3.422  1.2093  0.6266  0.7968
   41DOPE    C3 5187   3.162   5.889   3.136  0.1987  0.1699 -0.0148
   41DOPE    HX 5188   3.075   5.941   3.091 -0.7367 -1.0356  0.3315
   41DOPE    HY 5189   3.253   5.916   3.079  0.4191 -0.4665  0.0286
   41DOPE   O31 5190   3.172   5.929   3.274  0.1234 -0.4063  0.4215
   41DOPE   C31 5191   3.056   5.934   3.338  0.3506 -0.8096 -0.1606
   41DOPE   O32 5192   2.944   5.911   3.290 -0.0862  0.3482 -0.7655
   41DOPE   C32 5193   3.094   5.960   3.489 -0.1071  0.1193  0.2371
   41DOPE   H2X 5194   3.184   5.898   3.508  0.7081  0.9496 -0.7543
   41DOPE   H2Y 5195   3.131   6.064   3.504  0.2730 -0.2762  2.4725
   41DOPE   C23 5196   3.138   5.538   3.529  0.0769 -0.1156  0.0286
   41DOPE   H3R 5197   3.164   5.645   3.543 -2.7796  0.4625  1.7956
   41DOPE   H3S 5198   3.231   5.478   3.518  0.7770  0.7223  1.1400
   41DOPE   C24 5199   3.061   5.494   3.650 -0.9068 -0.1091  0.0016
   41DOPE   H4R 5200   3.049   5.384   3.652 -1.8691 -0.0442 -1.0538
   41DOPE   H4S 5201   2.961   5.542   3.649 -0.8545  0.0005 -0.0247
   41DOPE   C25 5202   3.134   5.544   3.778 -0.3072 -0.4341  0.0611
   41DOPE   H5R 5203   3.142   5.654   3.781  1.1451 -0.5329  0.7938
   41DOPE   H5S 5204   3.235   5.497   3.784 -1.3073 -2.5451  2.4468
   41DOPE   C26 5205   3.059   5.496   3.907  0.0765  0.4074 -0.2353
   41DOPE   H6R 5206   3.073   5.388   3.933 -1.9209  0.2981  0.5495
   41DOPE   H6S 5207   2.953   5.505   3.877 -0.0092  0.3451  0.0512
   41DOPE   C27 5208   3.101   5.583   4.025 -0.0069 -0.0570 -0.1801
   41DOPE   H7R 5209   3.081   5.688   3.996 -0.9976  0.2962  1.6281
   41DOPE   H7S 5210   3.210   5.574   4.048  0.3061  0.2745 -1.4427
   41DOPE   C28 5211   3.025   5.541   4.153 -0.9750 -0.8410 -0.5294
   41DOPE   H8R 5212   2.919   5.530   4.123 -0.6637 -0.6878 -1.7358
   41DOPE   H8S 5213   3.035   5.626   4.223 -0.5135 -0.9909 -0.4048
   41DOPE   C29 5214   3.093   5.415   4.208 -0.4290 -0.4170  0.8087
   41DOPE   H9R 5215   3.095   5.337   4.130 -4.0418 -0.5138  0.6188
   41DOPE  C210 5216   3.143   5.398   4.329  0.0590  0.0502 -0.6115
   41DOPE  H10R 5217   3.188   5.302   4.357  0.0034  0.7016  1.9193
   41DOPE  C211 5218   3.147   5.495   4.439  0.0059 -0.3707  0.0173
   41DOPE  H11R 5219   3.153   5.599   4.402  0.9549 -0.6999 -0.7667
   41DOPE  H11S 5220   3.235   5.477   4.504  0.1271 -1.1500 -0.3562
   41DOPE  C212 5221   3.022   5.493   4.532 -0.2604  0.0021  1.0434
   41DOPE  H12R 5222   3.019   5.396   4.586 -1.7531 -0.5860 -0.0407
   41DOPE  H12S 5223   2.927   5.507   4.475  0.0877  1.3123  0.7591
   41DOPE  C213 5224   3.014   5.619   4.631  0.4557 -0.2764 -0.2082
   41DOPE  H13R 5225   3.037   5.711   4.573 -0.7204 -0.4098 -0.9285
   41DOPE  H13S 5226   3.084   5.606   4.717 -0.4095 -1.8423  0.3170
   41DOPE  C214 5227   2.869   5.633   4.680  0.3879  0.2852 -0.0353
   41DOPE  H14R 5228   2.833   5.536   4.721 -0.9578 -0.2847 -2.3483
   41DOPE  H14S 5229   2.806   5.651   4.591  3.0980  0.6789 -2.0053
   41DOPE  C215 5230   2.845   5.743   4.783 -0.2943  0.1304  0.1517
   41DOPE  H15R 5231   2.741   5.730   4.819 -1.1572  0.5134 -2.0066
   41DOPE  H15S 5232   2.851   5.844   4.736  1.1940 -0.1250 -0.2678
   41DOPE  C216 5233   2.936   5.747   4.904 -0.0018 -0.2272 -0.7010
   41DOPE  H16R 5234   3.041   5.774   4.885 -0.1650  0.8105 -0.1839
   41DOPE  H16S 5235   2.936   5.647   4.953 -0.4315 -1.2031 -2.6108
   41DOPE  C217 5236   2.877   5.845   5.007 -0.1311 -0.9482 -0.0705
   41DOPE  H17R 5237   2.781   5.809   5.051 -1.1345  1.7344  0.1350
   41DOPE  H17S 5238   2.863   5.945   4.962 -0.1652 -0.3288  1.2629
   41DOPE  C218 5239   2.975   5.868   5.124 -0.2450  0.1650  0.3280
   41DOPE  H18R 5240   3.076   5.883   5.080 -0.9180 -1.8117 -2.1801
   41DOPE  H18S 5241   2.982   5.780   5.193  0.3846  1.6271  2.2160
   41DOPE  H18T 5242   2.950   5.955   5.188 -0.4370  0.2177  0.1820
   41DOPE   C33 5243   2.989   5.926   3.595  0.7320 -0.0405  0.0856
   41DOPE   H3X 5244   2.963   5.818   3.588  4.4301 -1.0383 -0.3120
   41DOPE   H3Y 5245   2.896   5.983   3.575 -1.0978 -2.1012  2.1751
   41DOPE   C34 5246   3.029   5.973   3.740 -0.3221  0.4000 -0.1885
   41DOPE   H4X 5247   3.132   5.932   3.746 -0.4629  0.2328  1.3469
   41DOPE   H4Y 5248   3.028   6.084   3.741 -1.0976  0.4368  2.7296
   41DOPE   C35 5249   2.925   5.924   3.845 -0.3246 -0.5493 -0.7892
   41DOPE   H5X 5250   2.914   5.814   3.838 -2.4484 -0.3209 -1.9746
   41DOPE   H5Y 5251   2.833   5.982   3.822  0.5273  0.4001 -1.9471
   41DOPE   C36 5252   2.979   5.961   3.982  0.4094  0.1824  0.5108
   41DOPE   H6X 5253   3.030   6.059   3.972  1.3441 -0.2965  0.5296
   41DOPE   H6Y 5254   3.062   5.890   4.000  0.4260  0.2716  0.7950
   41DOPE   C37 5255   2.880   5.959   4.093  0.4285  1.0209 -0.6027
   41DOPE   H7X 5256   2.820   6.052   4.096  1.6808  1.8956 -1.2189
   41DOPE   H7Y 5257   2.799   5.884   4.080  0.9938  0.2920  0.0371
   41DOPE   C38 5258   2.954   5.932   4.227  0.6268  0.1506  0.5495
   41DOPE   H8X 5259   3.037   6.003   4.246 -0.8317  2.8782 -2.2867
   41DOPE   H8Y 5260   3.008   5.836   4.213 -0.0681 -0.7624  3.4256
   41DOPE   C39 5261   2.857   5.919   4.344 -0.0214  0.4886  0.2104
   41DOPE   H9X 5262   2.786   5.835   4.341  1.6486 -0.9745 -2.1131
   41DOPE  C310 5263   2.830   6.010   4.440  0.2368  0.4369  0.6059
   41DOPE  H10X 5264   2.758   5.980   4.518  2.0796  0.8277  2.5415
   41DOPE  C311 5265   2.902   6.142   4.474  0.7957  0.7409  0.1802
   41DOPE  H11X 5266   2.906   6.205   4.383 -0.8375  0.2688 -0.2610
   41DOPE  H11Y 5267   2.849   6.201   4.552 -2.5602  0.1033 -1.4442
   41DOPE  C312 5268   3.044   6.119   4.527  0.0207 -0.4047 -0.3406
   41DOPE  H12X 5269   3.093   6.044   4.461  2.1526 -0.4307  1.1456
   41DOPE  H12Y 5270   3.047   6.076   4.629 -0.7250  0.2620 -0.0324
   41DOPE  C313 5271   3.134   6.242   4.531  0.2723 -0.9138  0.0692
   41DOPE  H13X 5272   3.084   6.330   4.485  1.1556 -0.2365  0.3574
   41DOPE  H13Y 5273   3.146   6.275   4.637  0.2375  1.6150 -0.6540
   41DOPE  C314 5274   3.282   6.228   4.478  0.2688  0.0728 -0.1430
   41DOPE  H14X 5275   3.333   6.139   4.521  0.0230  0.1308  0.2660
   41DOPE  H14Y 5276   3.341   6.319   4.501 -0.3895  0.1634  1.2718
   41DOPE  C315 5277   3.284   6.211   4.327  0.3099  0.6178 -0.2638
   41DOPE  H15X 5278   3.216   6.284   4.279 -0.0680 -0.3903 -1.2991
   41DOPE  H15Y 5279   3.241   6.115   4.293  1.0425 -0.9366  2.8566
   41DOPE  C316 5280   3.426   6.237   4.279 -0.1792  0.3776 -0.9652
   41DOPE  H16X 5281   3.478   6.143   4.306  1.1334  1.0065 -1.2368
   41DOPE  H16Y 5282   3.475   6.319   4.335 -2.2088  0.8935  0.1421
   41DOPE  C317 5283   3.444   6.268   4.133  0.1492 -0.0800  0.1283
   41DOPE  H17X 5284   3.386   6.190   4.079 -0.1309  0.5821 -0.5611
   41DOPE  H17Y 5285   3.403   6.365   4.096  0.9008 -0.7496 -2.7474
   41DOPE  C318 5286   3.593   6.253   4.096  0.2206 -0.1490  0.1235
   41DOPE  H18X 5287   3.649   6.336   4.144  0.6510 -0.0852 -0.4871
   41DOPE  H18Y 5288   3.635   6.159   4.138  0.4214  0.3861  1.1293
   41DOPE  H18Z 5289   3.604   6.261   3.986 -0.4509  2.3126  0.1806
   42DOPE     N 5290   2.439   5.012   3.257 -0.0321  0.3784  0.1225
   42DOPE   HN1 5291   2.337   4.995   3.267 -0.2108  0.2680 -1.5615
   42DOPE   HN2 5292   2.469   5.068   3.339 -1.6427 -0.8169  1.6086
   42DOPE   HN3 5293   2.454   5.066   3.169  0.4049 -0.2354 -0.1928
   42DOPE   C12 5294   2.504   4.878   3.235  0.2011  0.6286  0.0005
   42DOPE  H12A 5295   2.608   4.897   3.271  0.2539  0.9294 -0.3069
   42DOPE  H12B 5296   2.521   4.861   3.127  0.8464  2.4945 -0.2265
   42DOPE   C11 5297   2.434   4.762   3.311  0.4946 -0.2133 -0.2650
   42DOPE  H11A 5298   2.409   4.803   3.411  1.6694 -1.1593  0.4507
   42DOPE  H11B 5299   2.503   4.675   3.309 -0.6861 -1.1714 -0.3135
   42DOPE     P 5300   2.169   4.776   3.290 -0.4226  0.2066 -0.4133
   42DOPE   O13 5301   2.062   4.691   3.226  0.5391 -0.0171 -0.0303
   42DOPE   O14 5302   2.164   4.921   3.275 -0.5687 -0.3930  0.1526
   42DOPE   O11 5303   2.158   4.732   3.441 -0.0348  0.6526  0.1775
   42DOPE   O12 5304   2.314   4.725   3.242 -0.2217  0.4246  0.0376
   42DOPE    C1 5305   2.203   4.606   3.486 -0.6008  0.3731  0.1837
   42DOPE    HA 5306   2.302   4.579   3.443 -0.3875 -1.2486  1.5708
   42DOPE    HB 5307   2.137   4.530   3.439 -0.2822  0.5402 -0.5405
   42DOPE    C2 5308   2.190   4.596   3.640 -0.3593  0.3278  0.4655
   42DOPE    HS 5309   2.082   4.600   3.664 -1.4032 -2.8360 -2.7662
   42DOPE   O21 5310   2.272   4.702   3.691  0.0163  0.3752  0.3594
   42DOPE   C21 5311   2.219   4.820   3.715 -0.2889 -0.1024 -0.2131
   42DOPE   O22 5312   2.102   4.857   3.699  0.3196  0.1112 -0.1327
   42DOPE   C22 5313   2.326   4.918   3.762  0.3092 -0.4427  0.6018
   42DOPE   H2R 5314   2.271   5.014   3.769 -2.7371 -2.0355  0.0531
   42DOPE   H2S 5315   2.385   4.923   3.668 -0.4044 -0.5430  0.1464
   42DOPE    C3 5316   2.245   4.461   3.697 -0.2628 -0.5895 -0.1326
   42DOPE    HX 5317   2.355   4.457   3.683 -0.4127 -2.3477 -1.1157
   42DOPE    HY 5318   2.201   4.385   3.629 -2.8620  0.6066  0.1107
   42DOPE   O31 5319   2.211   4.428   3.831  0.0726 -0.0364 -0.4967
   42DOPE   C31 5320   2.253   4.302   3.853 -0.3718 -0.1929  0.5002
   42DOPE   O32 5321   2.323   4.239   3.776 -0.5437  0.5642 -0.5677
   42DOPE   C32 5322   2.201   4.260   3.991 -0.3663  0.2747 -0.4572
   42DOPE   H2X 5323   2.097   4.297   4.001 -0.4446  0.0234 -0.3200
   42DOPE   H2Y 5324   2.198   4.150   4.006  1.6107  0.5303  3.0001
   42DOPE   C23 5325   2.414   4.872   3.880 -0.1292 -0.0953 -0.1175
   42DOPE   H3R 5326   2.513   4.920   3.864 -0.6772  1.0956 -0.0346
   42DOPE   H3S 5327   2.427   4.763   3.866 -0.0610 -0.1766  0.5533
   42DOPE   C24 5328   2.356   4.914   4.015  0.1023 -0.4349 -0.2785
   42DOPE   H4R 5329   2.345   5.022   3.992 -1.3349 -0.3139  0.8147
   42DOPE   H4S 5330   2.427   4.879   4.093  0.7704 -0.4204 -0.8697
   42DOPE   C25 5331   2.210   4.869   4.054  0.2277  0.1300 -0.2708
   42DOPE   H5R 5332   2.149   4.924   3.980 -0.9745  0.6342  1.0463
   42DOPE   H5S 5333   2.176   4.908   4.153  1.0480 -0.3315  0.2056
   42DOPE   C26 5334   2.179   4.720   4.056 -0.7611  0.9081  0.5746
   42DOPE   H6R 5335   2.245   4.679   4.135  0.2476  1.5267  0.0829
   42DOPE   H6S 5336   2.211   4.661   3.967  0.7553  3.2909 -0.5705
   42DOPE   C27 5337   2.020   4.690   4.062  0.3383 -0.5177  0.2807
   42DOPE   H7R 5338   2.002   4.581   4.061  1.0504 -0.6354 -0.3056
   42DOPE   H7S 5339   1.967   4.720   3.969  1.3247  1.2391  0.2436
   42DOPE   C28 5340   1.953   4.747   4.197 -0.3195 -0.9431  0.4596
   42DOPE   H8R 5341   1.957   4.858   4.202  0.9970 -0.9234 -0.3939
   42DOPE   H8S 5342   2.018   4.702   4.275  1.0296 -0.2560 -0.2303
   42DOPE   C29 5343   1.812   4.709   4.220 -0.0136 -0.0947  0.6041
   42DOPE   H9R 5344   1.762   4.662   4.134 -1.4898 -0.9428  1.8656
   42DOPE  C210 5345   1.728   4.768   4.306 -0.6496  0.1425  0.3265
   42DOPE  H10R 5346   1.620   4.747   4.308 -0.4886 -1.2441 -1.8117
   42DOPE  C211 5347   1.783   4.847   4.423  0.2684  0.6378  0.3337
   42DOPE  H11R 5348   1.700   4.916   4.447 -1.7053 -1.3485 -0.3850
   42DOPE  H11S 5349   1.872   4.904   4.390  0.8374 -1.7318 -2.6984
   42DOPE  C212 5350   1.816   4.764   4.548  0.0262 -0.1412 -0.4859
   42DOPE  H12R 5351   1.916   4.716   4.540  0.4752 -0.0552  2.9507
   42DOPE  H12S 5352   1.739   4.687   4.570  0.5786 -0.6117 -0.1790
   42DOPE  C213 5353   1.838   4.861   4.665 -0.3884  0.4096 -0.0517
   42DOPE  H13R 5354   1.745   4.921   4.677 -1.1391 -0.8274  0.4856
   42DOPE  H13S 5355   1.919   4.932   4.637  1.8009 -1.5806  0.8545
   42DOPE  C214 5356   1.886   4.798   4.801 -0.4604 -0.5085  0.4176
   42DOPE  H14R 5357   1.943   4.881   4.847 -0.4290  0.4610 -1.2904
   42DOPE  H14S 5358   1.950   4.709   4.789 -0.4281 -0.6591  1.5982
   42DOPE  C215 5359   1.769   4.750   4.891  0.3596 -0.1191 -0.0676
   42DOPE  H15R 5360   1.811   4.719   4.989 -1.6881 -1.8364  0.3222
   42DOPE  H15S 5361   1.711   4.671   4.840  1.7446 -2.5515  1.8932
   42DOPE  C216 5362   1.669   4.862   4.931 -0.3193  0.4372  0.0881
   42DOPE  H16R 5363   1.570   4.812   4.921 -0.3618  0.6857 -0.8335
   42DOPE  H16S 5364   1.680   4.943   4.857  3.2539  0.0828  0.0698
   42DOPE  C217 5365   1.681   4.923   5.073 -0.5527  0.1999  0.4180
   42DOPE  H17R 5366   1.668   4.842   5.148  0.8714  1.4413  2.0692
   42DOPE  H17S 5367   1.587   4.979   5.091 -1.3453 -0.8814 -0.1632
   42DOPE  C218 5368   1.800   5.015   5.106  0.0215  0.1101 -0.3127
   42DOPE  H18R 5369   1.898   4.964   5.093  0.4155  0.6588  0.3889
   42DOPE  H18S 5370   1.799   5.060   5.207  2.9015  1.7701 -0.9108
   42DOPE  H18T 5371   1.808   5.096   5.030  0.1205 -1.3233 -1.8943
   42DOPE   C33 5372   2.280   4.317   4.105 -0.2314 -0.7155  0.5031
   42DOPE   H3X 5373   2.279   4.425   4.078 -1.1027 -0.7782  0.2750
   42DOPE   H3Y 5374   2.384   4.277   4.104  0.4331  0.9109 -0.2022
   42DOPE   C34 5375   2.220   4.303   4.238 -0.8905 -0.5499  0.5360
   42DOPE   H4X 5376   2.121   4.355   4.240  0.0571  1.4167 -0.7671
   42DOPE   H4Y 5377   2.209   4.194   4.260 -0.2416 -0.7645 -0.1831
   42DOPE   C35 5378   2.303   4.374   4.348  0.9808  0.2951  0.0209
   42DOPE   H5X 5379   2.292   4.480   4.317 -0.7053  0.2665  0.4150
   42DOPE   H5Y 5380   2.411   4.350   4.338  1.0821  0.2656  1.0594
   42DOPE   C36 5381   2.250   4.348   4.487  0.4286  0.2751 -0.2453
   42DOPE   H6X 5382   2.245   4.238   4.504 -1.7046  0.3643 -0.0121
   42DOPE   H6Y 5383   2.142   4.369   4.470  0.2063 -0.3231  0.3438
   42DOPE   C37 5384   2.322   4.427   4.599 -0.4394 -0.0502  0.9787
   42DOPE   H7X 5385   2.333   4.537   4.590  3.2364 -0.3951 -0.3064
   42DOPE   H7Y 5386   2.252   4.396   4.680 -1.7032 -3.6970 -1.2562
   42DOPE   C38 5387   2.471   4.375   4.622 -1.0663  0.1987  0.1312
   42DOPE   H8X 5388   2.533   4.404   4.535  1.5979  0.2541  1.9379
   42DOPE   H8Y 5389   2.467   4.264   4.630 -1.7891 -0.2700 -4.2448
   42DOPE   C39 5390   2.543   4.433   4.741 -0.6664 -0.0934 -0.5921
   42DOPE   H9X 5391   2.486   4.433   4.835  0.8952 -0.9290  0.3930
   42DOPE  C310 5392   2.658   4.496   4.745 -0.0771  0.1868 -0.1332
   42DOPE  H10X 5393   2.687   4.533   4.844 -0.0197 -2.1593  0.8025
   42DOPE  C311 5394   2.762   4.525   4.641  0.3418  0.2340  0.5167
   42DOPE  H11X 5395   2.726   4.510   4.537  0.9014  0.1131  0.3354
   42DOPE  H11Y 5396   2.798   4.629   4.655  0.0612  0.4521 -0.3253
   42DOPE  C312 5397   2.876   4.422   4.643  0.6821  0.1041 -0.1670
   42DOPE  H12X 5398   2.832   4.324   4.614  0.0266 -0.4755  2.5709
   42DOPE  H12Y 5399   2.912   4.425   4.748  0.1730  1.2758 -0.0019
   42DOPE  C313 5400   2.993   4.455   4.551  0.0320 -0.1257  0.0766
   42DOPE  H13X 5401   2.951   4.481   4.451  1.0581 -1.1932 -0.6580
   42DOPE  H13Y 5402   3.042   4.546   4.591 -2.5086  0.5665  1.9050
   42DOPE  C314 5403   3.087   4.331   4.538 -0.2650  0.9473 -0.1950
   42DOPE  H14X 5404   3.039   4.238   4.502  1.6630 -0.2008  0.0645
   42DOPE  H14Y 5405   3.126   4.312   4.641  0.2710 -2.0009 -0.8496
   42DOPE  C315 5406   3.210   4.358   4.450 -0.6230 -0.2152  0.0597
   42DOPE  H15X 5407   3.274   4.269   4.466  0.0260  0.0763 -0.8471
   42DOPE  H15Y 5408   3.257   4.446   4.499  0.9643 -0.6711 -0.6013
   42DOPE  C316 5409   3.196   4.388   4.301  0.0504 -0.4628 -0.1688
   42DOPE  H16X 5410   3.134   4.478   4.279 -1.7833 -2.0108 -1.8454
   42DOPE  H16Y 5411   3.134   4.307   4.256  1.8351 -1.2604 -1.2754
   42DOPE  C317 5412   3.337   4.405   4.243  0.3607  0.2971  0.7521
   42DOPE  H17X 5413   3.396   4.489   4.286  0.4607  0.5540  0.1359
   42DOPE  H17Y 5414   3.405   4.320   4.264  0.5263 -0.0377 -0.9814
   42DOPE  C318 5415   3.319   4.424   4.093 -0.6066  0.2554 -0.2912
   42DOPE  H18X 5416   3.287   4.328   4.046 -0.1147  0.6039 -1.3683
   42DOPE  H18Y 5417   3.243   4.503   4.078  0.0745  1.2895  1.5208
   42DOPE  H18Z 5418   3.418   4.457   4.054  0.8026 -1.0777  1.9249
   43DOPE     N 5419   1.372   2.919   2.984 -0.2845 -0.4453 -0.1998
   43DOPE   HN1 5420   1.419   2.828   3.006  1.1050 -0.2396 -2.0515
   43DOPE   HN2 5421   1.320   2.961   3.064 -1.6779 -0.8009 -0.8892
   43DOPE   HN3 5422   1.303   2.906   2.908 -0.0905 -0.4127 -0.3847
   43DOPE   C12 5423   1.482   3.005   2.932  0.3461 -0.1854  0.1060
   43DOPE  H12A 5424   1.431   3.101   2.908 -0.3225 -0.7843 -0.9317
   43DOPE  H12B 5425   1.515   2.945   2.844 -1.8966  1.3752 -1.9586
   43DOPE   C11 5426   1.599   3.029   3.030 -0.3534  0.2224 -0.0805
   43DOPE  H11A 5427   1.665   2.940   3.017 -0.3367  0.4226 -1.4897
   43DOPE  H11B 5428   1.563   3.032   3.135  0.8498  0.7128  0.3282
   43DOPE     P 5429   1.654   3.282   3.048 -0.4928 -0.5462 -0.2615
   43DOPE   O13 5430   1.519   3.318   2.992 -0.6773  0.4841  0.1534
   43DOPE   O14 5431   1.770   3.372   3.019 -0.0817  0.6576 -0.3395
   43DOPE   O11 5432   1.639   3.265   3.203 -0.8977  0.0196  0.6461
   43DOPE   O12 5433   1.682   3.135   3.003 -0.2874  0.0796  0.7324
   43DOPE    C1 5434   1.754   3.240   3.284 -0.0212 -0.0776  0.3737
   43DOPE    HA 5435   1.823   3.326   3.290 -1.6290  1.4012 -1.1712
   43DOPE    HB 5436   1.815   3.157   3.241 -0.3152 -0.1497  0.0870
   43DOPE    C2 5437   1.709   3.195   3.423 -0.1735 -0.1563 -0.0799
   43DOPE    HS 5438   1.637   3.111   3.411 -0.4985  0.2838 -1.3153
   43DOPE   O21 5439   1.658   3.310   3.497  0.6817 -0.1953 -0.0990
   43DOPE   C21 5440   1.542   3.287   3.564  0.3659 -0.4194 -0.2039
   43DOPE   O22 5441   1.483   3.185   3.569 -0.1784 -0.1143 -0.6197
   43DOPE   C22 5442   1.502   3.420   3.637  0.5434  0.2292 -0.2715
   43DOPE   H2R 5443   1.503   3.513   3.576  1.4254  0.1436 -0.4051
   43DOPE   H2S 5444   1.584   3.442   3.708 -0.6284  0.2787  1.1189
   43DOPE    C3 5445   1.820   3.136   3.508 -0.6534 -0.7618  0.2324
   43DOPE    HX 5446   1.892   3.221   3.506 -2.0870  0.5114 -2.1515
   43DOPE    HY 5447   1.881   3.051   3.471  1.3452 -0.4474  2.4946
   43DOPE   O31 5448   1.777   3.117   3.642 -0.3319 -0.2313  0.2175
   43DOPE   C31 5449   1.729   2.992   3.664 -0.0519 -0.2591  0.3437
   43DOPE   O32 5450   1.726   2.899   3.581 -0.0624  0.0158 -0.7413
   43DOPE   C32 5451   1.680   2.981   3.811 -0.2199 -0.1942  0.0909
   43DOPE   H2X 5452   1.717   3.064   3.875  0.0504 -0.2818  0.0507
   43DOPE   H2Y 5453   1.569   2.984   3.811 -0.3574 -2.8826  0.0694
   43DOPE   C23 5454   1.363   3.417   3.706  0.0752  0.2732 -0.5066
   43DOPE   H3R 5455   1.354   3.499   3.780 -0.5907 -1.0778  0.9692
   43DOPE   H3S 5456   1.345   3.316   3.749  0.5048 -1.1575 -3.3957
   43DOPE   C24 5457   1.250   3.420   3.595 -0.9487  0.0534  0.0390
   43DOPE   H4R 5458   1.223   3.318   3.563 -0.9150 -0.4019  1.3987
   43DOPE   H4S 5459   1.299   3.464   3.505 -0.2136  0.0723  0.4360
   43DOPE   C25 5460   1.128   3.502   3.637 -0.7378 -0.0232 -0.4218
   43DOPE   H5R 5461   1.163   3.591   3.694  2.0509 -0.0785 -1.8846
   43DOPE   H5S 5462   1.081   3.441   3.718  0.5984 -1.5576 -0.7447
   43DOPE   C26 5463   1.040   3.546   3.522  0.0456  0.1634 -0.4256
   43DOPE   H6R 5464   0.998   3.459   3.468  1.3565 -1.0313  0.3820
   43DOPE   H6S 5465   1.098   3.614   3.455  0.6029  0.4452  0.3218
   43DOPE   C27 5466   0.935   3.646   3.576  0.4107  0.2977 -0.8084
   43DOPE   H7R 5467   0.877   3.677   3.486  2.1130 -0.8481 -2.3818
   43DOPE   H7S 5468   0.992   3.737   3.605  2.4150 -0.6236 -1.6730
   43DOPE   C28 5469   0.854   3.603   3.695  0.3096  0.3402  0.3311
   43DOPE   H8R 5470   0.787   3.690   3.711 -1.1077 -0.9862  2.1067
   43DOPE   H8S 5471   0.904   3.593   3.794 -0.9798 -1.5070  0.8429
   43DOPE   C29 5472   0.783   3.477   3.666 -0.2280 -0.2465 -0.3393
   43DOPE   H9R 5473   0.749   3.475   3.562 -1.5609 -1.9533  0.0906
   43DOPE  C210 5474   0.746   3.380   3.747 -0.0709 -0.3403 -0.7048
   43DOPE  H10R 5475   0.703   3.285   3.711 -2.4464  0.6437 -0.6382
   43DOPE  C211 5476   0.754   3.376   3.898 -0.7304 -0.5246  0.0922
   43DOPE  H11R 5477   0.787   3.469   3.948 -1.0852 -0.4458  0.1798
   43DOPE  H11S 5478   0.822   3.291   3.921 -0.2760 -0.0867  0.3735
   43DOPE  C212 5479   0.628   3.345   3.974  0.3670  0.1255  0.2728
   43DOPE  H12R 5480   0.592   3.248   3.933  1.6567  0.0747 -0.7990
   43DOPE  H12S 5481   0.549   3.420   3.954 -0.4372 -0.5570  0.8300
   43DOPE  C213 5482   0.645   3.342   4.129 -0.4687  0.4593 -0.1128
   43DOPE  H13R 5483   0.707   3.423   4.174 -1.2740  1.1415 -0.2078
   43DOPE  H13S 5484   0.703   3.250   4.150  1.4719  1.2822 -1.5695
   43DOPE  C214 5485   0.512   3.348   4.199 -0.0976  0.5167  0.0341
   43DOPE  H14R 5486   0.448   3.430   4.159 -1.1036 -0.8386 -1.2479
   43DOPE  H14S 5487   0.524   3.366   4.308  0.0812  1.4692 -0.1309
   43DOPE  C215 5488   0.426   3.221   4.179  0.6069  0.5490 -0.1002
   43DOPE  H15R 5489   0.476   3.123   4.196 -4.7332 -2.5394  0.1666
   43DOPE  H15S 5490   0.411   3.226   4.069 -0.6532 -0.1385  0.0177
   43DOPE  C216 5491   0.293   3.227   4.251 -0.0647  0.6357 -0.1175
   43DOPE  H16R 5492   0.323   3.211   4.357 -0.7087  2.8274  0.4526
   43DOPE  H16S 5493   0.226   3.144   4.223  0.2907  0.4182 -0.3314
   43DOPE  C217 5494   0.194   3.343   4.225  0.6188 -0.1505  0.1392
   43DOPE  H17R 5495   0.172   3.365   4.119 -2.9629  1.5521  1.1081
   43DOPE  H17S 5496   0.240   3.435   4.267 -0.0514 -0.5044  1.7587
   43DOPE  C218 5497   0.049   3.317   4.271 -0.5941 -0.0843  0.0410
   43DOPE  H18R 5498   0.046   3.291   4.378 -0.3896 -0.2395  0.0109
   43DOPE  H18S 5499   0.000   3.235   4.215  0.4538 -3.4946  3.6939
   43DOPE  H18T 5500  -0.010   3.409   4.248 -1.0227 -0.4454 -0.3124
   43DOPE   C33 5501   1.726   2.843   3.876 -0.1141  0.4661  0.2748
   43DOPE   H3X 5502   1.832   2.822   3.851 -0.4037  0.0386 -0.6727
   43DOPE   H3Y 5503   1.670   2.753   3.842  1.4191 -0.7181  0.7887
   43DOPE   C34 5504   1.723   2.847   4.030  0.2254  0.0999 -0.2730
   43DOPE   H4X 5505   1.809   2.798   4.080  0.2593 -0.0703 -0.4976
   43DOPE   H4Y 5506   1.728   2.956   4.052 -1.7336  0.1210  0.2122
   43DOPE   C35 5507   1.593   2.794   4.076  0.4361 -0.2674 -0.3894
   43DOPE   H5X 5508   1.580   2.687   4.049  1.4903 -0.6664  0.6057
   43DOPE   H5Y 5509   1.519   2.850   4.015  0.1008 -0.8790 -0.5512
   43DOPE   C36 5510   1.564   2.816   4.226  0.4303 -0.1380  0.7911
   43DOPE   H6X 5511   1.643   2.765   4.285 -0.1836 -2.6654 -0.4186
   43DOPE   H6Y 5512   1.467   2.773   4.260 -0.9498  0.8473 -1.6691
   43DOPE   C37 5513   1.565   2.968   4.267 -0.2451 -0.1268 -0.4809
   43DOPE   H7X 5514   1.660   3.006   4.225  0.3307 -1.3441 -0.3416
   43DOPE   H7Y 5515   1.483   3.021   4.213  0.3545  1.0288 -0.2868
   43DOPE   C38 5516   1.576   3.006   4.422  0.1403  0.3541  0.2563
   43DOPE   H8X 5517   1.629   3.103   4.430 -0.0968  0.4288  1.0537
   43DOPE   H8Y 5518   1.630   2.923   4.473  0.7121  1.5788  1.7235
   43DOPE   C39 5519   1.434   3.007   4.478 -0.5513  0.0508 -0.0082
   43DOPE   H9X 5520   1.359   2.988   4.400  0.4806 -2.5700 -0.4711
   43DOPE  C310 5521   1.399   3.014   4.604  0.2740  0.4181  0.2635
   43DOPE  H10X 5522   1.294   3.002   4.633 -0.2011  2.3792 -0.4658
   43DOPE  C311 5523   1.469   3.012   4.736  0.3022 -0.3222 -0.5948
   43DOPE  H11X 5524   1.456   2.914   4.785  1.9828  0.0541  0.6892
   43DOPE  H11Y 5525   1.579   3.022   4.731  0.2694  0.7262  0.3978
   43DOPE  C312 5526   1.419   3.119   4.839  0.2216  0.6662  0.5427
   43DOPE  H12X 5527   1.461   3.099   4.940 -0.4965 -0.2190  0.6693
   43DOPE  H12Y 5528   1.310   3.104   4.851 -0.0460  2.5473  0.7751
   43DOPE  C313 5529   1.454   3.261   4.792  0.2162 -0.0872  0.2410
   43DOPE  H13X 5530   1.559   3.251   4.756  0.6926 -0.4776  1.6972
   43DOPE  H13Y 5531   1.397   3.286   4.700  0.4095 -0.0955  0.1172
   43DOPE  C314 5532   1.442   3.370   4.897 -0.0770  0.4988  0.1852
   43DOPE  H14X 5533   1.344   3.370   4.949  0.2100  0.9696  0.7464
   43DOPE  H14Y 5534   1.445   3.468   4.845  0.2960  0.2432 -0.2780
   43DOPE  C315 5535   1.547   3.365   5.012 -0.1132 -0.3662  0.1541
   43DOPE  H15X 5536   1.645   3.374   4.960 -1.3798  0.0770 -2.3301
   43DOPE  H15Y 5537   1.547   3.267   5.064  0.8092  0.5091  1.8776
   43DOPE  C316 5538   1.531   3.465   5.128  0.2273 -0.8188 -0.0248
   43DOPE  H16X 5539   1.609   3.456   5.207 -0.0442 -0.6916  0.2613
   43DOPE  H16Y 5540   1.438   3.445   5.186 -0.7284 -0.9708 -1.5348
   43DOPE  C317 5541   1.553   3.612   5.087  0.1996  0.1160  0.5795
   43DOPE  H17X 5542   1.644   3.631   5.026 -0.1908 -0.6749 -0.2712
   43DOPE  H17Y 5543   1.466   3.641   5.023  1.1711 -0.2994 -0.9893
   43DOPE  C318 5544   1.553   3.704   5.212 -0.2356 -0.1005  0.0880
   43DOPE  H18X 5545   1.461   3.687   5.272 -0.3064  1.9591  0.6385
   43DOPE  H18Y 5546   1.638   3.684   5.281  0.2321  1.3669 -0.0270
   43DOPE  H18Z 5547   1.553   3.812   5.185  0.6314  0.0012  0.4439
   44DOPE     N 5548   3.687   2.643   2.573  0.6188 -0.2500  0.0312
   44DOPE   HN1 5549   3.687   2.544   2.606  4.0434 -0.5398 -0.4914
   44DOPE   HN2 5550   3.643   2.640   2.478 -1.4852 -0.9180  0.9636
   44DOPE   HN3 5551   3.782   2.679   2.594 -0.0866  0.9444  1.3435
   44DOPE   C12 5552   3.584   2.718   2.662 -0.3071 -0.4217  0.3722
   44DOPE  H12A 5553   3.591   2.827   2.638  2.5513 -0.3464  1.1555
   44DOPE  H12B 5554   3.613   2.716   2.769 -0.9534  1.3198  0.6170
   44DOPE   C11 5555   3.436   2.663   2.652 -0.5728  0.9499 -0.4403
   44DOPE  H11A 5556   3.423   2.641   2.544  1.5041 -1.0345 -0.3755
   44DOPE  H11B 5557   3.368   2.738   2.698 -3.6310 -2.8179  1.8234
   44DOPE     P 5558   3.284   2.504   2.794  0.0245  0.1425  0.2060
   44DOPE   O13 5559   3.293   2.370   2.849  0.6054  0.7083 -0.0460
   44DOPE   O14 5560   3.168   2.519   2.703 -0.1786 -0.2210  0.6249
   44DOPE   O11 5561   3.273   2.605   2.913 -0.1666  0.9888  0.2652
   44DOPE   O12 5562   3.419   2.536   2.720 -0.5920  0.0624  0.1013
   44DOPE    C1 5563   3.366   2.597   3.025  0.2622 -0.5255  0.1311
   44DOPE    HA 5564   3.435   2.684   3.021 -2.5790  1.9040  0.4272
   44DOPE    HB 5565   3.426   2.504   3.033 -3.1810 -2.8336  1.2779
   44DOPE    C2 5566   3.291   2.587   3.162 -0.5915  0.3448  0.5235
   44DOPE    HS 5567   3.224   2.676   3.164  0.0929  0.8664  0.4867
   44DOPE   O21 5568   3.382   2.595   3.269  0.3436 -0.0604 -0.4120
   44DOPE   C21 5569   3.436   2.712   3.282  0.5173 -0.0111 -0.3240
   44DOPE   O22 5570   3.409   2.820   3.224  0.5199  0.5018 -0.1205
   44DOPE   C22 5571   3.551   2.707   3.376 -0.0538 -0.0318 -0.5785
   44DOPE   H2R 5572   3.600   2.807   3.368  1.0056 -0.5412 -0.6678
   44DOPE   H2S 5573   3.628   2.636   3.338  1.1404  2.4268 -3.1084
   44DOPE    C3 5574   3.208   2.460   3.171 -0.3959 -0.3189  0.7613
   44DOPE    HX 5575   3.266   2.365   3.160 -1.0115 -0.9691  2.6741
   44DOPE    HY 5576   3.143   2.464   3.081  1.3054  0.2380 -0.4743
   44DOPE   O31 5577   3.112   2.453   3.279  0.0213 -0.5489 -0.0361
   44DOPE   C31 5578   3.132   2.359   3.374  0.7122  0.4104  0.4847
   44DOPE   O32 5579   3.225   2.286   3.375  0.1873  0.1546  0.0506
   44DOPE   C32 5580   3.010   2.349   3.464  0.1478  0.6273  0.7041
   44DOPE   H2X 5581   2.925   2.401   3.414 -0.3086 -2.8807 -2.6405
   44DOPE   H2Y 5582   2.977   2.243   3.460  3.0521 -0.3219 -0.8368
   44DOPE   C23 5583   3.511   2.671   3.524  0.0350  0.3878 -0.3077
   44DOPE   H3R 5584   3.428   2.740   3.551  1.2279  1.4147  0.8173
   44DOPE   H3S 5585   3.597   2.697   3.589  0.4528  0.5911 -0.9268
   44DOPE   C24 5586   3.478   2.518   3.550  0.3859  0.9945 -0.3828
   44DOPE   H4R 5587   3.554   2.449   3.507 -0.3918  0.2342 -0.5845
   44DOPE   H4S 5588   3.375   2.498   3.513 -0.2775  0.3781  1.6481
   44DOPE   C25 5589   3.479   2.483   3.699 -0.3226  0.2085 -0.2058
   44DOPE   H5R 5590   3.419   2.558   3.754 -0.5152  1.5408 -2.1653
   44DOPE   H5S 5591   3.582   2.484   3.740 -0.3932  2.7497  0.0702
   44DOPE   C26 5592   3.425   2.342   3.736  0.3488 -0.5053  0.4108
   44DOPE   H6R 5593   3.314   2.342   3.726  0.2994  1.2241  0.5254
   44DOPE   H6S 5594   3.453   2.326   3.842  0.4782  0.2124  0.4931
   44DOPE   C27 5595   3.488   2.237   3.639  1.0429 -0.2815 -0.2733
   44DOPE   H7R 5596   3.596   2.262   3.627  1.3889 -1.4743  0.1601
   44DOPE   H7S 5597   3.435   2.242   3.542 -1.9028  2.0059  1.3061
   44DOPE   C28 5598   3.474   2.092   3.690  0.1957 -0.2998  0.8869
   44DOPE   H8R 5599   3.533   2.084   3.784  1.2631 -0.0760  0.2469
   44DOPE   H8S 5600   3.538   2.035   3.620  0.3105  0.5068  0.3245
   44DOPE   C29 5601   3.335   2.039   3.689  0.5642 -0.5416 -0.1043
   44DOPE   H9R 5602   3.290   2.044   3.588  0.4852 -0.2923 -0.0584
   44DOPE  C210 5603   3.266   1.978   3.786 -0.3721  0.2015 -0.5645
   44DOPE  H10R 5604   3.162   1.946   3.773  0.1383 -1.0360 -1.8822
   44DOPE  C211 5605   3.321   1.960   3.925 -0.3483 -0.7857  0.1282
   44DOPE  H11R 5606   3.275   2.041   3.986 -1.4128 -0.0637 -1.5831
   44DOPE  H11S 5607   3.431   1.972   3.927 -0.0640 -2.9637  0.3963
   44DOPE  C212 5608   3.281   1.822   3.991  0.3571 -0.5669  0.0871
   44DOPE  H12R 5609   3.326   1.736   3.936 -0.1516 -1.1712  0.5937
   44DOPE  H12S 5610   3.171   1.814   3.985  0.3435  0.4228 -4.2377
   44DOPE  C213 5611   3.320   1.809   4.136 -0.2237  0.5308  0.0084
   44DOPE  H13R 5612   3.275   1.889   4.198 -0.2277 -0.3960  1.2385
   44DOPE  H13S 5613   3.430   1.824   4.137  0.0032 -0.8962  1.3737
   44DOPE  C214 5614   3.278   1.670   4.191 -1.3418 -0.2470  0.6137
   44DOPE  H14R 5615   3.326   1.650   4.289 -2.3980 -1.1307  0.9722
   44DOPE  H14S 5616   3.323   1.595   4.123  1.7221  2.4618 -0.5884
   44DOPE  C215 5617   3.131   1.654   4.208  0.0468 -0.1355  0.3652
   44DOPE  H15R 5618   3.074   1.679   4.116 -0.5027  1.5084  1.1079
   44DOPE  H15S 5619   3.099   1.730   4.284  0.7625 -0.1918  0.7301
   44DOPE  C216 5620   3.091   1.517   4.268 -0.2060  0.2904 -0.5317
   44DOPE  H16R 5621   3.153   1.510   4.360  0.5278 -0.1000 -1.0404
   44DOPE  H16S 5622   3.118   1.434   4.199 -0.5927 -0.2187 -0.0853
   44DOPE  C217 5623   2.942   1.503   4.298  0.3683 -0.0313 -0.8650
   44DOPE  H17R 5624   2.880   1.525   4.208  0.3872 -0.8842 -1.0990
   44DOPE  H17S 5625   2.909   1.571   4.379 -0.1577  0.0579 -1.1451
   44DOPE  C218 5626   2.919   1.367   4.369 -0.0241 -0.1815  0.1152
   44DOPE  H18R 5627   2.908   1.286   4.293 -1.7175  0.2065 -0.0909
   44DOPE  H18S 5628   2.826   1.364   4.430  1.1156  0.2525  1.9477
   44DOPE  H18T 5629   3.004   1.352   4.439 -0.5564 -0.2695  0.7477
   44DOPE   C33 5630   3.039   2.394   3.607 -1.0197 -0.3866 -0.1777
   44DOPE   H3X 5631   3.096   2.490   3.606  1.4616 -1.8050 -1.1477
   44DOPE   H3Y 5632   3.108   2.329   3.665 -1.3633 -0.6380 -0.0472
   44DOPE   C34 5633   2.914   2.418   3.695  0.1298  0.2911  0.4343
   44DOPE   H4X 5634   2.945   2.478   3.783  1.8050  0.8506 -0.5066
   44DOPE   H4Y 5635   2.845   2.478   3.631 -0.5555  0.9986  1.7861
   44DOPE   C35 5636   2.850   2.284   3.732 -0.5811  0.3722  0.0522
   44DOPE   H5X 5637   2.911   2.210   3.787 -2.2176 -0.1288  1.2728
   44DOPE   H5Y 5638   2.806   2.229   3.646 -0.8539 -1.6589  1.4175
   44DOPE   C36 5639   2.732   2.305   3.827  0.3915 -0.0254  0.2659
   44DOPE   H6X 5640   2.662   2.386   3.798  1.7259  0.5044 -1.6362
   44DOPE   H6Y 5641   2.773   2.343   3.923  0.5802 -0.0020  0.1765
   44DOPE   C37 5642   2.664   2.171   3.861  0.0623  0.0622 -0.3099
   44DOPE   H7X 5643   2.585   2.139   3.790 -2.1125 -0.6028  2.1988
   44DOPE   H7Y 5644   2.745   2.096   3.860  0.9363  0.9918 -0.4485
   44DOPE   C38 5645   2.606   2.167   4.002  0.1957  0.6160 -0.4876
   44DOPE   H8X 5646   2.683   2.204   4.072  1.2454  2.3281 -2.4298
   44DOPE   H8Y 5647   2.577   2.063   4.026 -0.7156  0.8460 -0.5329
   44DOPE   C39 5648   2.477   2.247   4.011  0.2439  0.2883  0.3935
   44DOPE   H9X 5649   2.422   2.253   3.915 -0.5915  0.7938  0.8924
   44DOPE  C310 5650   2.432   2.315   4.118 -0.6772 -0.0282 -0.7478
   44DOPE  H10X 5651   2.329   2.351   4.103 -0.0185  2.0312 -0.5880
   44DOPE  C311 5652   2.501   2.328   4.255 -0.3445  0.3004  0.2512
   44DOPE  H11X 5653   2.605   2.288   4.260 -1.5811 -3.2140  0.5893
   44DOPE  H11Y 5654   2.505   2.435   4.287  1.3918  0.4533 -0.3983
   44DOPE  C312 5655   2.436   2.253   4.370 -0.0510 -0.1751 -0.1675
   44DOPE  H12X 5656   2.413   2.151   4.334  0.8544 -1.1458  1.8550
   44DOPE  H12Y 5657   2.343   2.301   4.407  0.8825  1.1067  0.6149
   44DOPE  C313 5658   2.529   2.229   4.488  0.9803  1.1721 -0.5601
   44DOPE  H13X 5659   2.622   2.172   4.466  0.7566  0.8538 -0.6762
   44DOPE  H13Y 5660   2.563   2.329   4.524  2.3916  0.6598 -0.4008
   44DOPE  C314 5661   2.449   2.150   4.592 -0.1379  0.3550  0.1552
   44DOPE  H14X 5662   2.411   2.060   4.538 -0.3251 -1.4010  3.0164
   44DOPE  H14Y 5663   2.362   2.209   4.626 -0.3831 -0.9629  1.9569
   44DOPE  C315 5664   2.545   2.103   4.710  0.6342 -0.1343  0.5429
   44DOPE  H15X 5665   2.596   2.195   4.747 -0.5417  0.4279  0.8418
   44DOPE  H15Y 5666   2.627   2.042   4.668 -0.1680 -1.2394  0.5341
   44DOPE  C316 5667   2.464   2.019   4.812 -0.0293  0.4699  0.4658
   44DOPE  H16X 5668   2.410   1.949   4.745 -0.8985  0.1542  1.4703
   44DOPE  H16Y 5669   2.393   2.089   4.861 -0.2713  0.6070 -0.0650
   44DOPE  C317 5670   2.547   1.956   4.918 -0.8489 -0.6630 -0.4302
   44DOPE  H17X 5671   2.497   1.877   4.978  1.9827 -2.0763  0.2944
   44DOPE  H17Y 5672   2.627   1.910   4.855 -1.4802 -1.0971 -0.9261
   44DOPE  C318 5673   2.609   2.056   5.015 -0.3911  0.0077  0.4063
   44DOPE  H18X 5674   2.529   2.106   5.074  1.4116  0.7108  2.4286
   44DOPE  H18Y 5675   2.675   2.008   5.091 -0.4233 -0.6607  0.0173
   44DOPE  H18Z 5676   2.667   2.136   4.964 -1.9858  2.3195  2.0234
   45DOPE     N 5677   3.979   2.418   2.293  0.2623 -0.3850  0.8950
   45DOPE   HN1 5678   3.967   2.451   2.196  1.2653  1.0669  1.2364
   45DOPE   HN2 5679   4.006   2.501   2.349 -2.8785  1.3289  0.0455
   45DOPE   HN3 5680   4.058   2.351   2.280  0.4562 -0.2654  1.4401
   45DOPE   C12 5681   3.861   2.349   2.356 -0.2096  0.5795 -0.8164
   45DOPE  H12A 5682   3.811   2.287   2.279  2.0344 -0.2105 -1.7152
   45DOPE  H12B 5683   3.797   2.434   2.389  0.7235  1.2034 -0.5492
   45DOPE   C11 5684   3.911   2.271   2.480  0.8286  0.2807 -0.0821
   45DOPE  H11A 5685   3.962   2.342   2.548 -0.0134 -0.3184  1.2186
   45DOPE  H11B 5686   3.985   2.190   2.459 -0.0258 -0.8510  1.1126
   45DOPE     P 5687   3.687   2.293   2.620  0.2026  0.2362  0.3694
   45DOPE   O13 5688   3.632   2.201   2.721  0.0064 -1.0242  0.7217
   45DOPE   O14 5689   3.593   2.359   2.526  0.1226 -0.2612  0.5462
   45DOPE   O11 5690   3.760   2.416   2.696  0.2434  0.0938 -0.3617
   45DOPE   O12 5691   3.799   2.216   2.542  0.1583 -0.3730  0.4409
   45DOPE    C1 5692   3.823   2.379   2.821 -0.0336  0.2201  0.0067
   45DOPE    HA 5693   3.931   2.401   2.809 -0.4113  1.6234 -1.1251
   45DOPE    HB 5694   3.818   2.272   2.850  0.0805 -0.1563 -1.2982
   45DOPE    C2 5695   3.762   2.460   2.936  0.4811  0.1904  0.4689
   45DOPE    HS 5696   3.676   2.517   2.894 -1.0962 -1.3692  1.4580
   45DOPE   O21 5697   3.862   2.546   2.992 -0.8713  0.1532  0.2853
   45DOPE   C21 5698   3.812   2.633   3.073 -0.3335 -0.0075  0.2081
   45DOPE   O22 5699   3.694   2.649   3.103  0.5662 -0.1508 -0.3803
   45DOPE   C22 5700   3.927   2.709   3.149  0.2008 -0.3621  0.0758
   45DOPE   H2R 5701   3.906   2.817   3.133 -2.9232 -0.1917  3.7414
   45DOPE   H2S 5702   4.022   2.671   3.106  1.4471  0.7821  1.6615
   45DOPE    C3 5703   3.700   2.368   3.048  0.2682  0.3378 -0.0945
   45DOPE    HX 5704   3.614   2.310   3.009  1.2253  0.4098 -2.5077
   45DOPE    HY 5705   3.650   2.431   3.124 -0.8337  1.1925 -1.4706
   45DOPE   O31 5706   3.800   2.278   3.102  0.4939  0.0852 -0.1695
   45DOPE   C31 5707   3.750   2.205   3.198 -0.3799  1.0711  1.0043
   45DOPE   O32 5708   3.628   2.192   3.220 -0.2545  0.3506  0.1943
   45DOPE   C32 5709   3.858   2.141   3.292  0.3251 -0.7682  0.6297
   45DOPE   H2X 5710   3.951   2.134   3.230 -0.2630 -0.1133 -0.3521
   45DOPE   H2Y 5711   3.878   2.205   3.380 -0.0969 -0.3288  0.4097
   45DOPE   C23 5712   3.927   2.682   3.305 -0.1939 -0.0249  0.1352
   45DOPE   H3R 5713   3.824   2.697   3.345  1.1569  1.2007  3.5140
   45DOPE   H3S 5714   3.999   2.747   3.359 -0.7884  3.5155 -2.9551
   45DOPE   C24 5715   3.964   2.532   3.341  0.2023 -0.1759 -0.4707
   45DOPE   H4R 5716   4.060   2.518   3.286  1.0111 -0.5315  0.9661
   45DOPE   H4S 5717   3.883   2.464   3.306  0.7659 -2.2203  1.8508
   45DOPE   C25 5718   3.986   2.506   3.496 -0.0696  0.6760 -0.2279
   45DOPE   H5R 5719   4.055   2.578   3.544  1.7913  0.1502 -1.9510
   45DOPE   H5S 5720   4.021   2.401   3.507 -2.5495  0.0155  2.4909
   45DOPE   C26 5721   3.854   2.495   3.568  0.1161  0.3615  0.0448
   45DOPE   H6R 5722   3.779   2.443   3.506  0.6670 -0.3417 -0.0565
   45DOPE   H6S 5723   3.811   2.597   3.581  0.0808  0.3230  0.2409
   45DOPE   C27 5724   3.860   2.432   3.710  0.1471 -0.1415  0.3167
   45DOPE   H7R 5725   3.890   2.328   3.687  0.5544  0.5353 -2.5092
   45DOPE   H7S 5726   3.766   2.426   3.769  0.9638  0.0980  1.7052
   45DOPE   C28 5727   3.956   2.493   3.805  0.3927  0.4211 -0.5999
   45DOPE   H8R 5728   3.906   2.578   3.855  0.6721 -0.2171  0.8153
   45DOPE   H8S 5729   4.043   2.528   3.745 -1.7072  2.0838 -2.8592
   45DOPE   C29 5730   4.019   2.387   3.896  0.0736 -0.0102  0.2568
   45DOPE   H9R 5731   4.112   2.339   3.863  1.2007  2.2675 -0.0625
   45DOPE  C210 5732   3.973   2.361   4.021  0.2522  0.4877  0.0694
   45DOPE  H10R 5733   4.002   2.273   4.080 -0.0663  1.2280  1.3793
   45DOPE  C211 5734   3.852   2.432   4.077  0.3325 -1.5701 -0.0842
   45DOPE  H11R 5735   3.770   2.438   4.003  1.0848  2.8314 -0.8748
   45DOPE  H11S 5736   3.879   2.534   4.114  1.3348 -2.0384  0.5394
   45DOPE  C212 5737   3.785   2.358   4.195 -0.1053  0.1161  0.4643
   45DOPE  H12R 5738   3.753   2.262   4.150 -0.3696  1.4304 -2.3862
   45DOPE  H12S 5739   3.694   2.414   4.226  0.5047  1.5434 -0.2389
   45DOPE  C213 5740   3.873   2.331   4.325 -0.4018  0.0425  0.0014
   45DOPE  H13R 5741   3.939   2.417   4.352  2.0179 -1.8719  0.5363
   45DOPE  H13S 5742   3.947   2.251   4.306  0.2277  0.6196 -0.0371
   45DOPE  C214 5743   3.788   2.286   4.440 -0.0557 -0.7141  0.2467
   45DOPE  H14R 5744   3.863   2.233   4.503  1.1186  3.3349  2.6788
   45DOPE  H14S 5745   3.708   2.220   4.401 -0.7696  0.9311 -1.2011
   45DOPE  C215 5746   3.736   2.400   4.534  0.1592 -0.3725 -0.1233
   45DOPE  H15R 5747   3.663   2.454   4.470 -1.7781  0.1032  2.3288
   45DOPE  H15S 5748   3.824   2.461   4.562  0.6447  0.1193 -2.4698
   45DOPE  C216 5749   3.663   2.342   4.660  0.0689 -0.3582  0.1853
   45DOPE  H16R 5750   3.598   2.262   4.618  0.6170 -0.3472 -0.7126
   45DOPE  H16S 5751   3.597   2.422   4.699 -1.5039 -1.9434  0.9393
   45DOPE  C217 5752   3.758   2.285   4.768  0.0099  0.0792 -0.5634
   45DOPE  H17R 5753   3.846   2.351   4.784 -0.4896  0.7210 -0.3773
   45DOPE  H17S 5754   3.798   2.190   4.728  0.0720 -0.7524  1.3409
   45DOPE  C218 5755   3.699   2.290   4.910 -0.0735  0.2862 -0.0397
   45DOPE  H18R 5756   3.714   2.392   4.953  0.9533 -0.1610  0.7092
   45DOPE  H18S 5757   3.758   2.230   4.983 -1.1002  2.0319  2.3664
   45DOPE  H18T 5758   3.594   2.254   4.909 -0.3467  0.9555  1.3458
   45DOPE   C33 5759   3.813   2.004   3.338  0.3666 -0.5999 -0.2387
   45DOPE   H3X 5760   3.789   1.947   3.246 -1.5553 -0.9576  0.4347
   45DOPE   H3Y 5761   3.715   2.000   3.391  0.5806  0.8333  0.3049
   45DOPE   C34 5762   3.916   1.928   3.421  0.0116 -0.5282  0.4543
   45DOPE   H4X 5763   3.868   1.829   3.435  1.0212 -1.1411 -0.3759
   45DOPE   H4Y 5764   4.004   1.918   3.354 -0.4219 -0.2379 -0.1667
   45DOPE   C35 5765   3.954   1.996   3.555 -0.9361 -0.1934 -0.8754
   45DOPE   H5X 5766   4.010   2.091   3.549  0.4043 -0.9858 -1.3377
   45DOPE   H5Y 5767   4.024   1.926   3.605 -0.3934  1.7434  1.2139
   45DOPE   C36 5768   3.839   2.000   3.659  0.2290 -0.1921 -0.1870
   45DOPE   H6X 5769   3.790   1.901   3.667 -1.9542  0.9133  0.9014
   45DOPE   H6Y 5770   3.756   2.067   3.626  1.4756  2.1760  1.1596
   45DOPE   C37 5771   3.885   2.040   3.808 -0.6099 -0.8364 -0.1259
   45DOPE   H7X 5772   3.947   1.950   3.830 -0.9299 -1.0227  0.0151
   45DOPE   H7Y 5773   3.953   2.125   3.789 -0.3985 -0.8583  0.5260
   45DOPE   C38 5774   3.784   2.080   3.915  0.0274  0.4570  0.1315
   45DOPE   H8X 5775   3.729   2.165   3.868  0.1630  0.9878  0.9038
   45DOPE   H8Y 5776   3.847   2.120   3.998 -0.6391  3.3839 -0.6477
   45DOPE   C39 5777   3.708   1.958   3.949  0.0253 -0.3256 -0.3174
   45DOPE   H9X 5778   3.656   1.925   3.858 -0.8603  0.7467 -0.2184
   45DOPE  C310 5779   3.717   1.892   4.061  0.2065 -0.1192 -0.0039
   45DOPE  H10X 5780   3.665   1.795   4.066  0.5049 -0.2222  1.5884
   45DOPE  C311 5781   3.789   1.934   4.192  0.0994 -0.0529  0.7825
   45DOPE  H11X 5782   3.890   1.966   4.157 -0.7049  1.5445 -0.2079
   45DOPE  H11Y 5783   3.741   2.026   4.232 -0.4567 -0.4194  0.9649
   45DOPE  C312 5784   3.798   1.831   4.307  0.1598  0.4044  0.0818
   45DOPE  H12X 5785   3.860   1.750   4.263  2.4516  1.0810  1.8761
   45DOPE  H12Y 5786   3.701   1.784   4.336  0.1637  0.1861 -0.2509
   45DOPE  C313 5787   3.874   1.886   4.425  0.2764  0.1534  0.8918
   45DOPE  H13X 5788   3.962   1.936   4.379  0.7338 -2.6718 -1.5588
   45DOPE  H13Y 5789   3.806   1.958   4.475 -1.1972  0.0637 -0.8675
   45DOPE  C314 5790   3.918   1.774   4.524 -0.1538 -0.5823  0.1377
   45DOPE  H14X 5791   4.007   1.815   4.577 -0.0384 -1.6320  0.7928
   45DOPE  H14Y 5792   3.959   1.687   4.469  1.0616  1.0921 -1.6998
   45DOPE  C315 5793   3.800   1.734   4.612  0.5267  0.2780  0.2028
   45DOPE  H15X 5794   3.713   1.713   4.546 -0.1710  1.1657  0.8123
   45DOPE  H15Y 5795   3.762   1.805   4.688  0.5836 -0.4821  0.9517
   45DOPE  C316 5796   3.838   1.604   4.687  0.3183 -0.3415  0.3595
   45DOPE  H16X 5797   3.941   1.613   4.728  0.9377 -1.4764 -0.8683
   45DOPE  H16Y 5798   3.844   1.519   4.616  0.2409  0.6028 -0.8148
   45DOPE  C317 5799   3.735   1.571   4.801 -0.7634 -0.5389  0.1447
   45DOPE  H17X 5800   3.721   1.660   4.866 -0.8946  0.4698 -1.2039
   45DOPE  H17Y 5801   3.636   1.548   4.755  0.1050 -1.0125 -1.5844
   45DOPE  C318 5802   3.780   1.457   4.889 -0.3287  0.3685 -0.7449
   45DOPE  H18X 5803   3.788   1.360   4.835  3.4514  0.8756 -1.3725
   45DOPE  H18Y 5804   3.881   1.475   4.931 -0.3164 -0.5102 -0.3753
   45DOPE  H18Z 5805   3.703   1.431   4.965 -1.7944  1.8555 -1.6335
   46DOPE     N 5806   3.614   7.486   2.996 -0.4179  0.1713 -0.5872
   46DOPE   HN1 5807   3.543   7.436   3.053  0.6542  0.3064  0.9427
   46DOPE   HN2 5808   3.703   7.439   3.022 -0.5178 -0.0456 -0.6360
   46DOPE   HN3 5809   3.609   7.582   3.036 -0.8635  0.7321 -1.9384
   46DOPE   C12 5810   3.574   7.486   2.852 -0.7046  0.4207 -0.6288
   46DOPE  H12A 5811   3.573   7.379   2.822  0.8345  0.3386 -0.4446
   46DOPE  H12B 5812   3.653   7.531   2.789  1.9642 -2.7485  0.1476
   46DOPE   C11 5813   3.428   7.542   2.834  0.2949 -0.9195  0.1486
   46DOPE  H11A 5814   3.356   7.501   2.909 -1.8862  0.7582 -0.9065
   46DOPE  H11B 5815   3.400   7.508   2.732  1.4866 -2.6404  0.3652
   46DOPE     P 5816   3.300   7.768   2.796  0.1868  0.0621  0.0239
   46DOPE   O13 5817   3.266   7.720   2.658  0.4552 -0.6737  0.2738
   46DOPE   O14 5818   3.331   7.912   2.807 -0.4568  0.2143  0.1580
   46DOPE   O11 5819   3.185   7.724   2.887  0.0134  0.0545 -0.0160
   46DOPE   O12 5820   3.430   7.691   2.845  0.3942 -0.1977 -0.0031
   46DOPE    C1 5821   3.183   7.696   3.027  0.0752  0.6149  0.2462
   46DOPE    HA 5822   3.270   7.627   3.035  0.5817  1.1822 -0.2765
   46DOPE    HB 5823   3.084   7.649   3.047 -0.3678  1.7796  0.9033
   46DOPE    C2 5824   3.191   7.823   3.112 -0.0699  0.8685  0.1186
   46DOPE    HS 5825   3.124   7.898   3.065  1.5031  2.2430 -0.0262
   46DOPE   O21 5826   3.332   7.859   3.122  0.5352  0.5435 -0.5708
   46DOPE   C21 5827   3.338   7.993   3.141  0.0134 -0.2242  0.9096
   46DOPE   O22 5828   3.245   8.071   3.154 -0.3154  0.0972  0.4413
   46DOPE   C22 5829   3.483   8.039   3.155  0.0654  0.0190  0.0814
   46DOPE   H2R 5830   3.494   8.123   3.084 -1.7384  0.6664  0.5008
   46DOPE   H2S 5831   3.545   7.953   3.123  0.6363  1.0918 -1.8059
   46DOPE    C3 5832   3.127   7.795   3.259 -0.9702  0.0501  0.1623
   46DOPE    HX 5833   3.022   7.765   3.238 -1.0037  0.6563 -0.5922
   46DOPE    HY 5834   3.123   7.889   3.318  0.8596 -0.2002  0.7362
   46DOPE   O31 5835   3.196   7.696   3.337  0.3069 -0.1375  0.1629
   46DOPE   C31 5836   3.150   7.568   3.336 -0.4667 -0.1884  0.3580
   46DOPE   O32 5837   3.050   7.532   3.284  0.2771  0.5353 -0.6687
   46DOPE   C32 5838   3.261   7.488   3.396 -0.0085 -0.3599  0.0846
   46DOPE   H2X 5839   3.300   7.408   3.330 -0.2585 -0.8612  0.5467
   46DOPE   H2Y 5840   3.349   7.551   3.423  0.6539 -0.9995 -0.5299
   46DOPE   C23 5841   3.522   8.108   3.291  1.1317 -0.7027  0.4636
   46DOPE   H3R 5842   3.457   8.197   3.301  1.5939 -0.3540  0.3887
   46DOPE   H3S 5843   3.628   8.138   3.275  0.6543  0.2681 -1.0836
   46DOPE   C24 5844   3.544   8.019   3.408  0.7285  0.5416  0.1254
   46DOPE   H4R 5845   3.610   8.069   3.481  1.5456 -1.8255  1.0996
   46DOPE   H4S 5846   3.599   7.933   3.363 -0.3732 -0.9559  1.5150
   46DOPE   C25 5847   3.423   7.971   3.484  0.3607  0.0024  0.4050
   46DOPE   H5R 5848   3.444   7.902   3.569 -0.1019 -0.3057  0.2724
   46DOPE   H5S 5849   3.358   7.909   3.419  0.9100  0.3562 -0.5023
   46DOPE   C26 5850   3.348   8.079   3.565 -0.2564  0.1708 -0.0405
   46DOPE   H6R 5851   3.330   8.163   3.495  2.6068  2.0419  1.2475
   46DOPE   H6S 5852   3.417   8.119   3.643  2.8089 -0.9330 -2.0164
   46DOPE   C27 5853   3.219   8.029   3.626 -0.2875 -0.1167 -1.0146
   46DOPE   H7R 5854   3.147   7.993   3.550 -2.2392  1.2387  0.1143
   46DOPE   H7S 5855   3.153   8.113   3.657 -1.0465 -0.0089 -2.8223
   46DOPE   C28 5856   3.239   7.943   3.748  0.5133  0.2767 -0.2000
   46DOPE   H8R 5857   3.277   8.006   3.830 -2.4081  0.5415  1.0872
   46DOPE   H8S 5858   3.318   7.866   3.734  0.0593 -0.1918 -0.2050
   46DOPE   C29 5859   3.109   7.878   3.786  0.1589  0.5863 -0.0910
   46DOPE   H9R 5860   3.087   7.784   3.733 -0.8034  1.3684 -1.1078
   46DOPE  C210 5861   3.037   7.919   3.894  0.5977 -0.3886 -0.0433
   46DOPE  H10R 5862   2.946   7.860   3.917  1.3113 -1.7669 -0.6035
   46DOPE  C211 5863   3.064   8.038   3.985 -0.1169 -0.4223 -0.6620
   46DOPE  H11R 5864   2.961   8.077   3.997 -0.5992 -2.1716  1.6950
   46DOPE  H11S 5865   3.135   8.111   3.942  0.5684 -0.9168 -0.3832
   46DOPE  C212 5866   3.115   7.989   4.124 -0.1493  0.5344  0.2611
   46DOPE  H12R 5867   3.219   7.953   4.112  0.9680  3.9141 -1.7268
   46DOPE  H12S 5868   3.052   7.905   4.159 -1.8279  2.3547  1.8807
   46DOPE  C213 5869   3.104   8.106   4.226 -0.2632  0.0099 -0.3570
   46DOPE  H13R 5870   3.001   8.147   4.214  0.4283  2.2122  0.6938
   46DOPE  H13S 5871   3.167   8.194   4.203  1.4362 -1.0468  0.0713
   46DOPE  C214 5872   3.128   8.052   4.365 -0.0113 -0.2523  0.9898
   46DOPE  H14R 5873   3.065   7.961   4.381 -0.2886 -0.3273 -0.4513
   46DOPE  H14S 5874   3.094   8.132   4.434 -0.2977 -0.7271  1.4122
   46DOPE  C215 5875   3.278   8.023   4.402 -0.0186  0.6254 -0.8075
   46DOPE  H15R 5876   3.339   8.112   4.375 -1.2715  2.6278  2.4436
   46DOPE  H15S 5877   3.303   7.932   4.343 -1.0664  0.0704 -0.4134
   46DOPE  C216 5878   3.304   7.998   4.550  0.0012 -0.4261 -0.0269
   46DOPE  H16R 5879   3.314   7.889   4.569  3.6067 -0.4723 -1.2734
   46DOPE  H16S 5880   3.225   8.051   4.607  0.6137 -0.0480  0.4920
   46DOPE  C217 5881   3.439   8.070   4.580  0.4194  0.6479 -0.1610
   46DOPE  H17R 5882   3.435   8.174   4.541 -0.7024  0.6273 -0.1243
   46DOPE  H17S 5883   3.513   8.009   4.523  2.4830 -0.3306  3.2506
   46DOPE  C218 5884   3.475   8.080   4.727  0.0679  0.6079 -0.1512
   46DOPE  H18R 5885   3.414   8.153   4.785  0.0013  1.2321 -0.9995
   46DOPE  H18S 5886   3.578   8.117   4.743 -0.8148  2.9004  0.7584
   46DOPE  H18T 5887   3.460   7.982   4.778 -2.8154 -0.1785 -2.2567
   46DOPE   C33 5888   3.213   7.424   3.520  0.5349  0.8685 -0.0613
   46DOPE   H3X 5889   3.283   7.343   3.550 -0.0125  0.2125 -0.5229
   46DOPE   H3Y 5890   3.118   7.367   3.507  0.9214  0.3207 -0.5612
   46DOPE   C34 5891   3.188   7.520   3.637  0.3289 -0.4145 -0.1034
   46DOPE   H4X 5892   3.285   7.569   3.657 -0.2245  1.0727 -0.9202
   46DOPE   H4Y 5893   3.111   7.597   3.615 -0.0169  0.2923  3.0976
   46DOPE   C35 5894   3.147   7.448   3.768  0.0344  0.3543  0.4776
   46DOPE   H5X 5895   3.217   7.366   3.792 -0.3762 -0.5282 -1.2079
   46DOPE   H5Y 5896   3.049   7.395   3.764  1.7667 -3.1662  0.7117
   46DOPE   C36 5897   3.135   7.542   3.886  0.1308  0.0137 -0.1797
   46DOPE   H6X 5898   3.048   7.608   3.868 -2.2044 -2.9491 -0.6709
   46DOPE   H6Y 5899   3.226   7.605   3.889  1.3587 -1.7031  1.9350
   46DOPE   C37 5900   3.129   7.476   4.027 -0.5756 -0.4315 -0.0941
   46DOPE   H7X 5901   3.046   7.404   4.040  0.4177 -1.5835 -0.0305
   46DOPE   H7Y 5902   3.225   7.422   4.038 -0.0043  0.6236  0.2650
   46DOPE   C38 5903   3.143   7.583   4.139  0.3095 -0.9140  0.9115
   46DOPE   H8X 5904   3.058   7.652   4.125  0.5698 -0.4200  1.7327
   46DOPE   H8Y 5905   3.234   7.645   4.125 -1.1386  0.7670 -1.9419
   46DOPE   C39 5906   3.139   7.514   4.271 -0.1874 -0.2286 -0.2801
   46DOPE   H9X 5907   3.222   7.452   4.308 -2.0736 -1.8478  1.4004
   46DOPE  C310 5908   3.045   7.521   4.364  0.2317 -0.7061  0.1853
   46DOPE  H10X 5909   3.051   7.471   4.462 -2.0427  0.9498  1.2603
   46DOPE  C311 5910   2.917   7.600   4.355  0.3004 -0.7914  0.0660
   46DOPE  H11X 5911   2.937   7.708   4.372 -0.3265 -0.5784 -0.4963
   46DOPE  H11Y 5912   2.882   7.602   4.249 -1.8232 -0.5512  0.7264
   46DOPE  C312 5913   2.798   7.551   4.440  0.5581  1.1595 -0.4034
   46DOPE  H12X 5914   2.764   7.449   4.413  2.1653  0.0090  1.6089
   46DOPE  H12Y 5915   2.706   7.607   4.414 -0.5975 -1.5337 -2.5995
   46DOPE  C313 5916   2.814   7.537   4.592  0.5405  0.0113  0.3928
   46DOPE  H13X 5917   2.896   7.469   4.622 -1.7529 -2.3133  1.8688
   46DOPE  H13Y 5918   2.844   7.638   4.628  0.6643  0.4653 -0.9325
   46DOPE  C314 5919   2.693   7.495   4.677 -0.3215  0.3871  0.3196
   46DOPE  H14X 5920   2.641   7.414   4.622  1.4438  0.4799 -1.5911
   46DOPE  H14Y 5921   2.630   7.584   4.694 -2.7895 -1.5369  1.9748
   46DOPE  C315 5922   2.730   7.459   4.825 -0.4141 -0.3436 -0.1309
   46DOPE  H15X 5923   2.822   7.509   4.862  0.3722 -1.8158 -0.0022
   46DOPE  H15Y 5924   2.752   7.350   4.829  2.0448  0.1140  0.3536
   46DOPE  C316 5925   2.620   7.488   4.923  0.0500 -0.0359  0.1845
   46DOPE  H16X 5926   2.529   7.446   4.875  0.9518 -1.5222 -0.2953
   46DOPE  H16Y 5927   2.598   7.597   4.923 -0.9759 -0.2098  1.9594
   46DOPE  C317 5928   2.635   7.426   5.063 -0.3118 -0.5483  0.2082
   46DOPE  H17X 5929   2.721   7.471   5.117 -0.9178 -0.8195  1.4381
   46DOPE  H17Y 5930   2.548   7.447   5.129 -0.5468  2.7937 -0.9965
   46DOPE  C318 5931   2.662   7.274   5.058  0.3226  1.1191 -0.1414
   46DOPE  H18X 5932   2.770   7.252   5.041  0.1908  0.6622 -0.3847
   46DOPE  H18Y 5933   2.637   7.226   5.155  1.1316  1.2304  0.1292
   46DOPE  H18Z 5934   2.606   7.223   4.977 -0.2199 -0.9502  1.4550
   47DOPE     N 5935   2.144   5.516   3.490  0.0483  0.5592 -0.0376
   47DOPE   HN1 5936   2.042   5.522   3.472  0.3769  1.1507 -2.0555
   47DOPE   HN2 5937   2.175   5.601   3.542 -1.0135  3.1016 -3.1531
   47DOPE   HN3 5938   2.195   5.524   3.399  0.2704  1.4410  0.1554
   47DOPE   C12 5939   2.158   5.386   3.559 -0.0355  0.1170  0.1258
   47DOPE  H12A 5940   2.056   5.348   3.582 -0.5005  2.0115  1.4601
   47DOPE  H12B 5941   2.221   5.400   3.650  1.2439 -1.6589 -0.4354
   47DOPE   C11 5942   2.237   5.290   3.471  0.4049 -0.5269 -0.7820
   47DOPE  H11A 5943   2.181   5.270   3.377  3.1455  0.0778 -2.6663
   47DOPE  H11B 5944   2.243   5.195   3.528  0.0195  0.2930  0.6783
   47DOPE     P 5945   2.495   5.287   3.510  0.0921  0.2751  0.0881
   47DOPE   O13 5946   2.599   5.387   3.478 -0.2394  0.5679 -0.3341
   47DOPE   O14 5947   2.517   5.150   3.465 -0.1853  0.2537 -0.0814
   47DOPE   O11 5948   2.447   5.289   3.657 -0.1623 -0.3502  0.3459
   47DOPE   O12 5949   2.366   5.337   3.430 -0.1485  0.6145 -0.3845
   47DOPE    C1 5950   2.525   5.328   3.773  0.3881  0.2935  0.8916
   47DOPE    HA 5951   2.629   5.348   3.741 -0.0756  1.5750  0.1159
   47DOPE    HB 5952   2.520   5.239   3.840 -1.7312  0.7746  1.4733
   47DOPE    C2 5953   2.456   5.445   3.854  0.1492  0.1418 -0.4540
   47DOPE    HS 5954   2.508   5.465   3.950 -1.1573 -0.1357  0.3332
   47DOPE   O21 5955   2.316   5.408   3.874  0.1484 -0.3300  0.6203
   47DOPE   C21 5956   2.291   5.365   3.997  0.3291 -0.0805 -0.2448
   47DOPE   O22 5957   2.374   5.345   4.083 -0.1949 -0.8702  0.0192
   47DOPE   C22 5958   2.140   5.341   4.012 -0.0843  0.1600  0.4358
   47DOPE   H2R 5959   2.112   5.325   3.906  0.4949 -2.6212  0.6303
   47DOPE   H2S 5960   2.089   5.435   4.041  2.3975  1.8195 -0.2742
   47DOPE    C3 5961   2.449   5.579   3.776 -0.7145  0.1038  0.1076
   47DOPE    HX 5962   2.419   5.553   3.672  1.9915 -1.1580 -0.4555
   47DOPE    HY 5963   2.552   5.622   3.770 -0.7941  0.0802 -2.2329
   47DOPE   O31 5964   2.365   5.676   3.846  0.0427 -0.5732  0.4571
   47DOPE   C31 5965   2.257   5.720   3.790 -0.3731 -0.1838  0.6132
   47DOPE   O32 5966   2.237   5.712   3.668  0.6934 -0.3147 -0.0013
   47DOPE   C32 5967   2.176   5.796   3.888 -0.9413  0.3385 -0.0185
   47DOPE   H2X 5968   2.237   5.884   3.919 -1.2902  0.8623 -0.7812
   47DOPE   H2Y 5969   2.086   5.835   3.836 -1.3624 -0.0925  0.3862
   47DOPE   C23 5970   2.110   5.218   4.089  0.3311  0.5922  0.0682
   47DOPE   H3R 5971   2.195   5.155   4.125 -0.6085 -0.1211  1.1059
   47DOPE   H3S 5972   2.051   5.152   4.021  2.2590 -0.8599 -0.2961
   47DOPE   C24 5973   2.021   5.247   4.209 -0.2324  0.2902  0.5180
   47DOPE   H4R 5974   1.968   5.156   4.245  2.0460 -2.5010 -2.5733
   47DOPE   H4S 5975   1.930   5.304   4.180  0.2129  0.7432 -0.0021
   47DOPE   C25 5976   2.093   5.321   4.328 -0.1991 -0.0462  0.5759
   47DOPE   H5R 5977   2.037   5.407   4.371 -0.8257 -0.6801  1.0478
   47DOPE   H5S 5978   2.191   5.359   4.292 -0.0426 -0.0832  0.9543
   47DOPE   C26 5979   2.113   5.229   4.449  0.5376 -1.3106  0.1808
   47DOPE   H6R 5980   2.018   5.216   4.505  1.0939 -1.4009  1.1163
   47DOPE   H6S 5981   2.164   5.294   4.523  1.1364 -0.0051 -1.3238
   47DOPE   C27 5982   2.170   5.098   4.420 -0.3435  0.7813 -0.2018
   47DOPE   H7R 5983   2.271   5.114   4.376 -1.2073 -0.3854 -2.7842
   47DOPE   H7S 5984   2.108   5.048   4.342 -0.9319  2.0880 -0.6074
   47DOPE   C28 5985   2.199   5.017   4.550 -0.6780  0.0656 -0.0116
   47DOPE   H8R 5986   2.125   5.031   4.632  1.5399  0.8350  1.9661
   47DOPE   H8S 5987   2.296   5.051   4.590 -1.1693 -0.0073  1.2813
   47DOPE   C29 5988   2.210   4.871   4.523 -0.1447  0.2184 -0.0900
   47DOPE   H9R 5989   2.117   4.813   4.537  0.8504 -1.5003 -0.4144
   47DOPE  C210 5990   2.316   4.803   4.478 -0.2828 -0.0363  0.6526
   47DOPE  H10R 5991   2.295   4.699   4.448  0.9481 -0.0151 -0.3571
   47DOPE  C211 5992   2.453   4.849   4.432  0.9209  0.1965  0.7940
   47DOPE  H11R 5993   2.511   4.904   4.509 -3.5151  1.0149  3.9598
   47DOPE  H11S 5994   2.437   4.918   4.347  1.4867 -0.6154  0.0083
   47DOPE  C212 5995   2.537   4.744   4.353  0.6974  0.2281  0.0830
   47DOPE  H12R 5996   2.491   4.716   4.256  0.2579 -1.3716  0.7198
   47DOPE  H12S 5997   2.545   4.649   4.411  0.3732  0.9756  1.4111
   47DOPE  C213 5998   2.674   4.796   4.301  0.1692 -0.3862  1.0445
   47DOPE  H13R 5999   2.742   4.784   4.387 -0.0315 -1.3447  1.0749
   47DOPE  H13S 6000   2.664   4.903   4.272 -1.5221 -0.7722  0.0194
   47DOPE  C214 6001   2.723   4.720   4.176  0.1665 -0.5744 -0.2245
   47DOPE  H14R 6002   2.822   4.763   4.153  1.3254 -2.2081  1.4619
   47DOPE  H14S 6003   2.652   4.736   4.092  1.1680  0.1192 -0.9561
   47DOPE  C215 6004   2.753   4.574   4.194  0.4774  0.1904 -0.0449
   47DOPE  H15R 6005   2.664   4.514   4.222  0.1882  0.5567 -0.1769
   47DOPE  H15S 6006   2.823   4.558   4.279 -1.3423 -0.5004  1.3800
   47DOPE  C216 6007   2.802   4.501   4.068 -0.4715  0.0997 -0.8101
   47DOPE  H16R 6008   2.891   4.548   4.021  0.5301 -1.4132 -0.5267
   47DOPE  H16S 6009   2.721   4.497   3.992 -0.3649 -1.3830 -0.8884
   47DOPE  C217 6010   2.837   4.354   4.092 -0.1874  0.1691 -0.5421
   47DOPE  H17R 6011   2.739   4.309   4.118 -0.0911  0.0347 -0.4058
   47DOPE  H17S 6012   2.903   4.345   4.182  1.5088  2.0942 -1.5046
   47DOPE  C218 6013   2.915   4.280   3.982 -0.1875  0.0764 -0.1751
   47DOPE  H18R 6014   2.988   4.349   3.936 -2.1371  1.4653 -1.3360
   47DOPE  H18S 6015   2.842   4.247   3.905  0.6167 -1.1578 -0.4514
   47DOPE  H18T 6016   2.968   4.190   4.021 -0.9905 -0.6541 -0.7263
   47DOPE   C33 6017   2.110   5.717   4.001  0.6249 -0.2774  0.2792
   47DOPE   H3X 6018   2.195   5.694   4.069  0.1142  1.0439  1.4271
   47DOPE   H3Y 6019   2.062   5.625   3.961  0.7208 -0.3145  0.2500
   47DOPE   C34 6020   2.019   5.801   4.095  0.7483  0.2060  0.6413
   47DOPE   H4X 6021   2.076   5.875   4.155  0.3966 -0.3473  1.6823
   47DOPE   H4Y 6022   1.952   5.851   4.021 -2.7421 -3.5116  0.9019
   47DOPE   C35 6023   1.935   5.725   4.194  0.0438 -0.0772 -0.7304
   47DOPE   H5X 6024   2.004   5.658   4.251 -0.8387  0.9665  1.6785
   47DOPE   H5Y 6025   1.874   5.658   4.130  0.8733 -0.2054 -1.4009
   47DOPE   C36 6026   1.848   5.813   4.291 -0.0510 -0.0590  0.5582
   47DOPE   H6X 6027   1.782   5.881   4.232  0.0729  0.3843  0.9226
   47DOPE   H6Y 6028   1.912   5.880   4.352 -0.2006  0.0730  0.5741
   47DOPE   C37 6029   1.758   5.728   4.381 -0.0795  0.2195 -1.2455
   47DOPE   H7X 6030   1.721   5.794   4.463  1.2470 -0.1953 -0.2799
   47DOPE   H7Y 6031   1.672   5.689   4.323 -2.0543  2.1749  0.2086
   47DOPE   C38 6032   1.836   5.608   4.439  0.1623 -0.1192  0.6436
   47DOPE   H8X 6033   1.926   5.645   4.492 -0.3428  1.6058  0.3612
   47DOPE   H8Y 6034   1.878   5.545   4.357  1.6944 -0.2094  1.4773
   47DOPE   C39 6035   1.759   5.522   4.535  0.4284 -0.5066 -0.3791
   47DOPE   H9X 6036   1.654   5.501   4.507 -0.3284  1.8735  0.4319
   47DOPE  C310 6037   1.796   5.466   4.657 -0.2060 -0.7669 -0.3312
   47DOPE  H10X 6038   1.725   5.396   4.705 -1.4284  0.2610 -0.5728
   47DOPE  C311 6039   1.925   5.477   4.723 -0.0893  0.1250 -0.3620
   47DOPE  H11X 6040   2.009   5.487   4.651  0.2402  1.0445  0.1319
   47DOPE  H11Y 6041   1.926   5.573   4.779 -1.9929 -0.2023  0.2891
   47DOPE  C312 6042   1.949   5.359   4.818  0.1070  0.2128  0.3517
   47DOPE  H12X 6043   1.958   5.271   4.751  0.0285 -1.0912  1.9991
   47DOPE  H12Y 6044   1.859   5.338   4.879  2.0114  1.6281  3.9524
   47DOPE  C313 6045   2.076   5.372   4.909  0.5035  0.7096 -0.1153
   47DOPE  H13X 6046   2.165   5.391   4.845  0.1802  0.6218 -0.5978
   47DOPE  H13Y 6047   2.061   5.460   4.975 -0.5075  0.2622  0.2661
   47DOPE  C314 6048   2.103   5.252   4.998  0.4440  0.2091 -0.9350
   47DOPE  H14X 6049   2.090   5.154   4.946  0.9697  0.4475 -1.5340
   47DOPE  H14Y 6050   2.018   5.267   5.068 -0.4694 -0.6865 -1.8179
   47DOPE  C315 6051   2.233   5.261   5.080 -0.7190 -0.7210  0.0399
   47DOPE  H15X 6052   2.235   5.367   5.114 -2.9211 -0.6053 -0.0747
   47DOPE  H15Y 6053   2.317   5.248   5.008  1.5338  1.0092  2.1843
   47DOPE  C316 6054   2.244   5.178   5.203 -0.0742  0.0964  0.4336
   47DOPE  H16X 6055   2.271   5.071   5.187 -1.7120 -0.4922  1.4405
   47DOPE  H16Y 6056   2.141   5.183   5.243 -0.3610  1.3026 -0.4218
   47DOPE  C317 6057   2.352   5.224   5.302 -0.0182 -0.1478  0.0128
   47DOPE  H17X 6058   2.449   5.220   5.249  0.2334  0.2246  0.4407
   47DOPE  H17Y 6059   2.335   5.333   5.316 -1.3395 -0.3948  0.5118
   47DOPE  C318 6060   2.350   5.137   5.431 -1.0398  0.0319  0.3022
   47DOPE  H18X 6061   2.249   5.146   5.477 -0.9934 -1.7220  0.8292
   47DOPE  H18Y 6062   2.364   5.029   5.412  1.3821  0.6760 -2.2740
   47DOPE  H18Z 6063   2.424   5.184   5.500 -1.3382 -0.8203  1.2274
   48DOPE     N 6064   5.896   0.625   3.265 -0.4777 -0.6174  0.3776
   48DOPE   HN1 6065   5.927   0.612   3.166 -3.7066 -1.2210 -0.6862
   48DOPE   HN2 6066   5.878   0.527   3.294  1.4174 -1.1384 -0.0649
   48DOPE   HN3 6067   5.814   0.689   3.265  0.2598  0.3556 -0.0386
   48DOPE   C12 6068   6.005   0.692   3.351  0.0010  0.7882  0.8236
   48DOPE  H12A 6069   6.105   0.655   3.321 -0.9652 -0.8758 -0.5366
   48DOPE  H12B 6070   5.987   0.666   3.458 -2.3669 -1.5896 -0.0606
   48DOPE   C11 6071   6.007   0.845   3.342 -0.2559  0.4841  0.0468
   48DOPE  H11A 6072   6.008   0.876   3.235 -2.6939  1.2340  0.1790
   48DOPE  H11B 6073   6.101   0.891   3.378  0.5077 -2.6842  2.5591
   48DOPE     P 6074   5.899   1.057   3.453 -0.0888 -0.1262  0.3349
   48DOPE   O13 6075   5.790   1.076   3.547 -0.2063  0.4201 -1.1390
   48DOPE   O14 6076   5.890   1.145   3.331 -0.2677 -0.4836 -0.9675
   48DOPE   O11 6077   6.044   1.076   3.528  0.1786  0.3943 -0.4680
   48DOPE   O12 6078   5.896   0.902   3.413  0.2788 -0.2339 -0.4440
   48DOPE    C1 6079   6.087   1.008   3.641 -0.2923 -0.5702 -0.5674
   48DOPE    HA 6080   6.186   0.967   3.613 -0.0344  0.8018 -1.8056
   48DOPE    HB 6081   6.021   0.922   3.662  0.3732 -0.7619  0.8339
   48DOPE    C2 6082   6.106   1.102   3.762  0.0829  0.2699  0.3738
   48DOPE    HS 6083   6.154   1.042   3.842  0.7479  2.1571  1.4765
   48DOPE   O21 6084   5.978   1.140   3.818  0.0528 -0.2963 -0.0505
   48DOPE   C21 6085   5.906   1.047   3.873  0.3540 -0.8831 -0.0757
   48DOPE   O22 6086   5.947   0.937   3.906  0.3624 -0.4777  0.4103
   48DOPE   C22 6087   5.758   1.092   3.884  0.5375 -0.2013  0.3063
   48DOPE   H2R 6088   5.706   1.009   3.833  1.8017 -1.0723  0.3952
   48DOPE   H2S 6089   5.752   1.190   3.832  0.0197  0.8285  2.2019
   48DOPE    C3 6090   6.190   1.231   3.736 -0.8189 -0.0169  0.6629
   48DOPE    HX 6091   6.198   1.284   3.833  1.3414 -0.5199  0.7911
   48DOPE    HY 6092   6.127   1.295   3.671 -0.2125  1.1838  1.2350
   48DOPE   O31 6093   6.325   1.215   3.691  0.0444  0.0794  0.5515
   48DOPE   C31 6094   6.382   1.331   3.674 -0.3204 -0.2266 -0.4702
   48DOPE   O32 6095   6.341   1.443   3.696 -0.0872 -0.4505 -0.1798
   48DOPE   C32 6096   6.518   1.311   3.606 -0.8126 -0.2356  0.1407
   48DOPE   H2X 6097   6.575   1.225   3.647 -0.1959 -0.0015 -0.2135
   48DOPE   H2Y 6098   6.493   1.279   3.503  1.8463  0.8040 -0.9027
   48DOPE   C23 6099   5.711   1.093   4.031  0.2670  0.1928  0.3934
   48DOPE   H3R 6100   5.732   0.994   4.077  0.2983  0.6389  1.3487
   48DOPE   H3S 6101   5.600   1.093   4.017 -0.1569 -0.1848  3.2058
   48DOPE   C24 6102   5.754   1.220   4.106  0.1177  0.3103 -0.1199
   48DOPE   H4R 6103   5.712   1.317   4.070  1.6290  0.8959 -0.3813
   48DOPE   H4S 6104   5.864   1.231   4.092  0.0578  0.6394 -0.3415
   48DOPE   C25 6105   5.724   1.215   4.258 -0.3206  0.0485  0.1496
   48DOPE   H5R 6106   5.776   1.134   4.314  2.3412 -2.1270 -4.8308
   48DOPE   H5S 6107   5.619   1.185   4.281  0.0342 -0.0883  1.7079
   48DOPE   C26 6108   5.741   1.348   4.330  0.8767 -0.0997 -0.0378
   48DOPE   H6R 6109   5.650   1.406   4.303  1.0728  0.1024 -0.2625
   48DOPE   H6S 6110   5.841   1.391   4.311  2.0565 -0.3674  4.3824
   48DOPE   C27 6111   5.742   1.336   4.488  0.3039 -0.4569  0.2064
   48DOPE   H7R 6112   5.786   1.237   4.516  0.9228 -0.8867 -2.0392
   48DOPE   H7S 6113   5.638   1.336   4.528  0.0337  1.6629 -0.4033
   48DOPE   C28 6114   5.827   1.453   4.549  0.6848 -0.2244  0.3641
   48DOPE   H8R 6115   5.932   1.451   4.511  0.2838 -2.1666 -0.7702
   48DOPE   H8S 6116   5.831   1.439   4.659 -0.6609  1.0470  0.6052
   48DOPE   C29 6117   5.773   1.586   4.500 -0.4602 -1.0105 -0.5021
   48DOPE   H9R 6118   5.780   1.608   4.392  2.0412 -1.9471 -0.5980
   48DOPE  C210 6119   5.701   1.675   4.571  0.1033  0.3717 -0.2617
   48DOPE  H10R 6120   5.685   1.775   4.527  0.0147 -0.4942 -2.3218
   48DOPE  C211 6121   5.657   1.664   4.712 -0.7508 -0.6741 -0.2527
   48DOPE  H11R 6122   5.684   1.565   4.754 -1.2358 -1.2167 -1.1769
   48DOPE  H11S 6123   5.547   1.657   4.726 -0.5564 -0.7335  1.5316
   48DOPE  C212 6124   5.714   1.771   4.812 -0.4434 -0.0204  0.4846
   48DOPE  H12R 6125   5.658   1.768   4.908  0.0155 -0.1404  0.7479
   48DOPE  H12S 6126   5.693   1.866   4.758 -0.5133 -2.7174 -4.8020
   48DOPE  C213 6127   5.868   1.764   4.830 -0.1707  0.4123  0.2456
   48DOPE  H13R 6128   5.915   1.759   4.729  1.2811  0.2876  0.8969
   48DOPE  H13S 6129   5.892   1.672   4.887 -1.0161  1.0384  1.6474
   48DOPE  C214 6130   5.931   1.883   4.911 -0.2002 -0.0282 -0.1541
   48DOPE  H14R 6131   5.897   1.978   4.865 -1.0151  1.0251  2.4524
   48DOPE  H14S 6132   6.039   1.869   4.887 -0.5077 -0.2845 -1.4873
   48DOPE  C215 6133   5.897   1.870   5.064 -0.5474  0.0718 -0.1016
   48DOPE  H15R 6134   5.913   1.765   5.097 -2.7080 -0.0693  0.6374
   48DOPE  H15S 6135   5.789   1.888   5.079 -1.7680 -2.6024 -4.0106
   48DOPE  C216 6136   5.996   1.957   5.148 -0.3204  0.7988 -0.5016
   48DOPE  H16R 6137   5.975   2.062   5.119 -0.5129  0.9295  0.1013
   48DOPE  H16S 6138   6.103   1.943   5.125 -0.5922  0.8274 -1.8616
   48DOPE  C217 6139   5.970   1.949   5.299 -0.3707 -0.2901 -0.0209
   48DOPE  H17R 6140   5.960   1.840   5.323 -1.0347 -0.2906 -0.2730
   48DOPE  H17S 6141   5.869   1.985   5.328 -0.1297 -0.6736  1.3966
   48DOPE  C218 6142   6.058   2.021   5.403 -0.1676 -0.1530 -0.6391
   48DOPE  H18R 6143   6.165   1.994   5.409  0.1733  1.4430  3.5792
   48DOPE  H18S 6144   6.030   2.002   5.509  0.0246 -3.1363 -1.0304
   48DOPE  H18T 6145   6.052   2.130   5.382 -3.8434 -0.2911 -1.0095
   48DOPE   C33 6146   6.595   1.438   3.604  0.4192 -0.0347  0.1895
   48DOPE   H3X 6147   6.550   1.527   3.556 -0.3636 -0.2148  0.5767
   48DOPE   H3Y 6148   6.681   1.427   3.535  0.4191 -1.7366  0.4261
   48DOPE   C34 6149   6.658   1.480   3.740  0.6086  0.5241 -0.5847
   48DOPE   H4X 6150   6.704   1.579   3.721  1.3930  0.2640 -0.0619
   48DOPE   H4Y 6151   6.572   1.478   3.812  0.1216 -1.9632 -1.1676
   48DOPE   C35 6152   6.773   1.390   3.773 -0.1525 -0.3189 -0.7177
   48DOPE   H5X 6153   6.857   1.408   3.703  0.7785  1.8734  0.8758
   48DOPE   H5Y 6154   6.742   1.284   3.760 -0.7425 -0.1934 -0.3666
   48DOPE   C36 6155   6.831   1.412   3.911  0.5865  0.2970  0.6971
   48DOPE   H6X 6156   6.756   1.402   3.992 -0.1529 -1.1400 -0.1294
   48DOPE   H6Y 6157   6.858   1.520   3.919  2.2479 -0.0908  0.7698
   48DOPE   C37 6158   6.942   1.314   3.938 -0.1221  0.7822 -0.1206
   48DOPE   H7X 6159   6.886   1.219   3.934 -1.7500  1.7321 -0.5685
   48DOPE   H7Y 6160   7.020   1.308   3.860  0.2699  1.6114  0.1903
   48DOPE   C38 6161   7.012   1.323   4.078  0.4764 -0.6896 -0.6665
   48DOPE   H8X 6162   7.050   1.221   4.098  0.1160 -0.5475  0.8579
   48DOPE   H8Y 6163   6.928   1.339   4.150  0.3806 -1.7230 -0.5266
   48DOPE   C39 6164   7.119   1.427   4.086 -0.4335 -0.6639 -0.5906
   48DOPE   H9X 6165   7.197   1.432   4.008  1.3987  0.7489  1.2242
   48DOPE  C310 6166   7.144   1.507   4.194 -0.0978  0.8515  0.6555
   48DOPE  H10X 6167   7.221   1.585   4.188 -0.3449  1.1490  1.2358
   48DOPE  C311 6168   7.065   1.506   4.319 -0.1493 -0.5181 -0.0276
   48DOPE  H11X 6169   7.032   1.605   4.357 -1.8598 -0.4871 -1.4829
   48DOPE  H11Y 6170   6.974   1.442   4.317 -0.2687 -0.3542  0.2070
   48DOPE  C312 6171   7.172   1.444   4.425  0.2697 -0.3424 -0.4339
   48DOPE  H12X 6172   7.235   1.365   4.381  0.9385  0.3505 -0.7421
   48DOPE  H12Y 6173   7.125   1.391   4.511 -0.5247 -1.6620 -1.6347
   48DOPE  C313 6174   7.255   1.555   4.485  0.5677  0.0712  0.4414
   48DOPE  H13X 6175   7.315   1.608   4.407 -1.9851  2.4591 -0.0484
   48DOPE  H13Y 6176   7.184   1.631   4.524  1.2492  0.5834  0.6946
   48DOPE  C314 6177   7.343   1.501   4.597  0.3459 -0.6417  0.8837
   48DOPE  H14X 6178   7.398   1.414   4.556  2.0825  0.0725  1.5772
   48DOPE  H14Y 6179   7.286   1.471   4.687 -0.1817  0.6894  1.0173
   48DOPE  C315 6180   7.448   1.615   4.628  0.0561 -0.2989  0.5679
   48DOPE  H15X 6181   7.406   1.710   4.665  1.4634  2.5598 -4.3197
   48DOPE  H15Y 6182   7.504   1.653   4.540 -1.5769  4.1504  1.2214
   48DOPE  C316 6183   7.564   1.561   4.713 -0.9679 -0.0123 -0.6294
   48DOPE  H16X 6184   7.624   1.485   4.659 -1.2795 -0.9209  0.2659
   48DOPE  H16Y 6185   7.531   1.507   4.805 -2.1384  2.0306  0.2244
   48DOPE  C317 6186   7.651   1.682   4.751 -0.3238 -0.8377  0.5963
   48DOPE  H17X 6187   7.708   1.696   4.656 -1.7609 -0.1299 -0.2006
   48DOPE  H17Y 6188   7.601   1.778   4.775  2.3456  0.5447  0.9703
   48DOPE  C318 6189   7.773   1.650   4.847 -0.0347  0.1377  0.3301
   48DOPE  H18X 6190   7.823   1.554   4.823  0.9635  1.2077 -2.2569
   48DOPE  H18Y 6191   7.844   1.736   4.841 -1.2512  1.0770 -1.4890
   48DOPE  H18Z 6192   7.734   1.647   4.951  1.1278 -0.7372  0.7703
   49DOPE     N 6193   3.535   6.249   3.222 -0.4555  0.2144 -0.2586
   49DOPE   HN1 6194   3.626   6.206   3.196 -1.5831 -1.7339 -1.2581
   49DOPE   HN2 6195   3.551   6.352   3.222 -0.2291  0.2474 -2.9237
   49DOPE   HN3 6196   3.500   6.222   3.316 -2.0911  1.1147 -0.5636
   49DOPE   C12 6197   3.415   6.205   3.133  0.3128  0.0349 -0.3703
   49DOPE  H12A 6198   3.429   6.094   3.133  0.1510  0.0140  0.1718
   49DOPE  H12B 6199   3.425   6.252   3.033 -1.1018  1.0425 -0.0623
   49DOPE   C11 6200   3.288   6.251   3.200 -0.1058 -0.2367 -0.1645
   49DOPE  H11A 6201   3.275   6.189   3.292  1.2745  0.8756  0.8225
   49DOPE  H11B 6202   3.197   6.232   3.140 -1.1583  1.4342  0.8179
   49DOPE     P 6203   3.230   6.445   3.358 -0.2273  0.1039  0.0354
   49DOPE   O13 6204   3.221   6.597   3.352  0.0554  0.5128 -0.0554
   49DOPE   O14 6205   3.318   6.381   3.460  0.3698  0.2839 -0.1611
   49DOPE   O11 6206   3.084   6.385   3.363  0.3132  0.2918 -0.4521
   49DOPE   O12 6207   3.289   6.387   3.225 -0.0749 -0.0451 -0.0756
   49DOPE    C1 6208   3.026   6.318   3.474  0.4866 -1.0391 -0.4517
   49DOPE    HA 6209   3.093   6.252   3.533 -1.6961 -0.5631  2.7977
   49DOPE    HB 6210   2.961   6.240   3.428  0.4265 -0.6597 -1.0265
   49DOPE    C2 6211   2.957   6.415   3.569  0.4866 -0.1658 -0.3945
   49DOPE    HS 6212   2.899   6.488   3.509  0.4626 -1.3530 -1.8932
   49DOPE   O21 6213   3.062   6.477   3.642 -0.1698  0.3782 -0.0150
   49DOPE   C21 6214   3.047   6.608   3.663  0.0899 -0.1086  0.1187
   49DOPE   O22 6215   2.939   6.665   3.651 -0.5330 -0.4648  0.2524
   49DOPE   C22 6216   3.186   6.676   3.699  0.9517  0.4986 -0.1922
   49DOPE   H2R 6217   3.175   6.784   3.720  1.7095  0.9994 -2.1232
   49DOPE   H2S 6218   3.254   6.655   3.613  1.5730  1.3119  0.0889
   49DOPE    C3 6219   2.861   6.350   3.670  0.3864  0.5476 -1.1172
   49DOPE    HX 6220   2.799   6.422   3.727  1.2100 -1.9823  3.4159
   49DOPE    HY 6221   2.929   6.300   3.743 -2.2702 -1.2580  0.2796
   49DOPE   O31 6222   2.776   6.251   3.610 -0.2383 -0.0878  0.1308
   49DOPE   C31 6223   2.663   6.299   3.553  0.1346 -0.1489 -0.1934
   49DOPE   O32 6224   2.633   6.416   3.548 -0.5846  0.2362  0.8212
   49DOPE   C32 6225   2.586   6.185   3.506 -0.1795  0.6130 -0.4078
   49DOPE   H2X 6226   2.532   6.228   3.419 -0.6186  0.1218 -0.3830
   49DOPE   H2Y 6227   2.649   6.102   3.466 -0.9980  0.0310 -0.5176
   49DOPE   C23 6228   3.251   6.605   3.826  0.9267 -0.1939  0.2838
   49DOPE   H3R 6229   3.360   6.606   3.810  1.7125  0.4027  4.3785
   49DOPE   H3S 6230   3.225   6.497   3.832 -0.7713  0.2455  3.3756
   49DOPE   C24 6231   3.230   6.690   3.961  0.0995 -0.2410  0.5756
   49DOPE   H4R 6232   3.264   6.796   3.960  1.5086 -0.5764 -2.5831
   49DOPE   H4S 6233   3.294   6.644   4.039 -0.7584  2.8058  3.3064
   49DOPE   C25 6234   3.079   6.681   4.001 -0.4262  0.1198  0.1411
   49DOPE   H5R 6235   3.017   6.723   3.919 -1.5487  2.3450  2.0131
   49DOPE   H5S 6236   3.058   6.745   4.090  1.0573 -0.5735  1.0322
   49DOPE   C26 6237   3.041   6.538   4.027 -0.0339 -0.1014  0.2120
   49DOPE   H6R 6238   3.115   6.490   4.095 -1.0709 -2.6625 -0.3501
   49DOPE   H6S 6239   3.048   6.492   3.926  0.0186  1.8149 -0.7065
   49DOPE   C27 6240   2.905   6.513   4.096  0.1014  0.3003 -0.7914
   49DOPE   H7R 6241   2.917   6.527   4.205  2.2714  2.1707 -1.1995
   49DOPE   H7S 6242   2.880   6.406   4.076 -2.3322  0.2714  1.8052
   49DOPE   C28 6243   2.777   6.593   4.047 -0.0661 -0.2687 -1.1126
   49DOPE   H8R 6244   2.753   6.556   3.945  0.2055 -0.1021 -1.2380
   49DOPE   H8S 6245   2.804   6.700   4.039  2.6148 -0.9056 -1.7310
   49DOPE   C29 6246   2.661   6.560   4.131 -0.3243  0.5860  0.0720
   49DOPE   H9R 6247   2.640   6.630   4.213 -0.6793  2.7418 -1.7701
   49DOPE  C210 6248   2.550   6.487   4.100 -0.0125 -0.4611 -1.1689
   49DOPE  H10R 6249   2.471   6.492   4.177  0.7753 -0.7560 -0.3110
   49DOPE  C211 6250   2.528   6.396   3.991 -0.5838  0.7361 -0.5216
   49DOPE  H11R 6251   2.630   6.361   3.968 -1.0051 -0.2098 -0.9804
   49DOPE  H11S 6252   2.494   6.451   3.900 -0.4075  0.3614 -0.8132
   49DOPE  C212 6253   2.450   6.272   4.019  0.8298  0.6717  0.5505
   49DOPE  H12R 6254   2.444   6.195   3.939 -0.3912  0.6806  0.6128
   49DOPE  H12S 6255   2.351   6.319   4.037  0.3082 -0.6020  1.1124
   49DOPE  C213 6256   2.503   6.187   4.137 -0.0403 -0.1389 -0.2174
   49DOPE  H13R 6257   2.531   6.256   4.220  0.0011 -0.2186 -0.1656
   49DOPE  H13S 6258   2.592   6.126   4.113  0.1922 -1.3156  3.0419
   49DOPE  C214 6259   2.407   6.082   4.202 -0.3082 -0.1315  0.1702
   49DOPE  H14R 6260   2.342   6.033   4.127  0.0772  0.1264 -0.3336
   49DOPE  H14S 6261   2.347   6.128   4.284 -4.2712 -0.6171 -2.2170
   49DOPE  C215 6262   2.489   5.965   4.266  0.3624  0.4797 -0.8129
   49DOPE  H15R 6263   2.528   6.009   4.360  1.6032 -1.6902 -0.2276
   49DOPE  H15S 6264   2.569   5.939   4.194  0.8201  1.4831 -0.6725
   49DOPE  C216 6265   2.397   5.843   4.296  0.2389  0.4157 -0.1069
   49DOPE  H16R 6266   2.333   5.815   4.210  1.4285 -0.1324 -0.8420
   49DOPE  H16S 6267   2.334   5.868   4.384  1.3682  1.0175  0.5643
   49DOPE  C217 6268   2.481   5.724   4.340 -0.2129  0.0257  0.2221
   49DOPE  H17R 6269   2.406   5.646   4.366  0.4402 -0.9949 -0.8725
   49DOPE  H17S 6270   2.543   5.747   4.429 -0.7400 -0.0241  0.6042
   49DOPE  C218 6271   2.563   5.673   4.220  0.3684 -0.1502  0.2889
   49DOPE  H18R 6272   2.672   5.673   4.240  0.6992 -4.2223 -0.5071
   49DOPE  H18S 6273   2.544   5.732   4.128 -0.6994 -0.8432  0.0392
   49DOPE  H18T 6274   2.546   5.563   4.212  2.6575 -0.5658  0.5350
   49DOPE   C33 6275   2.482   6.124   3.618  0.3452 -0.3617  0.6585
   49DOPE   H3X 6276   2.532   6.128   3.717  1.7095  0.9707 -0.0443
   49DOPE   H3Y 6277   2.468   6.018   3.589  0.8515  0.2966 -2.3350
   49DOPE   C34 6278   2.344   6.188   3.616 -0.1794  1.0023  0.0862
   49DOPE   H4X 6279   2.342   6.296   3.641 -3.2464  1.3728 -1.4168
   49DOPE   H4Y 6280   2.311   6.173   3.511 -1.1575  1.4505  0.3261
   49DOPE   C35 6281   2.243   6.133   3.709  0.2749  0.1035 -0.1527
   49DOPE   H5X 6282   2.280   6.151   3.812 -1.1528 -0.0863  0.4250
   49DOPE   H5Y 6283   2.244   6.023   3.699  1.2611  0.0953 -0.0205
   49DOPE   C36 6284   2.102   6.192   3.682 -0.0657  1.3285  0.0899
   49DOPE   H6X 6285   2.073   6.164   3.579  1.7662 -0.4439 -0.0082
   49DOPE   H6Y 6286   2.106   6.303   3.675 -1.4241  1.3980  0.0547
   49DOPE   C37 6287   1.992   6.158   3.786 -0.1270  0.2105  0.2412
   49DOPE   H7X 6288   1.893   6.190   3.748  0.2579  3.9086  1.9354
   49DOPE   H7Y 6289   1.983   6.048   3.774 -2.3620  0.4947 -1.1435
   49DOPE   C38 6290   2.024   6.202   3.931  0.1603  0.0450  0.4595
   49DOPE   H8X 6291   2.044   6.311   3.918 -0.4870  0.3152  1.6409
   49DOPE   H8Y 6292   2.113   6.148   3.969 -1.1939 -0.6697  2.8037
   49DOPE   C39 6293   1.921   6.163   4.032 -0.5038 -0.1220 -0.1057
   49DOPE   H9X 6294   1.848   6.090   3.995 -1.8471  2.1094 -2.1499
   49DOPE  C310 6295   1.923   6.204   4.162  0.0852  0.4333 -0.1084
   49DOPE  H10X 6296   1.833   6.187   4.222 -0.6092 -1.1705 -1.4976
   49DOPE  C311 6297   2.023   6.298   4.218  0.2198 -0.0546  0.3476
   49DOPE  H11X 6298   2.100   6.329   4.144  1.2606 -3.4979 -0.2417
   49DOPE  H11Y 6299   1.974   6.387   4.263 -0.0805 -0.2310  0.3750
   49DOPE  C312 6300   2.104   6.233   4.330  0.4821 -0.2897  0.4465
   49DOPE  H12X 6301   2.147   6.139   4.288 -2.3779 -0.3033 -2.8238
   49DOPE  H12Y 6302   2.030   6.215   4.411  0.2075 -0.2841  0.1987
   49DOPE  C313 6303   2.214   6.330   4.385  0.1582 -1.0431 -0.3963
   49DOPE  H13X 6304   2.302   6.334   4.317  1.2543  0.9752  1.0373
   49DOPE  H13Y 6305   2.174   6.432   4.401  0.4344 -1.0215  0.2212
   49DOPE  C314 6306   2.260   6.281   4.525  0.9431  1.2565 -0.2514
   49DOPE  H14X 6307   2.259   6.170   4.531  1.0160  1.3235  1.4991
   49DOPE  H14Y 6308   2.188   6.313   4.603 -0.7267 -3.5026  0.4488
   49DOPE  C315 6309   2.395   6.336   4.552  0.6961  0.7664  0.3639
   49DOPE  H15X 6310   2.378   6.440   4.518 -0.4357 -0.0837 -1.8641
   49DOPE  H15Y 6311   2.459   6.286   4.476 -1.0728  1.0059 -1.3542
   49DOPE  C316 6312   2.459   6.299   4.688  0.6754  0.3486  0.4128
   49DOPE  H16X 6313   2.380   6.319   4.764  1.1129 -0.6658  1.1727
   49DOPE  H16Y 6314   2.547   6.362   4.714  0.3521  0.5294  1.1060
   49DOPE  C317 6315   2.504   6.145   4.679  0.2046  0.6131 -0.8973
   49DOPE  H17X 6316   2.408   6.091   4.660  1.0769 -0.4512 -2.6519
   49DOPE  H17Y 6317   2.568   6.121   4.591 -2.0733 -1.0849 -2.2174
   49DOPE  C318 6318   2.564   6.084   4.812 -0.6113  0.0478  0.1035
   49DOPE  H18X 6319   2.483   6.072   4.887 -0.3083 -0.1325  0.4041
   49DOPE  H18Y 6320   2.606   5.984   4.789 -0.2573 -0.6226  3.2478
   49DOPE  H18Z 6321   2.646   6.148   4.849 -0.1472  0.0262 -0.8540
   50DOPE     N 6322   7.154   6.101   2.826 -0.5805  0.2740  0.6617
   50DOPE   HN1 6323   7.093   6.156   2.889 -0.5009  2.1945 -0.8365
   50DOPE   HN2 6324   7.232   6.157   2.785  0.1636 -0.5351  0.9394
   50DOPE   HN3 6325   7.110   6.063   2.740  2.1190  1.3396 -1.3317
   50DOPE   C12 6326   7.209   5.981   2.902 -0.5021  0.2033  0.2942
   50DOPE  H12A 6327   7.126   5.907   2.906 -0.7278  0.3978 -0.4845
   50DOPE  H12B 6328   7.208   6.013   3.008 -0.3873 -0.8798  0.6258
   50DOPE   C11 6329   7.333   5.911   2.836 -0.6240 -0.4869 -0.0788
   50DOPE  H11A 6330   7.299   5.863   2.742 -3.4494  0.7504  0.1864
   50DOPE  H11B 6331   7.370   5.832   2.905  0.6016  0.3230  0.2345
   50DOPE     P 6332   7.500   6.099   2.919 -0.2572 -0.6194  0.0956
   50DOPE   O13 6333   7.395   6.178   2.984  0.1349  0.5034 -0.2348
   50DOPE   O14 6334   7.616   6.169   2.859  0.0161 -0.1495 -0.2090
   50DOPE   O11 6335   7.552   6.007   3.039  0.2569  0.4344  0.4476
   50DOPE   O12 6336   7.432   6.008   2.808 -0.0676  0.1991  0.4022
   50DOPE    C1 6337   7.668   5.924   3.009  0.2973 -0.0701 -0.3004
   50DOPE    HA 6338   7.736   5.983   2.943  0.6296  2.0111  1.7981
   50DOPE    HB 6339   7.631   5.838   2.950 -0.3138 -0.5905  0.8182
   50DOPE    C2 6340   7.732   5.894   3.142 -0.6670 -0.2050 -0.1895
   50DOPE    HS 6341   7.821   5.832   3.119 -0.3456  0.0019  0.4767
   50DOPE   O21 6342   7.648   5.817   3.231 -0.3948  0.5840 -0.0506
   50DOPE   C21 6343   7.626   5.692   3.199  0.0197 -0.4479  0.4057
   50DOPE   O22 6344   7.663   5.643   3.095  0.3982  0.0730 -0.0105
   50DOPE   C22 6345   7.543   5.623   3.304  0.0694 -0.4249  0.2345
   50DOPE   H2R 6346   7.578   5.518   3.295 -0.3075 -0.4370 -1.4956
   50DOPE   H2S 6347   7.437   5.643   3.276  0.3058 -0.7901 -0.9499
   50DOPE    C3 6348   7.780   6.014   3.219 -0.1053  0.0608 -0.3921
   50DOPE    HX 6349   7.700   6.052   3.286  0.2493  0.5390 -0.2428
   50DOPE    HY 6350   7.796   6.098   3.148  2.3927 -0.5932 -0.6993
   50DOPE   O31 6351   7.897   5.987   3.305  0.1719 -0.5287  0.0299
   50DOPE   C31 6352   8.015   5.984   3.240 -1.1931 -0.4265 -0.7552
   50DOPE   O32 6353   8.031   6.013   3.126  0.5336  0.3985  0.1647
   50DOPE   C32 6354   8.122   5.925   3.338  0.0851 -0.5429  0.0001
   50DOPE   H2X 6355   8.080   5.922   3.441 -0.9940  1.8229 -0.2966
   50DOPE   H2Y 6356   8.143   5.822   3.301  0.8409  0.5908 -3.0517
   50DOPE   C23 6357   7.578   5.673   3.442 -0.6746 -0.2839  0.3329
   50DOPE   H3R 6358   7.539   5.777   3.444 -0.0511 -0.0122 -0.7478
   50DOPE   H3S 6359   7.689   5.685   3.442 -0.5897 -0.9761 -0.2570
   50DOPE   C24 6360   7.528   5.585   3.556 -0.5752 -0.3037  0.5282
   50DOPE   H4R 6361   7.583   5.610   3.649  0.5985 -0.2685 -0.1536
   50DOPE   H4S 6362   7.551   5.479   3.534 -1.7172 -0.7718  1.4931
   50DOPE   C25 6363   7.383   5.602   3.582 -0.0822 -0.0275  0.2556
   50DOPE   H5R 6364   7.323   5.582   3.491  1.1591  2.3505 -1.1835
   50DOPE   H5S 6365   7.349   5.708   3.592  0.1744  0.1766 -0.9387
   50DOPE   C26 6366   7.323   5.509   3.688  0.2109 -0.2821  0.0266
   50DOPE   H6R 6367   7.390   5.523   3.775  1.6327  1.8299 -1.3150
   50DOPE   H6S 6368   7.338   5.409   3.643 -0.8055 -0.6398  0.4518
   50DOPE   C27 6369   7.175   5.540   3.728 -0.0343  0.0663  0.2116
   50DOPE   H7R 6370   7.115   5.449   3.707 -0.7867 -0.2164  3.1569
   50DOPE   H7S 6371   7.139   5.613   3.653  2.2779  0.1662 -0.8824
   50DOPE   C28 6372   7.172   5.606   3.864 -0.1836  0.0396 -0.1313
   50DOPE   H8R 6373   7.078   5.663   3.883 -1.3859 -2.6801  3.1449
   50DOPE   H8S 6374   7.254   5.680   3.878 -1.3087  1.7445 -1.9980
   50DOPE   C29 6375   7.169   5.500   3.979 -0.4099 -0.5365 -0.5062
   50DOPE   H9R 6376   7.079   5.437   3.978  0.7421 -2.2548 -2.1553
   50DOPE  C210 6377   7.261   5.480   4.073 -0.7994 -0.1104  0.0193
   50DOPE  H10R 6378   7.231   5.406   4.149 -4.7643 -1.2720 -2.3842
   50DOPE  C211 6379   7.398   5.547   4.089 -0.0773  0.6312 -0.0159
   50DOPE  H11R 6380   7.404   5.632   4.018  0.2798  1.7726  1.3517
   50DOPE  H11S 6381   7.478   5.474   4.062 -0.2474  0.9914 -1.5795
   50DOPE  C212 6382   7.423   5.610   4.228 -0.2686 -0.8308 -0.1868
   50DOPE  H12R 6383   7.327   5.649   4.266 -0.5584 -1.3489 -0.3754
   50DOPE  H12S 6384   7.497   5.693   4.224 -0.7162 -0.4699 -1.6320
   50DOPE  C213 6385   7.463   5.504   4.334  0.0891  0.2288 -0.7298
   50DOPE  H13R 6386   7.395   5.416   4.340  0.7480 -0.1962  1.4706
   50DOPE  H13S 6387   7.453   5.554   4.433  0.8884 -1.8525  0.4700
   50DOPE  C214 6388   7.604   5.440   4.315 -0.3567  0.5026  0.6127
   50DOPE  H14R 6389   7.675   5.501   4.255 -0.2768 -1.9364 -1.9915
   50DOPE  H14S 6390   7.599   5.348   4.253  3.0462  0.7792 -0.2781
   50DOPE  C215 6391   7.667   5.400   4.442 -0.0316  0.2775 -0.3047
   50DOPE  H15R 6392   7.760   5.344   4.416  0.8644  0.8938  1.4057
   50DOPE  H15S 6393   7.603   5.319   4.484  1.3190 -0.5661  0.1889
   50DOPE  C216 6394   7.694   5.505   4.545  0.8309 -0.1479  0.0023
   50DOPE  H16R 6395   7.598   5.538   4.590  0.8875 -0.1913  0.1550
   50DOPE  H16S 6396   7.742   5.594   4.498  0.7351  0.8507  1.7243
   50DOPE  C217 6397   7.789   5.465   4.655  0.6574  0.2685  0.1814
   50DOPE  H17R 6398   7.890   5.455   4.609  0.6160  0.2381  0.0973
   50DOPE  H17S 6399   7.773   5.369   4.709  0.9503  0.5290  0.7428
   50DOPE  C218 6400   7.819   5.574   4.767  0.5511 -0.7190  0.1729
   50DOPE  H18R 6401   7.726   5.599   4.822  0.1802 -0.7156 -0.4458
   50DOPE  H18S 6402   7.855   5.667   4.717 -1.1725 -0.7895 -1.2953
   50DOPE  H18T 6403   7.891   5.530   4.839  2.6806  2.2606  0.0611
   50DOPE   C33 6404   8.252   6.006   3.362  0.2839  0.6329 -0.0702
   50DOPE   H3X 6405   8.220   6.112   3.377  2.8324  1.5550 -0.7038
   50DOPE   H3Y 6406   8.313   6.009   3.269 -0.3189  0.1646 -0.4924
   50DOPE   C34 6407   8.336   5.966   3.483 -0.0620  0.6090 -0.1689
   50DOPE   H4X 6408   8.423   6.030   3.509  0.6262 -0.2693 -0.2531
   50DOPE   H4Y 6409   8.275   5.961   3.576 -2.5611  2.7109 -1.5492
   50DOPE   C35 6410   8.408   5.833   3.457  0.3185 -0.1066  0.4071
   50DOPE   H5X 6411   8.506   5.847   3.407  0.3550  0.2289  0.5751
   50DOPE   H5Y 6412   8.343   5.769   3.394 -0.1892  1.3702 -0.6209
   50DOPE   C36 6413   8.444   5.766   3.592  0.8701 -0.0673 -0.3246
   50DOPE   H6X 6414   8.344   5.735   3.631  1.2614  0.7350  1.4331
   50DOPE   H6Y 6415   8.484   5.843   3.661 -2.3489  0.8140  0.7421
   50DOPE   C37 6416   8.552   5.661   3.582  0.1279  0.1639 -0.0245
   50DOPE   H7X 6417   8.511   5.585   3.512 -0.8223 -1.0037  1.7375
   50DOPE   H7Y 6418   8.654   5.681   3.544  0.2847 -1.1849 -0.3568
   50DOPE   C38 6419   8.567   5.579   3.716 -0.6560  0.3938  0.0462
   50DOPE   H8X 6420   8.466   5.590   3.762 -1.0135 -1.6313 -0.1683
   50DOPE   H8Y 6421   8.644   5.634   3.774  0.0740  0.6342 -1.1196
   50DOPE   C39 6422   8.618   5.438   3.701 -0.0825  0.7067  0.2602
   50DOPE   H9X 6423   8.709   5.434   3.639 -0.0919 -1.3316  0.2917
   50DOPE  C310 6424   8.566   5.318   3.748  0.4262 -0.7415 -0.2576
   50DOPE  H10X 6425   8.614   5.220   3.747 -1.6090 -1.7872 -0.1035
   50DOPE  C311 6426   8.430   5.299   3.821 -1.1521 -0.9465  0.5133
   50DOPE  H11X 6427   8.376   5.394   3.842 -0.8452 -0.1193 -2.1780
   50DOPE  H11Y 6428   8.364   5.241   3.754 -1.0508 -0.4952  0.0170
   50DOPE  C312 6429   8.447   5.228   3.958  0.2655 -0.3369  0.7870
   50DOPE  H12X 6430   8.360   5.240   4.027  0.8590  1.1704  1.3219
   50DOPE  H12Y 6431   8.517   5.287   4.021 -0.0141  0.3493  0.4595
   50DOPE  C313 6432   8.487   5.081   3.950  0.2528  0.0920  0.0946
   50DOPE  H13X 6433   8.429   5.025   3.873 -1.7921  2.3051 -0.1008
   50DOPE  H13Y 6434   8.595   5.081   3.925 -0.5245  2.0472 -4.1861
   50DOPE  C314 6435   8.472   5.011   4.080 -0.3849 -0.4160 -0.4636
   50DOPE  H14X 6436   8.526   4.913   4.075  1.5274  0.6279 -1.2868
   50DOPE  H14Y 6437   8.365   4.987   4.094 -0.0638 -2.7606 -1.4789
   50DOPE  C315 6438   8.531   5.100   4.196  0.4691 -0.0518 -0.6206
   50DOPE  H15X 6439   8.460   5.180   4.226 -1.4045 -1.6222 -0.7375
   50DOPE  H15Y 6440   8.617   5.158   4.156  2.1200 -0.7061  1.7311
   50DOPE  C316 6441   8.576   5.007   4.312  0.1692 -0.2329  0.3503
   50DOPE  H16X 6442   8.592   5.075   4.398 -1.2506  0.2645  0.2517
   50DOPE  H16Y 6443   8.673   4.957   4.293 -0.7181 -2.3906  1.1712
   50DOPE  C317 6444   8.479   4.902   4.364 -0.0408 -0.3553  0.6610
   50DOPE  H17X 6445   8.474   4.818   4.291 -0.7683 -1.0045  1.4341
   50DOPE  H17Y 6446   8.517   4.861   4.460  1.4267 -2.2843 -0.6736
   50DOPE  C318 6447   8.336   4.965   4.380  0.2006 -0.0297  0.0841
   50DOPE  H18X 6448   8.273   4.903   4.448 -0.4675  1.4521  0.8509
   50DOPE  H18Y 6449   8.342   5.070   4.414 -0.3336  0.4609 -1.2774
   50DOPE  H18Z 6450   8.280   4.953   4.284 -2.3302  1.8953  1.2131
   51DOPE     N 6451   1.972   6.501   2.807 -0.3930 -0.0232 -0.8181
   51DOPE   HN1 6452   2.073   6.485   2.788 -0.6134 -3.0663  0.1345
   51DOPE   HN2 6453   1.930   6.416   2.765 -0.7387 -0.9205  1.2450
   51DOPE   HN3 6454   1.941   6.588   2.759 -1.3241  0.4829  0.6315
   51DOPE   C12 6455   1.937   6.498   2.956 -0.0832 -0.6505 -0.0022
   51DOPE  H12A 6456   1.826   6.491   2.958 -0.0054 -2.0920  1.6079
   51DOPE  H12B 6457   1.978   6.591   3.001 -1.2535  0.3613 -0.9364
   51DOPE   C11 6458   1.987   6.369   3.022  0.2102 -0.8053 -0.3896
   51DOPE  H11A 6459   1.943   6.368   3.124  0.8199 -1.4886 -0.1244
   51DOPE  H11B 6460   2.098   6.370   3.027  0.3255 -0.3501 -2.3179
   51DOPE     P 6461   1.912   6.123   3.022 -0.3104  0.3894 -0.0884
   51DOPE   O13 6462   2.027   6.070   3.093 -0.5234  0.0904  0.0193
   51DOPE   O14 6463   1.845   6.023   2.934 -0.5076 -0.0923  0.6061
   51DOPE   O11 6464   1.807   6.177   3.127 -0.7233 -0.3950  0.4779
   51DOPE   O12 6465   1.955   6.253   2.949 -0.1532  0.3815  0.3148
   51DOPE    C1 6466   1.677   6.222   3.078  0.2705  0.1173 -0.0460
   51DOPE    HA 6467   1.627   6.142   3.018 -0.0735 -0.6522  1.2287
   51DOPE    HB 6468   1.681   6.318   3.024  0.6307 -0.8709 -1.8604
   51DOPE    C2 6469   1.587   6.258   3.205  0.2714 -0.4941 -0.5339
   51DOPE    HS 6470   1.486   6.282   3.164 -0.5489 -0.8315  1.1855
   51DOPE   O21 6471   1.651   6.368   3.272  0.6435  0.6288  0.2808
   51DOPE   C21 6472   1.612   6.485   3.224  0.1797  0.0326 -0.1133
   51DOPE   O22 6473   1.524   6.499   3.142  0.2975  0.7564 -0.1658
   51DOPE   C22 6474   1.674   6.610   3.288 -0.2708  0.0612 -0.0136
   51DOPE   H2R 6475   1.597   6.655   3.355  0.1127  1.0995 -0.2426
   51DOPE   H2S 6476   1.701   6.681   3.207  0.5511  1.2301  1.2480
   51DOPE    C3 6477   1.574   6.133   3.294  0.8007  1.0499 -1.2039
   51DOPE    HX 6478   1.671   6.081   3.311  0.7681  1.5541  0.7993
   51DOPE    HY 6479   1.509   6.069   3.231  0.3290  0.6169 -0.3017
   51DOPE   O31 6480   1.510   6.154   3.421  0.2731 -0.3614 -0.6776
   51DOPE   C31 6481   1.583   6.187   3.526  0.1713  0.4964  0.8130
   51DOPE   O32 6482   1.705   6.196   3.530  0.5851 -0.8860  0.5128
   51DOPE   C32 6483   1.495   6.225   3.646  0.6044 -0.1146  0.2103
   51DOPE   H2X 6484   1.430   6.311   3.620  0.8140  0.2393  0.8443
   51DOPE   H2Y 6485   1.439   6.134   3.677 -1.3456  1.6523  2.1915
   51DOPE   C23 6486   1.806   6.589   3.364 -0.0488  0.1691 -0.3440
   51DOPE   H3R 6487   1.880   6.543   3.296 -0.1631 -0.0942 -0.2906
   51DOPE   H3S 6488   1.786   6.520   3.449  0.1937  1.5584  0.8763
   51DOPE   C24 6489   1.851   6.729   3.415  0.1158 -0.3981  0.5098
   51DOPE   H4R 6490   1.766   6.776   3.468 -0.5639 -1.0420  0.0167
   51DOPE   H4S 6491   1.875   6.783   3.321  1.0054 -1.0950  0.3171
   51DOPE   C25 6492   1.971   6.715   3.509 -0.3471  0.2473 -0.0332
   51DOPE   H5R 6493   2.038   6.650   3.450  1.4427 -0.5408  2.6642
   51DOPE   H5S 6494   1.941   6.651   3.595 -0.8638 -0.7551 -0.9425
   51DOPE   C26 6495   2.039   6.851   3.542  0.3038 -0.5766 -0.1494
   51DOPE   H6R 6496   1.970   6.898   3.616  2.7524  1.5061  1.0004
   51DOPE   H6S 6497   2.038   6.914   3.450  2.6030  1.5576  1.1510
   51DOPE   C27 6498   2.185   6.856   3.596 -0.1841  0.7414 -0.1336
   51DOPE   H7R 6499   2.222   6.960   3.582 -0.1261  0.6365 -0.7817
   51DOPE   H7S 6500   2.245   6.795   3.526  1.1256  1.6044  0.2055
   51DOPE   C28 6501   2.196   6.806   3.739 -0.0187  0.1427 -0.0813
   51DOPE   H8R 6502   2.142   6.709   3.742  0.2695 -0.0405 -0.5951
   51DOPE   H8S 6503   2.148   6.873   3.813  0.1449 -0.9613  1.0486
   51DOPE   C29 6504   2.339   6.763   3.769 -0.5339  0.2994  0.5424
   51DOPE   H9R 6505   2.387   6.704   3.690 -1.7440  0.3100 -0.2229
   51DOPE  C210 6506   2.413   6.786   3.887 -0.0217 -0.3822  1.0776
   51DOPE  H10R 6507   2.516   6.748   3.895  0.5047  1.0136  1.2286
   51DOPE  C211 6508   2.369   6.871   4.001  0.3030 -0.2564 -0.2349
   51DOPE  H11R 6509   2.261   6.898   4.002 -0.8850 -4.2138  1.7760
   51DOPE  H11S 6510   2.420   6.969   3.990 -0.9928  0.2908 -1.8122
   51DOPE  C212 6511   2.410   6.815   4.139 -0.1685 -0.8875  0.4530
   51DOPE  H12R 6512   2.520   6.802   4.142  0.3256  2.2924 -0.7609
   51DOPE  H12S 6513   2.363   6.717   4.164 -1.4842 -0.1200  1.1151
   51DOPE  C213 6514   2.362   6.909   4.261 -0.6474 -0.0310  0.2000
   51DOPE  H13R 6515   2.253   6.931   4.272 -1.0081 -0.8440 -1.3310
   51DOPE  H13S 6516   2.412   7.006   4.243  1.5708 -1.1862 -0.2424
   51DOPE  C214 6517   2.423   6.849   4.386 -0.1659 -0.2375 -0.5784
   51DOPE  H14R 6518   2.533   6.836   4.371  0.2831  0.0686  1.9998
   51DOPE  H14S 6519   2.385   6.746   4.404 -0.3920 -0.0162  0.2314
   51DOPE  C215 6520   2.405   6.945   4.508  0.0392  0.4757  0.3672
   51DOPE  H15R 6521   2.294   6.939   4.514  0.0985 -1.0901  0.1685
   51DOPE  H15S 6522   2.450   7.045   4.487  1.3929 -0.0855  0.4850
   51DOPE  C216 6523   2.463   6.892   4.638  0.3754 -0.1802 -0.0633
   51DOPE  H16R 6524   2.467   6.972   4.716 -0.6962  0.1774 -0.3612
   51DOPE  H16S 6525   2.567   6.867   4.609  0.2084 -0.5512 -0.3557
   51DOPE  C217 6526   2.404   6.772   4.710  0.9711  0.3913 -0.3200
   51DOPE  H17R 6527   2.445   6.678   4.668  3.3683  0.0229  2.5085
   51DOPE  H17S 6528   2.294   6.780   4.715  1.1217  1.8617  2.0481
   51DOPE  C218 6529   2.452   6.765   4.856  0.4532 -0.4192 -0.0262
   51DOPE  H18R 6530   2.551   6.714   4.863  0.9604  0.7140  1.7000
   51DOPE  H18S 6531   2.372   6.715   4.914  1.3571  0.4249  2.0747
   51DOPE  H18T 6532   2.463   6.871   4.887  3.1223 -0.5091 -0.3822
   51DOPE   C33 6533   1.578   6.268   3.766 -0.8778 -0.0731 -0.3070
   51DOPE   H3X 6534   1.633   6.363   3.746  0.7499 -0.9238 -0.0543
   51DOPE   H3Y 6535   1.652   6.187   3.780  0.3649  1.4546  2.8599
   51DOPE   C34 6536   1.489   6.297   3.878 -0.5507 -0.2477 -0.2443
   51DOPE   H4X 6537   1.445   6.398   3.867  1.3079  0.6433  0.1273
   51DOPE   H4Y 6538   1.403   6.227   3.889 -2.6400  1.7623 -2.5482
   51DOPE   C35 6539   1.554   6.315   4.020 -1.1046  0.1044  0.4072
   51DOPE   H5X 6540   1.632   6.388   3.991 -2.4823  1.3735 -0.2724
   51DOPE   H5Y 6541   1.592   6.216   4.055 -2.3987 -0.3596  0.5556
   51DOPE   C36 6542   1.466   6.378   4.130  0.3206 -0.1493  0.1319
   51DOPE   H6X 6543   1.386   6.306   4.156 -0.6851  0.6196 -0.7373
   51DOPE   H6Y 6544   1.410   6.457   4.077  2.6671  2.5035  1.3653
   51DOPE   C37 6545   1.537   6.430   4.253  0.5646 -0.3847  0.0951
   51DOPE   H7X 6546   1.621   6.500   4.233  0.3426  0.3035  1.4633
   51DOPE   H7Y 6547   1.472   6.497   4.314 -0.0161  1.2914 -2.2218
   51DOPE   C38 6548   1.576   6.318   4.357  0.3279 -0.0045  0.7408
   51DOPE   H8X 6549   1.636   6.245   4.298  1.5867  1.2723  0.4021
   51DOPE   H8Y 6550   1.486   6.262   4.390 -0.8803  3.0197  3.0648
   51DOPE   C39 6551   1.652   6.362   4.476 -0.3904  0.6289  0.1554
   51DOPE   H9X 6552   1.762   6.359   4.478 -0.3735  1.0132 -0.1113
   51DOPE  C310 6553   1.587   6.405   4.585  0.3321 -0.1223 -0.2630
   51DOPE  H10X 6554   1.642   6.433   4.676 -2.2296 -0.4838  1.4893
   51DOPE  C311 6555   1.437   6.406   4.602 -0.3799  0.5558  0.6387
   51DOPE  H11X 6556   1.387   6.353   4.518  0.0450  0.0932  0.6797
   51DOPE  H11Y 6557   1.411   6.343   4.689 -1.4005 -1.6278 -1.1552
   51DOPE  C312 6558   1.383   6.551   4.611 -0.1178  0.4238  0.6481
   51DOPE  H12X 6559   1.273   6.541   4.615 -0.1359 -1.2918 -1.7980
   51DOPE  H12Y 6560   1.415   6.605   4.520  0.4101  1.4529  1.4201
   51DOPE  C313 6561   1.421   6.629   4.738 -0.2564 -0.0342  0.0210
   51DOPE  H13X 6562   1.532   6.626   4.739 -0.2518 -1.7769 -1.1643
   51DOPE  H13Y 6563   1.390   6.735   4.730  0.6262  0.4579  2.3815
   51DOPE  C314 6564   1.374   6.565   4.870 -0.1442 -0.0471 -0.2500
   51DOPE  H14X 6565   1.427   6.469   4.885  2.9639  0.7968 -4.3410
   51DOPE  H14Y 6566   1.263   6.559   4.863 -0.1159 -0.6107 -0.2436
   51DOPE  C315 6567   1.410   6.663   4.984  0.4468 -0.1252 -0.4574
   51DOPE  H15X 6568   1.343   6.645   5.070  0.5572  2.1176  0.1815
   51DOPE  H15Y 6569   1.373   6.762   4.949  1.8085 -0.0817 -1.8920
   51DOPE  C316 6570   1.563   6.664   5.006 -0.0840  0.3788  0.0771
   51DOPE  H16X 6571   1.609   6.716   4.919 -0.7333  1.7552  0.5404
   51DOPE  H16Y 6572   1.604   6.560   5.011 -1.6580 -0.2032  2.1779
   51DOPE  C317 6573   1.604   6.742   5.127 -0.3025  0.8940  0.5856
   51DOPE  H17X 6574   1.711   6.765   5.107 -0.4501  0.1293 -1.3687
   51DOPE  H17Y 6575   1.552   6.840   5.120 -2.9250 -0.5075 -2.5119
   51DOPE  C318 6576   1.598   6.662   5.255 -0.1828 -0.2875  0.1014
   51DOPE  H18X 6577   1.606   6.738   5.336  3.1722  1.1244 -1.3530
   51DOPE  H18Y 6578   1.505   6.602   5.258  0.3893 -1.2284 -0.7354
   51DOPE  H18Z 6579   1.687   6.596   5.263  1.6260  1.7510 -1.7524
   52DOPE     N 6580   0.573   5.091   2.821 -0.0442 -0.5534  0.6771
   52DOPE   HN1 6581   0.519   5.009   2.855 -0.2896  0.2305  2.2887
   52DOPE   HN2 6582   0.549   5.132   2.728  0.9828  1.2098  1.1461
   52DOPE   HN3 6583   0.674   5.068   2.820  0.7554  2.4569 -0.1883
   52DOPE   C12 6584   0.565   5.181   2.941 -0.8377  0.7101  0.0727
   52DOPE  H12A 6585   0.458   5.170   2.968 -0.8865  1.3947  0.1707
   52DOPE  H12B 6586   0.586   5.287   2.913 -2.5214  1.1338  0.2883
   52DOPE   C11 6587   0.653   5.117   3.045 -0.0852 -0.0705 -0.2164
   52DOPE  H11A 6588   0.633   5.159   3.146 -0.9194 -1.5592  0.2755
   52DOPE  H11B 6589   0.757   5.126   3.006  0.6949 -1.1820  1.4487
   52DOPE     P 6590   0.719   4.891   3.130 -0.0676  0.0698  0.3110
   52DOPE   O13 6591   0.857   4.943   3.113  0.3056 -0.1208 -0.3903
   52DOPE   O14 6592   0.696   4.751   3.094  0.6861 -0.3115 -0.2497
   52DOPE   O11 6593   0.667   4.906   3.282 -0.3157  0.0435 -0.1971
   52DOPE   O12 6594   0.617   4.980   3.052 -0.2382  0.2766 -0.2899
   52DOPE    C1 6595   0.535   4.874   3.319 -0.4468 -0.2681  0.0465
   52DOPE    HA 6596   0.493   4.797   3.251 -0.2679 -1.3613  1.1403
   52DOPE    HB 6597   0.472   4.965   3.320 -0.1604 -0.0448  2.0386
   52DOPE    C2 6598   0.517   4.794   3.454  0.6263  0.1538  0.1533
   52DOPE    HS 6599   0.420   4.741   3.464  0.6754 -0.0788 -0.6027
   52DOPE   O21 6600   0.541   4.879   3.570 -0.2308 -0.1331  0.2855
   52DOPE   C21 6601   0.431   4.957   3.599 -0.0197 -0.4185 -0.3890
   52DOPE   O22 6602   0.338   4.969   3.522  0.5137 -0.3020  0.1588
   52DOPE   C22 6603   0.439   5.013   3.739 -0.1019  0.0928 -0.4585
   52DOPE   H2R 6604   0.541   5.055   3.757 -0.0267 -1.1531  2.7885
   52DOPE   H2S 6605   0.423   4.924   3.805 -1.5039 -0.2423 -1.2197
   52DOPE    C3 6606   0.621   4.677   3.457 -0.2912 -0.1707 -0.4648
   52DOPE    HX 6607   0.717   4.732   3.466  0.4084 -1.2230 -1.2188
   52DOPE    HY 6608   0.618   4.617   3.364  3.6729 -0.4626 -0.5962
   52DOPE   O31 6609   0.597   4.584   3.572  0.1625 -0.3611 -0.9198
   52DOPE   C31 6610   0.666   4.611   3.684 -0.5538  0.1931  0.7693
   52DOPE   O32 6611   0.755   4.694   3.696 -0.3270 -0.1908 -0.3883
   52DOPE   C32 6612   0.625   4.512   3.792 -0.1836  0.6355  0.0308
   52DOPE   H2X 6613   0.515   4.496   3.784  0.0362 -0.8590 -0.3377
   52DOPE   H2Y 6614   0.678   4.418   3.766 -0.4876  0.7775 -1.1727
   52DOPE   C23 6615   0.332   5.123   3.753  0.0998 -0.2086 -0.1430
   52DOPE   H3R 6616   0.344   5.187   3.663 -1.7593  1.8011  0.9321
   52DOPE   H3S 6617   0.354   5.190   3.839  0.4005  1.6375 -1.5930
   52DOPE   C24 6618   0.187   5.072   3.773  0.3532 -0.7599  0.0676
   52DOPE   H4R 6619   0.204   4.989   3.845  0.0877 -1.8118 -1.0403
   52DOPE   H4S 6620   0.160   5.035   3.672 -0.1238 -1.6941  0.5268
   52DOPE   C25 6621   0.091   5.185   3.822  0.0749  0.1127 -0.7952
   52DOPE   H5R 6622   0.081   5.263   3.744 -3.3479  0.1574 -0.4517
   52DOPE   H5S 6623   0.137   5.225   3.916  1.4277 -2.6401 -0.1727
   52DOPE   C26 6624  -0.049   5.136   3.844 -0.2779 -0.0056  0.0740
   52DOPE   H6R 6625  -0.031   5.042   3.901  1.8084  2.1105  3.2682
   52DOPE   H6S 6626  -0.106   5.099   3.757 -0.0884 -1.9713  0.7309
   52DOPE   C27 6627  -0.130   5.229   3.937  0.0751  0.1870 -0.8624
   52DOPE   H7R 6628  -0.163   5.310   3.869  0.5666 -0.2536 -1.6587
   52DOPE   H7S 6629  -0.066   5.274   4.016 -0.3147  0.1947 -0.5504
   52DOPE   C28 6630  -0.252   5.152   3.996 -0.3623 -0.8073  0.1805
   52DOPE   H8R 6631  -0.319   5.106   3.921  0.0347 -1.0740 -0.0156
   52DOPE   H8S 6632  -0.309   5.239   4.035  1.5161  0.6202 -0.1017
   52DOPE   C29 6633  -0.225   5.078   4.125  0.1286  0.8570  0.4743
   52DOPE   H9R 6634  -0.135   5.109   4.180 -0.6430 -0.3055  2.4974
   52DOPE  C210 6635  -0.304   4.971   4.165  0.3678  0.3033 -0.1028
   52DOPE  H10R 6636  -0.289   4.927   4.264 -1.8096  0.1383  0.2079
   52DOPE  C211 6637  -0.435   4.915   4.106 -0.2377  0.5159 -0.1223
   52DOPE  H11R 6638  -0.438   4.804   4.115 -4.1000  0.2857 -1.8906
   52DOPE  H11S 6639  -0.449   4.940   3.999 -0.7632  0.5837 -0.0427
   52DOPE  C212 6640  -0.556   4.960   4.186 -0.6758  0.2065  0.3619
   52DOPE  H12R 6641  -0.542   4.930   4.292 -1.3311  0.2786  0.4758
   52DOPE  H12S 6642  -0.639   4.912   4.130  0.0023  2.4644 -2.8835
   52DOPE  C213 6643  -0.580   5.112   4.182 -0.3602 -0.1741 -0.4978
   52DOPE  H13R 6644  -0.595   5.133   4.074  1.2636  0.5384 -0.6203
   52DOPE  H13S 6645  -0.491   5.164   4.223 -0.3032 -0.1651 -0.6308
   52DOPE  C214 6646  -0.700   5.145   4.263 -0.2241  0.2329 -0.1215
   52DOPE  H14R 6647  -0.780   5.074   4.234  1.3627 -1.2301 -1.0369
   52DOPE  H14S 6648  -0.730   5.251   4.247  3.3201  1.9801  2.9803
   52DOPE  C215 6649  -0.696   5.134   4.422 -0.0987  0.3265  0.4314
   52DOPE  H15R 6650  -0.627   5.205   4.472  0.4585  0.7902 -0.9541
   52DOPE  H15S 6651  -0.651   5.035   4.445 -0.2023 -0.1168 -1.2057
   52DOPE  C216 6652  -0.837   5.151   4.474  0.4868  0.1184  0.2971
   52DOPE  H16R 6653  -0.906   5.069   4.444  0.6501  0.2147 -0.3543
   52DOPE  H16S 6654  -0.888   5.242   4.437  0.7361  0.4422  0.7311
   52DOPE  C217 6655  -0.837   5.155   4.623  0.3386  0.6735 -0.9761
   52DOPE  H17R 6656  -0.780   5.235   4.675 -1.0726  0.6656  0.6737
   52DOPE  H17S 6657  -0.786   5.061   4.653 -0.8790  0.2311 -0.2147
   52DOPE  C218 6658  -0.985   5.152   4.687 -0.1852 -0.0590 -0.1427
   52DOPE  H18R 6659  -0.969   5.174   4.795 -1.3359  0.7655 -0.1174
   52DOPE  H18S 6660  -1.059   5.220   4.639 -1.7058 -1.3738  0.2200
   52DOPE  H18T 6661  -1.028   5.049   4.688  0.5442 -0.3846  1.2335
   52DOPE   C33 6662   0.668   4.557   3.933 -0.5312  0.7567  0.0462
   52DOPE   H3X 6663   0.775   4.586   3.940 -0.9563  2.3765  0.0853
   52DOPE   H3Y 6664   0.645   4.470   3.998  1.3543  0.7693  0.7882
   52DOPE   C34 6665   0.600   4.684   3.981 -0.2124  0.3280  0.3739
   52DOPE   H4X 6666   0.625   4.720   4.082  0.4076  0.8869  0.0279
   52DOPE   H4Y 6667   0.649   4.766   3.925  1.6641  1.3845  3.3515
   52DOPE   C35 6668   0.446   4.688   3.972 -0.3561 -0.2253  0.4214
   52DOPE   H5X 6669   0.410   4.590   4.009  0.1734 -0.4834  0.2614
   52DOPE   H5Y 6670   0.405   4.696   3.869  1.1665 -3.0139 -0.5222
   52DOPE   C36 6671   0.390   4.795   4.065 -0.4642  0.2991  0.4892
   52DOPE   H6X 6672   0.412   4.899   4.031  0.0004 -0.2378 -0.9288
   52DOPE   H6Y 6673   0.433   4.772   4.165 -0.7157 -1.5285  0.2135
   52DOPE   C37 6674   0.241   4.777   4.074  1.0503  0.0784  1.1751
   52DOPE   H7X 6675   0.182   4.813   3.988 -0.0916 -1.4575  1.2831
   52DOPE   H7Y 6676   0.228   4.668   4.094 -0.6236 -0.1215 -0.7201
   52DOPE   C38 6677   0.179   4.841   4.201 -0.4814 -0.2647 -0.1028
   52DOPE   H8X 6678   0.226   4.808   4.297  1.8225  1.0132 -0.7135
   52DOPE   H8Y 6679   0.073   4.809   4.207 -0.5253 -0.6498 -2.1647
   52DOPE   C39 6680   0.177   4.987   4.179  0.1873 -0.3185 -0.6314
   52DOPE   H9X 6681   0.116   5.023   4.095  0.5643 -0.3677 -0.9281
   52DOPE  C310 6682   0.229   5.078   4.263 -0.1606 -0.0629 -0.5965
   52DOPE  H10X 6683   0.220   5.183   4.230  1.6929  0.5127  0.5699
   52DOPE  C311 6684   0.311   5.042   4.385 -0.3732  0.1459 -0.0915
   52DOPE  H11X 6685   0.351   4.938   4.388 -1.6784 -0.5096 -2.6253
   52DOPE  H11Y 6686   0.395   5.113   4.392 -0.5034  0.3987 -0.9507
   52DOPE  C312 6687   0.228   5.069   4.516 -0.0896 -0.4607 -0.2476
   52DOPE  H12X 6688   0.134   5.011   4.515  0.0008 -0.6809 -3.1322
   52DOPE  H12Y 6689   0.181   5.170   4.516  0.4459 -0.1793  1.2443
   52DOPE  C313 6690   0.309   5.031   4.638 -0.3970  0.2377 -0.1879
   52DOPE  H13X 6691   0.297   4.922   4.659  1.5560 -0.3457 -1.7124
   52DOPE  H13Y 6692   0.416   5.054   4.622 -0.8513  1.1375 -2.2441
   52DOPE  C314 6693   0.255   5.101   4.768 -0.4282 -0.1150  0.1298
   52DOPE  H14X 6694   0.146   5.111   4.748 -0.5537 -2.2860 -0.5195
   52DOPE  H14Y 6695   0.296   5.203   4.778  0.2875 -0.4776  0.9379
   52DOPE  C315 6696   0.277   5.018   4.891  0.3736 -0.1725 -0.4675
   52DOPE  H15X 6697   0.380   4.980   4.910  0.1859 -0.5173 -0.1334
   52DOPE  H15Y 6698   0.223   4.923   4.876  0.2929 -0.1963 -0.0221
   52DOPE  C316 6699   0.231   5.075   5.026  1.1433 -0.0359 -0.0057
   52DOPE  H16X 6700   0.283   5.170   5.052 -0.1129  0.3042  1.4028
   52DOPE  H16Y 6701   0.249   5.000   5.106  1.1772  1.3484  1.3356
   52DOPE  C317 6702   0.076   5.105   5.034  0.0211 -1.0180  0.6751
   52DOPE  H17X 6703   0.056   5.194   4.970  0.9968  0.0078  1.7297
   52DOPE  H17Y 6704   0.027   5.009   5.009 -1.5846 -0.2874  0.9018
   52DOPE  C318 6705   0.030   5.138   5.175 -0.4276  0.2429  0.8336
   52DOPE  H18X 6706  -0.077   5.163   5.194 -0.4683  0.3568  0.4594
   52DOPE  H18Y 6707   0.060   5.061   5.250 -1.1948  0.0293  0.9306
   52DOPE  H18Z 6708   0.086   5.228   5.206 -0.0452  0.1053  0.5502
   53DOPE     N 6709   5.343   7.578   2.694  0.6336 -0.1120 -0.1596
   53DOPE   HN1 6710   5.264   7.563   2.629 -0.5851 -1.1052  1.4653
   53DOPE   HN2 6711   5.310   7.621   2.783  0.9973  2.1032 -1.0432
   53DOPE   HN3 6712   5.417   7.639   2.655  0.5879 -0.4478 -0.7844
   53DOPE   C12 6713   5.402   7.444   2.733 -0.0540  0.0190  0.0371
   53DOPE  H12A 6714   5.491   7.426   2.669 -0.2401  0.5631 -0.3858
   53DOPE  H12B 6715   5.319   7.372   2.719 -0.2339 -0.2375  2.0821
   53DOPE   C11 6716   5.452   7.442   2.878 -0.0646 -0.9512  0.0640
   53DOPE  H11A 6717   5.525   7.524   2.895  0.8342 -1.7897  0.3038
   53DOPE  H11B 6718   5.513   7.351   2.894 -0.0132 -0.7805  0.8675
   53DOPE     P 6719   5.252   7.350   3.026 -0.0800  0.3659  0.2085
   53DOPE   O13 6720   5.182   7.283   2.909 -0.0782  0.0117  0.2626
   53DOPE   O14 6721   5.164   7.407   3.132 -0.7383 -0.2995  0.0189
   53DOPE   O11 6722   5.342   7.243   3.097 -0.1296 -0.2721  0.0956
   53DOPE   O12 6723   5.350   7.462   2.973  0.1519 -0.1037  0.4865
   53DOPE    C1 6724   5.406   7.256   3.219  0.2206 -0.0125  0.0340
   53DOPE    HA 6725   5.425   7.362   3.246  0.7305  0.1369 -0.8725
   53DOPE    HB 6726   5.501   7.199   3.221  0.3772  0.1253 -2.0479
   53DOPE    C2 6727   5.311   7.202   3.327  0.0673 -0.1984 -0.0027
   53DOPE    HS 6728   5.237   7.137   3.274 -0.9556 -0.1013  1.2501
   53DOPE   O21 6729   5.245   7.316   3.382 -0.0645 -0.3689  0.2420
   53DOPE   C21 6730   5.118   7.295   3.428 -0.1802  0.1100 -1.2272
   53DOPE   O22 6731   5.068   7.184   3.434 -0.3267 -0.1049 -0.2936
   53DOPE   C22 6732   5.056   7.430   3.476 -0.0050  0.2291 -0.5081
   53DOPE   H2R 6733   5.112   7.510   3.424 -0.1227 -0.3406 -1.5446
   53DOPE   H2S 6734   5.093   7.439   3.580 -0.5747 -2.3608 -0.0160
   53DOPE    C3 6735   5.381   7.124   3.439 -0.0753  0.4257 -0.4092
   53DOPE    HX 6736   5.425   7.031   3.398  2.9342  1.9671 -0.9477
   53DOPE    HY 6737   5.303   7.093   3.512  1.8793 -1.6196  0.9426
   53DOPE   O31 6738   5.492   7.191   3.497  0.1858  0.2775  0.5388
   53DOPE   C31 6739   5.467   7.249   3.606 -0.0762 -0.1896  0.3058
   53DOPE   O32 6740   5.358   7.250   3.665  1.0627 -0.4259  0.3473
   53DOPE   C32 6741   5.588   7.339   3.642 -0.0462  0.2735  0.3716
   53DOPE   H2X 6742   5.674   7.285   3.597 -2.2135 -0.8506 -2.8234
   53DOPE   H2Y 6743   5.572   7.437   3.591  1.8633  1.1433  1.3280
   53DOPE   C23 6744   4.899   7.443   3.482  0.0688  0.4850 -0.1959
   53DOPE   H3R 6745   4.859   7.353   3.533  0.4597  0.7181  0.5313
   53DOPE   H3S 6746   4.859   7.445   3.378  0.6037 -0.8051 -0.4497
   53DOPE   C24 6747   4.832   7.564   3.554 -1.0034 -0.0137 -0.3546
   53DOPE   H4R 6748   4.873   7.574   3.657 -0.4242 -1.5628 -0.4128
   53DOPE   H4S 6749   4.721   7.559   3.554 -0.9503 -1.7177 -0.8916
   53DOPE   C25 6750   4.859   7.706   3.488  0.5446 -0.4992  0.7139
   53DOPE   H5R 6751   4.807   7.719   3.391  2.7898  2.1147 -0.2732
   53DOPE   H5S 6752   4.968   7.707   3.466  0.2589 -2.2103 -1.0501
   53DOPE   C26 6753   4.828   7.832   3.575  0.3288 -0.5411  0.6540
   53DOPE   H6R 6754   4.895   7.824   3.664  1.4673 -0.7069 -0.1958
   53DOPE   H6S 6755   4.724   7.837   3.612 -0.9187  0.2701 -2.6351
   53DOPE   C27 6756   4.852   7.959   3.503 -0.4173  0.3579  0.3081
   53DOPE   H7R 6757   4.785   8.033   3.550  0.2749  0.9585  0.3748
   53DOPE   H7S 6758   4.831   7.948   3.394 -1.5805 -1.2403  0.6604
   53DOPE   C28 6759   5.005   7.989   3.509  0.4436  0.2252  0.3454
   53DOPE   H8R 6760   5.068   7.908   3.466  1.1894  0.8781  0.1678
   53DOPE   H8S 6761   5.028   7.998   3.617 -0.0576  1.1411  0.3902
   53DOPE   C29 6762   5.043   8.124   3.447  0.0741  0.2188  0.0255
   53DOPE   H9R 6763   5.057   8.125   3.338  0.4624 -0.3845  0.0658
   53DOPE  C210 6764   5.060   8.243   3.515 -1.2492  0.1300 -0.0561
   53DOPE  H10R 6765   5.061   8.340   3.464 -1.2963  0.6368  0.8890
   53DOPE  C211 6766   5.037   8.262   3.665 -0.3140 -0.3506  0.5056
   53DOPE  H11R 6767   5.106   8.336   3.711  1.7405 -1.2333 -0.9961
   53DOPE  H11S 6768   5.054   8.161   3.709 -0.3688 -1.1429 -1.2291
   53DOPE  C212 6769   4.887   8.293   3.695 -0.6704  0.4427  0.1679
   53DOPE  H12R 6770   4.834   8.207   3.649  0.3210  0.1660 -0.4858
   53DOPE  H12S 6771   4.866   8.391   3.647  0.3710  1.3869  1.5646
   53DOPE  C213 6772   4.852   8.308   3.838  0.8061  0.2425  0.6546
   53DOPE  H13R 6773   4.849   8.216   3.900  1.4574 -1.0557 -1.1799
   53DOPE  H13S 6774   4.746   8.339   3.831  0.7650 -0.0636 -0.1528
   53DOPE  C214 6775   4.941   8.416   3.908 -0.2397 -0.1444  0.2919
   53DOPE  H14R 6776   4.946   8.515   3.858  2.3824  0.3715  1.3840
   53DOPE  H14S 6777   5.044   8.385   3.938  0.6045  2.5701  0.4474
   53DOPE  C215 6778   4.869   8.446   4.047  0.2115 -0.1474 -0.2468
   53DOPE  H15R 6779   4.937   8.503   4.114  0.1325  1.6466 -1.6009
   53DOPE  H15S 6780   4.848   8.348   4.095 -0.7611 -0.0346 -0.4265
   53DOPE  C216 6781   4.742   8.522   4.034 -0.0963 -0.3261 -0.0750
   53DOPE  H16R 6782   4.655   8.471   3.986 -0.5846 -0.9295  1.4114
   53DOPE  H16S 6783   4.759   8.608   3.965  0.2490 -1.8100 -1.9395
   53DOPE  C217 6784   4.705   8.580   4.164  0.5262 -0.7212 -0.1230
   53DOPE  H17R 6785   4.800   8.624   4.200  0.4085 -0.0374 -0.6281
   53DOPE  H17S 6786   4.677   8.506   4.243  0.9954 -0.4165  0.3373
   53DOPE  C218 6787   4.596   8.689   4.149 -0.0685 -0.7638  0.2256
   53DOPE  H18R 6788   4.499   8.649   4.113 -0.5086 -0.1250  0.6995
   53DOPE  H18S 6789   4.623   8.775   4.083 -1.0441 -0.0909  0.6978
   53DOPE  H18T 6790   4.572   8.727   4.250 -1.8439 -0.7872 -0.1674
   53DOPE   C33 6791   5.614   7.354   3.790  0.5208  0.0150 -0.2261
   53DOPE   H3X 6792   5.542   7.425   3.835  1.7548  1.0672  0.1656
   53DOPE   H3Y 6793   5.718   7.395   3.793 -0.0646  1.5546  0.1953
   53DOPE   C34 6794   5.612   7.219   3.861 -0.2213  0.9571 -0.2195
   53DOPE   H4X 6795   5.513   7.174   3.882  0.5010 -1.3036 -1.3114
   53DOPE   H4Y 6796   5.673   7.147   3.802  0.2836  0.4248  0.9216
   53DOPE   C35 6797   5.694   7.236   3.990  0.2321 -0.5060  0.3636
   53DOPE   H5X 6798   5.637   7.303   4.059  2.0707 -0.6305  2.0904
   53DOPE   H5Y 6799   5.795   7.282   3.984 -0.0864 -0.0069 -2.3562
   53DOPE   C36 6800   5.717   7.096   4.057  0.7811 -0.8107  0.8354
   53DOPE   H6X 6801   5.815   7.050   4.037  1.2010  0.5254 -0.3163
   53DOPE   H6Y 6802   5.643   7.027   4.011  1.5702  0.3171 -2.3245
   53DOPE   C37 6803   5.707   7.104   4.209 -0.8742 -0.4530 -0.1756
   53DOPE   H7X 6804   5.766   7.191   4.244 -0.5843 -0.9204  0.5330
   53DOPE   H7Y 6805   5.600   7.120   4.232 -0.6640  0.2001  0.3833
   53DOPE   C38 6806   5.755   6.987   4.298 -1.0194 -0.2733 -0.0685
   53DOPE   H8X 6807   5.699   6.891   4.288 -2.9704  0.4263  2.8530
   53DOPE   H8Y 6808   5.740   7.020   4.403 -1.8693  0.8749 -0.5326
   53DOPE   C39 6809   5.905   6.962   4.289  0.2265  0.3084  0.1752
   53DOPE   H9X 6810   5.937   6.902   4.202 -1.4220 -2.2790  1.2310
   53DOPE  C310 6811   5.999   7.003   4.377 -0.4086 -0.8354 -0.6671
   53DOPE  H10X 6812   6.103   6.972   4.358 -0.6483 -1.2756 -1.3293
   53DOPE  C311 6813   5.973   7.081   4.504  0.1197  0.1527 -0.2125
   53DOPE  H11X 6814   5.894   7.160   4.504 -0.3530 -0.1433  3.3057
   53DOPE  H11Y 6815   5.933   7.013   4.582  0.2536  1.5014  1.0836
   53DOPE  C312 6816   6.105   7.134   4.563 -0.7088 -0.0330  0.5091
   53DOPE  H12X 6817   6.163   7.180   4.480 -0.0599 -1.5662  0.0811
   53DOPE  H12Y 6818   6.160   7.048   4.606  0.8830  1.8907  2.5595
   53DOPE  C313 6819   6.093   7.235   4.677 -0.1800  0.2540  0.1080
   53DOPE  H13X 6820   6.188   7.287   4.705 -0.4738  1.8209 -1.6604
   53DOPE  H13Y 6821   6.023   7.318   4.655  0.0796  0.4201 -0.1014
   53DOPE  C314 6822   6.061   7.169   4.815  0.3319 -0.6216  0.7714
   53DOPE  H14X 6823   6.127   7.080   4.826  1.5287 -0.1178 -1.8077
   53DOPE  H14Y 6824   5.957   7.131   4.811 -0.4455  1.4479  0.3211
   53DOPE  C315 6825   6.063   7.260   4.934  0.3497  0.0840  0.0929
   53DOPE  H15X 6826   6.019   7.196   5.013 -1.7740 -0.0060 -1.0914
   53DOPE  H15Y 6827   6.003   7.353   4.926 -0.8713 -0.5525  1.4201
   53DOPE  C316 6828   6.202   7.305   4.986  0.3397 -0.0031 -0.3593
   53DOPE  H16X 6829   6.258   7.354   4.904 -0.0953 -1.2255 -1.4183
   53DOPE  H16Y 6830   6.264   7.220   5.020  1.9090  0.4551 -1.9422
   53DOPE  C317 6831   6.190   7.399   5.104  0.1986 -0.4612  0.7002
   53DOPE  H17X 6832   6.133   7.345   5.183 -0.0438  0.6325  1.2800
   53DOPE  H17Y 6833   6.297   7.400   5.132  0.0505  1.0559  1.2592
   53DOPE  C318 6834   6.138   7.542   5.085  0.1506 -0.8593  0.0459
   53DOPE  H18X 6835   6.044   7.542   5.026 -0.8154 -0.1343  1.5267
   53DOPE  H18Y 6836   6.114   7.589   5.183 -0.9760 -1.7166  0.2124
   53DOPE  H18Z 6837   6.212   7.605   5.032 -1.0482  1.5709  1.0782
   54DOPE     N 6838   0.556   3.673   2.947 -0.1730  0.4695  0.2859
   54DOPE   HN1 6839   0.586   3.764   2.987  0.7114 -0.0709  0.8851
   54DOPE   HN2 6840   0.637   3.622   2.907 -0.4394  0.2579  0.0083
   54DOPE   HN3 6841   0.490   3.679   2.866 -1.5797 -0.3979  1.3092
   54DOPE   C12 6842   0.483   3.588   3.043  0.1569  0.3102  0.2584
   54DOPE  H12A 6843   0.550   3.568   3.129 -1.4199 -0.5381  1.3579
   54DOPE  H12B 6844   0.466   3.490   2.993 -0.8532 -0.4660  2.0357
   54DOPE   C11 6845   0.354   3.654   3.095  0.1125  0.0900 -0.1033
   54DOPE  H11A 6846   0.391   3.725   3.172  0.5577  0.4678 -0.6580
   54DOPE  H11B 6847   0.287   3.581   3.145 -0.5196  1.6493  1.4361
   54DOPE     P 6848   0.154   3.665   2.919  0.4616 -0.2114  0.3762
   54DOPE   O13 6849   0.188   3.547   2.845 -0.6517  0.3602 -0.3518
   54DOPE   O14 6850   0.103   3.782   2.842 -0.3139  0.5848 -0.1865
   54DOPE   O11 6851   0.061   3.620   3.038 -0.5292  0.0179  0.4832
   54DOPE   O12 6852   0.286   3.719   2.994  0.0915 -0.4182 -0.1272
   54DOPE    C1 6853  -0.002   3.741   3.099  0.5550 -1.0542 -0.4641
   54DOPE    HA 6854  -0.111   3.743   3.079  0.2007  0.0394  1.3644
   54DOPE    HB 6855   0.046   3.838   3.076  0.6748  0.0278  3.5625
   54DOPE    C2 6856  -0.004   3.734   3.259  0.3278  0.2457  0.1623
   54DOPE    HS 6857  -0.099   3.786   3.282  0.8741  1.1200  0.5004
   54DOPE   O21 6858   0.116   3.797   3.309  0.1305  0.4675 -0.0689
   54DOPE   C21 6859   0.098   3.875   3.416  0.6098  0.3131  0.0696
   54DOPE   O22 6860  -0.015   3.900   3.465 -0.8586  0.4596  0.2398
   54DOPE   C22 6861   0.231   3.935   3.449  0.2299 -0.4992 -0.5302
   54DOPE   H2R 6862   0.224   4.046   3.441 -1.1060 -0.3246  1.8652
   54DOPE   H2S 6863   0.308   3.895   3.381  0.2420 -1.4926  0.0518
   54DOPE    C3 6864  -0.010   3.580   3.311 -0.7693  0.2330 -0.1544
   54DOPE    HX 6865   0.095   3.555   3.282 -0.3891  2.4777 -0.9583
   54DOPE    HY 6866  -0.079   3.518   3.251  2.8180 -0.0248 -4.5814
   54DOPE   O31 6867  -0.026   3.574   3.459  0.4652  0.3457  0.5704
   54DOPE   C31 6868  -0.158   3.591   3.493  0.2340  0.3573 -0.4075
   54DOPE   O32 6869  -0.250   3.626   3.422  0.5643  0.1069 -0.0783
   54DOPE   C32 6870  -0.174   3.508   3.627  0.8961 -0.6920  0.1525
   54DOPE   H2X 6871  -0.141   3.402   3.615  1.2280 -0.6831  0.9393
   54DOPE   H2Y 6872  -0.106   3.557   3.700 -2.1646  0.3890  2.4687
   54DOPE   C23 6873   0.263   3.890   3.592 -1.3239  0.4635 -0.3894
   54DOPE   H3R 6874   0.298   3.786   3.605  0.4493  0.6809 -2.7511
   54DOPE   H3S 6875   0.170   3.899   3.654 -0.1687 -0.8756  1.6464
   54DOPE   C24 6876   0.374   3.973   3.667  0.5387 -0.2852  0.2736
   54DOPE   H4R 6877   0.360   3.951   3.775  1.6974 -0.5869  0.3745
   54DOPE   H4S 6878   0.361   4.081   3.644  0.2864 -0.3104  0.2971
   54DOPE   C25 6879   0.524   3.930   3.642 -0.2770  0.4253 -0.2198
   54DOPE   H5R 6880   0.553   3.965   3.540  0.7396 -1.5460 -0.6452
   54DOPE   H5S 6881   0.528   3.819   3.648  1.5889  0.5398  1.4818
   54DOPE   C26 6882   0.630   4.001   3.727  0.6316  0.0181  0.4067
   54DOPE   H6R 6883   0.617   4.111   3.733 -0.6571 -0.0440 -0.6583
   54DOPE   H6S 6884   0.728   3.967   3.687  0.3564  0.4208 -0.6437
   54DOPE   C27 6885   0.626   3.947   3.873  0.0188  0.4918 -0.0980
   54DOPE   H7R 6886   0.643   3.838   3.881  1.8634  0.8292  1.1203
   54DOPE   H7S 6887   0.518   3.946   3.900  0.1019  1.7819  0.3805
   54DOPE   C28 6888   0.695   4.038   3.978  0.0400 -0.5337 -0.1970
   54DOPE   H8R 6889   0.657   4.020   4.080 -0.1902 -0.6636 -0.3048
   54DOPE   H8S 6890   0.662   4.140   3.949  1.7958  0.8871  2.4344
   54DOPE   C29 6891   0.842   4.020   3.980  0.9921 -0.5289 -0.0506
   54DOPE   H9R 6892   0.894   4.109   3.942  1.9627 -1.3466 -0.6834
   54DOPE  C210 6893   0.911   3.913   4.023 -0.0190 -0.3140  0.1760
   54DOPE  H10R 6894   1.021   3.917   4.023 -0.0559  2.6847  0.0628
   54DOPE  C211 6895   0.845   3.790   4.086  0.4980  0.2615 -0.7881
   54DOPE  H11R 6896   0.813   3.715   4.010  1.8183 -0.7471 -0.3792
   54DOPE  H11S 6897   0.753   3.823   4.140  2.0916  0.7840  1.7777
   54DOPE  C212 6898   0.930   3.712   4.190  0.7213  0.2207  0.2924
   54DOPE  H12R 6899   0.871   3.620   4.206  1.6581 -0.9024 -2.1779
   54DOPE  H12S 6900   0.957   3.762   4.286  0.4511  0.3059  0.3231
   54DOPE  C213 6901   1.065   3.658   4.129 -0.6817 -0.4229 -0.0922
   54DOPE  H13R 6902   1.130   3.748   4.123 -1.6934  0.3012 -0.4334
   54DOPE  H13S 6903   1.052   3.623   4.024 -0.3799 -0.7094 -0.0394
   54DOPE  C214 6904   1.122   3.552   4.221 -0.0042 -0.0234 -0.4437
   54DOPE  H14R 6905   1.056   3.463   4.232  1.0546 -1.0051 -1.7053
   54DOPE  H14S 6906   1.132   3.602   4.320 -1.4147 -1.1107  0.2848
   54DOPE  C215 6907   1.268   3.524   4.175  0.0120  0.2234 -0.2942
   54DOPE  H15R 6908   1.337   3.611   4.176  1.8812 -1.1740  0.0737
   54DOPE  H15S 6909   1.263   3.487   4.070  1.2255 -0.0993 -0.2643
   54DOPE  C216 6910   1.329   3.412   4.265 -0.1632 -0.6436 -0.2367
   54DOPE  H16R 6911   1.270   3.318   4.266 -0.1508 -0.7228  3.0055
   54DOPE  H16S 6912   1.327   3.454   4.368 -0.8079 -1.3934  0.0699
   54DOPE  C217 6913   1.475   3.376   4.227  0.3530  0.2316 -0.3309
   54DOPE  H17R 6914   1.515   3.306   4.304  0.7517  1.4592  0.6060
   54DOPE  H17S 6915   1.536   3.469   4.233 -0.4718  0.7334  0.3813
   54DOPE  C218 6916   1.496   3.304   4.097 -0.5881  0.2837 -0.7051
   54DOPE  H18R 6917   1.482   3.377   4.014  0.1458  1.9117  0.5371
   54DOPE  H18S 6918   1.418   3.226   4.085 -0.5854  0.3779 -1.4285
   54DOPE  H18T 6919   1.601   3.270   4.094 -0.4837  0.4827  0.3952
   54DOPE   C33 6920  -0.318   3.522   3.678 -0.3311  0.6713 -0.1706
   54DOPE   H3X 6921  -0.383   3.463   3.610  0.1486  1.7043 -1.5748
   54DOPE   H3Y 6922  -0.355   3.625   3.663  0.9810  1.1624 -0.1896
   54DOPE   C34 6923  -0.341   3.466   3.819 -0.0353  0.0773 -0.0840
   54DOPE   H4X 6924  -0.448   3.451   3.845  0.3404 -0.9867  0.9288
   54DOPE   H4Y 6925  -0.305   3.362   3.828 -2.7858 -0.8721  0.9972
   54DOPE   C35 6926  -0.289   3.545   3.935 -0.3050 -0.0292 -0.0939
   54DOPE   H5X 6927  -0.370   3.612   3.972  0.0250  1.0606 -1.2612
   54DOPE   H5Y 6928  -0.214   3.614   3.891  0.5417 -1.0615 -0.3149
   54DOPE   C36 6929  -0.239   3.469   4.062 -0.3913  0.0364 -0.2148
   54DOPE   H6X 6930  -0.182   3.544   4.120  1.0229 -0.0646 -1.4059
   54DOPE   H6Y 6931  -0.180   3.380   4.031 -1.1353 -1.8963  3.3850
   54DOPE   C37 6932  -0.355   3.420   4.157  0.2098  0.0900  0.1291
   54DOPE   H7X 6933  -0.375   3.506   4.224  2.2546  0.3733  0.4478
   54DOPE   H7Y 6934  -0.441   3.395   4.091  0.7081  0.5746 -0.7233
   54DOPE   C38 6935  -0.308   3.299   4.234 -0.2213  0.0080 -0.2649
   54DOPE   H8X 6936  -0.232   3.334   4.306 -0.5637 -0.4579  0.3364
   54DOPE   H8Y 6937  -0.253   3.226   4.171  0.8376 -0.3819  1.0717
   54DOPE   C39 6938  -0.408   3.223   4.319 -0.1470 -0.0538  0.3542
   54DOPE   H9X 6939  -0.507   3.232   4.273 -0.6709 -2.7970  0.7787
   54DOPE  C310 6940  -0.390   3.161   4.436  0.9450  0.4158  1.0933
   54DOPE  H10X 6941  -0.482   3.129   4.487 -0.1726  0.3945 -0.8044
   54DOPE  C311 6942  -0.266   3.140   4.511 -0.6749 -0.3933 -0.8009
   54DOPE  H11X 6943  -0.230   3.035   4.506  0.7986  0.0910 -0.7164
   54DOPE  H11Y 6944  -0.185   3.201   4.467  0.8416 -1.0364  0.9782
   54DOPE  C312 6945  -0.277   3.178   4.658 -0.1386 -0.2417 -0.5782
   54DOPE  H12X 6946  -0.355   3.116   4.707  0.5858  0.7169  1.9897
   54DOPE  H12Y 6947  -0.302   3.286   4.673 -0.1685 -0.0791 -1.7192
   54DOPE  C313 6948  -0.145   3.163   4.749  0.2685 -0.2412  0.0111
   54DOPE  H13X 6949  -0.189   3.165   4.851  1.1825  1.5208  0.3930
   54DOPE  H13Y 6950  -0.111   3.061   4.720 -1.1343 -0.9829  0.8448
   54DOPE  C314 6951  -0.036   3.260   4.711  0.6223 -0.3642  0.0666
   54DOPE  H14X 6952  -0.062   3.367   4.726  2.1929 -0.0693  0.8714
   54DOPE  H14Y 6953  -0.014   3.247   4.602 -0.1969 -1.3995  0.0084
   54DOPE  C315 6954   0.093   3.233   4.790 -0.5522  0.7469  0.0906
   54DOPE  H15X 6955   0.173   3.305   4.761  0.3175 -1.0344 -2.2230
   54DOPE  H15Y 6956   0.129   3.131   4.767 -0.6281  0.7562 -0.0659
   54DOPE  C316 6957   0.081   3.251   4.944 -0.6377  1.3544 -0.5554
   54DOPE  H16X 6958  -0.004   3.195   4.988 -0.4455  0.2283 -1.5879
   54DOPE  H16Y 6959   0.050   3.357   4.959 -1.0535  1.5393 -2.4910
   54DOPE  C317 6960   0.212   3.208   5.023  0.0497  0.1317 -0.3339
   54DOPE  H17X 6961   0.239   3.103   4.999  1.1796  0.5607 -0.9958
   54DOPE  H17Y 6962   0.292   3.265   4.971  0.0184 -0.4363 -1.0249
   54DOPE  C318 6963   0.205   3.237   5.173  0.6712 -0.1144 -0.0569
   54DOPE  H18X 6964   0.110   3.195   5.213  0.4325  2.1072  1.9834
   54DOPE  H18Y 6965   0.294   3.194   5.222  0.1916  0.0973  1.0304
   54DOPE  H18Z 6966   0.195   3.347   5.185  0.5673 -0.4395  4.3191
   55DOPE     N 6967   7.164   6.681   2.444 -0.3199 -0.2981 -0.1072
   55DOPE   HN1 6968   7.118   6.757   2.389  0.3064 -1.5964 -2.5414
   55DOPE   HN2 6969   7.107   6.640   2.520  0.4194 -2.4769 -0.6780
   55DOPE   HN3 6970   7.243   6.741   2.474  0.9823 -0.5593 -2.7336
   55DOPE   C12 6971   7.214   6.579   2.350  0.4011 -0.0633 -0.2135
   55DOPE  H12A 6972   7.255   6.631   2.261  0.9620  0.7865  0.5238
   55DOPE  H12B 6973   7.134   6.506   2.325  1.2790 -1.3543  0.6450
   55DOPE   C11 6974   7.337   6.499   2.410  0.0317  0.0870  0.3417
   55DOPE  H11A 6975   7.370   6.422   2.338  2.1831 -1.1998  2.5538
   55DOPE  H11B 6976   7.304   6.444   2.501 -0.5864  0.7938  0.5551
   55DOPE     P 6977   7.579   6.539   2.520 -0.0258  0.0905  0.4781
   55DOPE   O13 6978   7.682   6.645   2.509  0.3212  0.0321  0.5455
   55DOPE   O14 6979   7.610   6.402   2.467 -0.1336  0.4679  0.2195
   55DOPE   O11 6980   7.534   6.512   2.668 -0.0594 -0.0653  0.2109
   55DOPE   O12 6981   7.449   6.586   2.446  0.1712  0.0283 -0.6303
   55DOPE    C1 6982   7.456   6.609   2.733  0.1356 -0.4125  0.7027
   55DOPE    HA 6983   7.354   6.574   2.762  0.1658  0.8297  2.5571
   55DOPE    HB 6984   7.438   6.700   2.671  2.9187 -1.1339 -1.3595
   55DOPE    C2 6985   7.521   6.649   2.867 -0.0097 -0.2656 -0.4337
   55DOPE    HS 6986   7.616   6.701   2.843 -0.4409  0.9124  0.3099
   55DOPE   O21 6987   7.534   6.526   2.949 -0.0810 -0.3887  0.6959
   55DOPE   C21 6988   7.635   6.528   3.031 -0.3951  0.3815  0.1713
   55DOPE   O22 6989   7.723   6.612   3.031  0.4154  0.0739 -0.1412
   55DOPE   C22 6990   7.636   6.411   3.122 -0.0514  0.6678  0.0774
   55DOPE   H2R 6991   7.713   6.338   3.087 -0.1314 -0.0912  1.4124
   55DOPE   H2S 6992   7.536   6.362   3.122 -0.5204  1.5750 -1.3171
   55DOPE    C3 6993   7.439   6.758   2.946 -0.3534  0.1892 -0.6170
   55DOPE    HX 6994   7.336   6.727   2.918 -0.6895  0.4877  0.2762
   55DOPE    HY 6995   7.442   6.862   2.906  0.5763  0.6184  0.5196
   55DOPE   O31 6996   7.468   6.774   3.090  0.7150 -0.3470  0.1109
   55DOPE   C31 6997   7.390   6.705   3.169  0.0895 -0.4997 -0.1988
   55DOPE   O32 6998   7.317   6.615   3.134 -0.7693 -0.5290  0.2335
   55DOPE   C32 6999   7.401   6.755   3.313  0.2894  0.1730 -0.6737
   55DOPE   H2X 7000   7.504   6.794   3.325 -0.0569  1.1112 -0.6462
   55DOPE   H2Y 7001   7.329   6.839   3.316 -0.4374 -0.4664  0.7162
   55DOPE   C23 7002   7.683   6.454   3.259  0.0505  0.2942 -0.9048
   55DOPE   H3R 7003   7.643   6.552   3.295  0.1568 -0.7925  2.4943
   55DOPE   H3S 7004   7.792   6.475   3.265 -0.1638  1.4444 -0.6229
   55DOPE   C24 7005   7.658   6.372   3.383  1.0796 -0.4012 -0.1361
   55DOPE   H4R 7006   7.666   6.263   3.358  0.7484 -0.1673 -1.3429
   55DOPE   H4S 7007   7.553   6.386   3.415  1.5284 -2.3475  2.5280
   55DOPE   C25 7008   7.731   6.424   3.508  0.0686  0.5138  0.6346
   55DOPE   H5R 7009   7.689   6.370   3.596 -1.9475 -0.7780 -1.0123
   55DOPE   H5S 7010   7.725   6.534   3.519  0.3346  0.4662  1.3137
   55DOPE   C26 7011   7.886   6.388   3.519 -0.2113  0.1448  0.0411
   55DOPE   H6R 7012   7.915   6.424   3.620 -0.5212 -2.9230  1.3142
   55DOPE   H6S 7013   7.943   6.460   3.456  2.0534 -1.6901 -0.1219
   55DOPE   C27 7014   7.933   6.236   3.501  0.3953 -0.5215 -0.2046
   55DOPE   H7R 7015   8.035   6.219   3.539 -0.6263 -2.4762  1.9085
   55DOPE   H7S 7016   7.927   6.213   3.392  2.4457  0.2983 -0.5346
   55DOPE   C28 7017   7.844   6.143   3.572  0.5202  0.3547 -0.4256
   55DOPE   H8R 7018   7.879   6.040   3.547 -1.6394 -0.2602 -1.1223
   55DOPE   H8S 7019   7.744   6.152   3.524  0.0819 -0.5869  0.2767
   55DOPE   C29 7020   7.846   6.148   3.722 -0.6341 -0.2143 -0.0374
   55DOPE   H9R 7021   7.874   6.247   3.759  0.6596 -0.9475  1.0271
   55DOPE  C210 7022   7.794   6.060   3.808  0.2427 -1.0190  0.3160
   55DOPE  H10R 7023   7.780   6.098   3.910  0.3942  1.0564 -0.4020
   55DOPE  C211 7024   7.720   5.931   3.772 -0.1420 -0.4442 -0.4358
   55DOPE  H11R 7025   7.756   5.860   3.849  1.1857 -0.7246 -1.2583
   55DOPE  H11S 7026   7.755   5.896   3.672  1.2336  0.0282 -0.1453
   55DOPE  C212 7027   7.569   5.925   3.782  0.0798  0.4318  0.3881
   55DOPE  H12R 7028   7.539   5.960   3.882  0.5975  1.7722  0.0850
   55DOPE  H12S 7029   7.537   5.819   3.772  0.5931  0.2661  0.4501
   55DOPE  C213 7030   7.506   6.001   3.669  0.5550  0.2802 -1.0041
   55DOPE  H13R 7031   7.554   5.968   3.574 -0.6584 -1.3340 -1.0843
   55DOPE  H13S 7032   7.522   6.110   3.685 -1.2711  0.6166 -1.3042
   55DOPE  C214 7033   7.355   5.983   3.660 -0.3056  0.8283 -0.1394
   55DOPE  H14R 7034   7.308   6.050   3.735  0.3514  1.5441 -0.3536
   55DOPE  H14S 7035   7.327   5.882   3.696  1.9327  0.5214  0.8524
   55DOPE  C215 7036   7.291   6.009   3.523 -0.3981 -0.1154  0.3616
   55DOPE  H15R 7037   7.181   5.996   3.532 -0.4520 -1.4814 -1.7252
   55DOPE  H15S 7038   7.327   5.924   3.461 -0.3873  0.0693  0.1126
   55DOPE  C216 7039   7.327   6.130   3.444 -0.7455 -0.2639 -0.4704
   55DOPE  H16R 7040   7.419   6.114   3.384  1.0870  2.7960  1.2697
   55DOPE  H16S 7041   7.358   6.209   3.516 -1.1814 -2.7744  2.6868
   55DOPE  C217 7042   7.211   6.175   3.354  0.2992 -0.3239  0.1875
   55DOPE  H17R 7043   7.126   6.203   3.420  1.3171 -1.1037  1.9109
   55DOPE  H17S 7044   7.166   6.092   3.295  0.9521  0.0642 -0.8855
   55DOPE  C218 7045   7.242   6.299   3.271 -0.3690  0.4571  0.2590
   55DOPE  H18R 7046   7.272   6.386   3.333  0.7185  1.0713 -1.0891
   55DOPE  H18S 7047   7.159   6.323   3.203  0.1476  0.1875 -0.4779
   55DOPE  H18T 7048   7.330   6.285   3.204 -1.7670  0.9545 -1.7432
   55DOPE   C33 7049   7.355   6.642   3.418  1.1965  0.6489  0.2478
   55DOPE   H3X 7050   7.416   6.549   3.409 -1.4367 -1.3625  1.6047
   55DOPE   H3Y 7051   7.248   6.618   3.398  1.3032  0.1290  0.2756
   55DOPE   C34 7052   7.374   6.678   3.566  0.1381 -0.5443 -0.2855
   55DOPE   H4X 7053   7.473   6.720   3.595  0.1501 -1.9636  2.0437
   55DOPE   H4Y 7054   7.294   6.753   3.584  2.4566  2.8741 -3.0056
   55DOPE   C35 7055   7.352   6.567   3.663 -0.1814  0.4246 -0.3980
   55DOPE   H5X 7056   7.436   6.495   3.649 -1.2096 -1.2562  1.7111
   55DOPE   H5Y 7057   7.259   6.510   3.645 -0.3691  1.1199 -1.8266
   55DOPE   C36 7058   7.363   6.625   3.808 -0.1034  0.0341  0.4064
   55DOPE   H6X 7059   7.268   6.671   3.843 -1.1202 -0.5819 -1.4541
   55DOPE   H6Y 7060   7.452   6.693   3.806 -0.1020  0.0255 -1.4853
   55DOPE   C37 7061   7.389   6.521   3.924  0.0640 -0.2231  0.2284
   55DOPE   H7X 7062   7.386   6.562   4.027 -2.5273  0.0061  0.1359
   55DOPE   H7Y 7063   7.305   6.448   3.926 -1.3259  1.3203  2.3956
   55DOPE   C38 7064   7.516   6.441   3.908  0.0587 -0.2007  0.0468
   55DOPE   H8X 7065   7.596   6.519   3.908  0.8474 -1.0005 -0.0635
   55DOPE   H8Y 7066   7.512   6.406   3.803  3.0006  1.5706 -0.7851
   55DOPE   C39 7067   7.542   6.324   4.000  0.4954  0.1672 -0.2645
   55DOPE   H9X 7068   7.481   6.235   3.979  0.3353 -0.1057  1.2405
   55DOPE  C310 7069   7.645   6.298   4.078  0.5255  1.0446  0.6231
   55DOPE  H10X 7070   7.655   6.201   4.130 -3.4129 -0.7193 -1.4567
   55DOPE  C311 7071   7.758   6.387   4.103 -0.2480  0.4437 -0.1488
   55DOPE  H11X 7072   7.844   6.319   4.119 -0.4948  0.7717  3.1691
   55DOPE  H11Y 7073   7.778   6.464   4.025  0.0665 -1.2487 -1.7982
   55DOPE  C312 7074   7.754   6.465   4.236  0.0215 -0.0638  0.2307
   55DOPE  H12X 7075   7.859   6.497   4.254 -0.4126  1.2932  0.4847
   55DOPE  H12Y 7076   7.726   6.409   4.328  0.3480 -2.1928 -0.8966
   55DOPE  C313 7077   7.662   6.585   4.223  0.0971  0.2845 -0.1045
   55DOPE  H13X 7078   7.683   6.659   4.143 -0.1502  0.1877 -0.2633
   55DOPE  H13Y 7079   7.553   6.562   4.213 -0.0132  1.0026 -0.6489
   55DOPE  C314 7080   7.652   6.660   4.360 -0.2482  0.5248 -0.9091
   55DOPE  H14X 7081   7.751   6.702   4.385  0.1366 -0.9468  0.1288
   55DOPE  H14Y 7082   7.622   6.585   4.436 -0.2484 -0.5073 -1.8858
   55DOPE  C315 7083   7.557   6.779   4.354  0.4875  0.3407 -0.7078
   55DOPE  H15X 7084   7.558   6.835   4.258  0.6604  1.1572 -0.2307
   55DOPE  H15Y 7085   7.580   6.857   4.430  1.2922 -0.8776  0.3509
   55DOPE  C316 7086   7.405   6.751   4.376 -0.0155 -0.3696  0.3854
   55DOPE  H16X 7087   7.379   6.720   4.479 -3.3251  1.6444  0.3142
   55DOPE  H16Y 7088   7.375   6.661   4.317  0.9387  0.2796 -1.1549
   55DOPE  C317 7089   7.319   6.869   4.332  0.5092  0.1277  0.2013
   55DOPE  H17X 7090   7.220   6.851   4.380  0.3520  0.5941  0.0594
   55DOPE  H17Y 7091   7.369   6.953   4.384  0.6910 -1.2387  2.3303
   55DOPE  C318 7092   7.301   6.885   4.178 -0.4318 -0.0414 -0.1181
   55DOPE  H18X 7093   7.396   6.918   4.130 -1.8345  2.6828 -1.1988
   55DOPE  H18Y 7094   7.269   6.786   4.137 -0.2651 -0.0335 -0.2698
   55DOPE  H18Z 7095   7.233   6.964   4.140  0.4769  0.2863 -1.1266
   56DOPE     N 7096   1.617   4.868   3.433 -0.0375 -0.0926  0.5195
   56DOPE   HN1 7097   1.564   4.876   3.522  0.3371 -2.7353  1.0746
   56DOPE   HN2 7098   1.550   4.822   3.368 -0.3869  1.4167 -0.2406
   56DOPE   HN3 7099   1.697   4.805   3.454 -1.7670 -2.2183  1.0646
   56DOPE   C12 7100   1.653   5.005   3.378 -0.2268  0.0898  0.1726
   56DOPE  H12A 7101   1.623   4.989   3.273 -3.4133 -1.7600  1.2306
   56DOPE  H12B 7102   1.763   5.016   3.386 -0.0834 -1.1016 -0.0558
   56DOPE   C11 7103   1.564   5.109   3.440  0.1594  0.0153  0.2220
   56DOPE  H11A 7104   1.587   5.209   3.397 -0.4900 -0.1118 -0.4380
   56DOPE  H11B 7105   1.570   5.111   3.551 -2.1426 -0.7113  0.4006
   56DOPE     P 7106   1.303   5.149   3.437  0.2494  0.2029 -0.0279
   56DOPE   O13 7107   1.230   5.084   3.548  0.4772 -0.2459  0.0050
   56DOPE   O14 7108   1.225   5.149   3.307  0.0230 -0.2118  0.1494
   56DOPE   O11 7109   1.360   5.292   3.468  0.8644 -0.1524 -0.1677
   56DOPE   O12 7110   1.434   5.075   3.406  0.0978  0.3216  0.2618
   56DOPE    C1 7111   1.305   5.379   3.568 -0.0695  0.6507 -0.1884
   56DOPE    HA 7112   1.215   5.340   3.621  1.1113 -2.0864 -0.0540
   56DOPE    HB 7113   1.278   5.474   3.517  1.0391  0.8799 -0.3592
   56DOPE    C2 7114   1.408   5.417   3.678  0.5069  0.2943  0.3362
   56DOPE    HS 7115   1.500   5.450   3.625  1.6382 -1.0427  1.3729
   56DOPE   O21 7116   1.448   5.299   3.748 -0.0657 -0.2724 -0.2392
   56DOPE   C21 7117   1.554   5.298   3.826  0.3679 -0.0343 -0.8521
   56DOPE   O22 7118   1.628   5.391   3.842 -0.2475  0.0283 -0.2194
   56DOPE   C22 7119   1.564   5.164   3.908 -0.1944 -0.3394 -0.9382
   56DOPE   H2R 7120   1.608   5.081   3.848 -0.7269 -1.9560  0.7966
   56DOPE   H2S 7121   1.463   5.130   3.939 -0.7431  2.4007  0.5656
   56DOPE    C3 7122   1.352   5.525   3.778 -0.6883 -0.0270 -0.1742
   56DOPE    HX 7123   1.306   5.605   3.716  1.9121  1.1146 -0.7400
   56DOPE    HY 7124   1.437   5.568   3.835  1.4844 -0.6422 -2.7539
   56DOPE   O31 7125   1.248   5.468   3.868 -0.3021 -0.2260  0.3646
   56DOPE   C31 7126   1.199   5.553   3.958  0.7486  0.6287  0.1480
   56DOPE   O32 7127   1.217   5.669   3.968 -0.1972  0.1261  0.3058
   56DOPE   C32 7128   1.106   5.477   4.057  0.4947 -0.2042 -0.1955
   56DOPE   H2X 7129   1.051   5.408   3.989 -0.0730  0.0728 -0.0236
   56DOPE   H2Y 7130   1.163   5.408   4.122 -0.9734 -1.8187 -0.5469
   56DOPE   C23 7131   1.659   5.193   4.031  0.0345  0.6732  0.5323
   56DOPE   H3R 7132   1.749   5.250   4.001 -0.1713  0.5005 -0.4253
   56DOPE   H3S 7133   1.696   5.092   4.060 -3.9826 -1.5918 -1.3745
   56DOPE   C24 7134   1.576   5.251   4.151 -0.2069 -0.1512  0.6532
   56DOPE   H4R 7135   1.470   5.269   4.122 -0.0487  1.2540  0.8842
   56DOPE   H4S 7136   1.621   5.352   4.160  2.6035 -0.9478 -2.2727
   56DOPE   C25 7137   1.579   5.164   4.277  0.3475  0.5169 -0.1588
   56DOPE   H5R 7138   1.682   5.140   4.313  0.4322 -0.8183 -1.2275
   56DOPE   H5S 7139   1.526   5.069   4.255  0.1699  0.7083 -0.5640
   56DOPE   C26 7140   1.519   5.237   4.387  0.4703  0.1613 -0.7848
   56DOPE   H6R 7141   1.415   5.269   4.363 -0.4276 -0.6776  1.7070
   56DOPE   H6S 7142   1.587   5.323   4.403  0.4076  0.0031  0.4355
   56DOPE   C27 7143   1.520   5.144   4.509 -0.3732 -0.0929 -0.8864
   56DOPE   H7R 7144   1.622   5.108   4.534 -0.4318  0.5268  0.3144
   56DOPE   H7S 7145   1.459   5.055   4.486 -0.4301 -0.1341 -0.5755
   56DOPE   C28 7146   1.454   5.222   4.632  0.0772  0.6874 -0.5575
   56DOPE   H8R 7147   1.349   5.231   4.598 -0.2864 -2.3904 -0.6037
   56DOPE   H8S 7148   1.503   5.320   4.649 -1.6519  1.3935  0.6137
   56DOPE   C29 7149   1.463   5.135   4.756 -0.0091  0.0691  0.3581
   56DOPE   H9R 7150   1.564   5.128   4.799  0.3967 -2.5331 -0.8249
   56DOPE  C210 7151   1.351   5.077   4.814 -0.4679  0.1902 -0.1366
   56DOPE  H10R 7152   1.367   5.025   4.910  3.2705  1.3610  0.0456
   56DOPE  C211 7153   1.209   5.080   4.766 -0.4185 -0.0232 -0.6665
   56DOPE  H11R 7154   1.166   4.977   4.772  1.3522 -0.7069  3.0860
   56DOPE  H11S 7155   1.197   5.114   4.661 -1.2458  1.7623 -0.0252
   56DOPE  C212 7156   1.121   5.169   4.849  0.0037 -0.9902 -1.3258
   56DOPE  H12R 7157   1.165   5.271   4.855  0.2064 -0.8861 -3.5663
   56DOPE  H12S 7158   1.120   5.140   4.956  0.6779  2.5222 -0.2307
   56DOPE  C213 7159   0.969   5.178   4.819 -1.0767 -0.2228 -0.6183
   56DOPE  H13R 7160   0.931   5.246   4.897  0.8469 -0.6839  0.8066
   56DOPE  H13S 7161   0.926   5.076   4.833  1.4855 -1.1939  0.9071
   56DOPE  C214 7162   0.945   5.222   4.680 -0.6074  0.0002 -0.4244
   56DOPE  H14R 7163   0.979   5.148   4.604 -0.0785 -0.4073  0.2054
   56DOPE  H14S 7164   1.020   5.303   4.664  1.0875 -1.3335  0.4154
   56DOPE  C215 7165   0.794   5.244   4.652  0.0755 -0.3634  0.4390
   56DOPE  H15R 7166   0.740   5.154   4.688  0.1097  0.0259  1.5081
   56DOPE  H15S 7167   0.785   5.246   4.542  1.5564  0.3936  0.3056
   56DOPE  C216 7168   0.730   5.373   4.710 -0.3032  0.3708  0.3140
   56DOPE  H16R 7169   0.791   5.457   4.671  0.9828 -0.0975  1.2469
   56DOPE  H16S 7170   0.748   5.364   4.820  1.0724  1.5396  0.2162
   56DOPE  C217 7171   0.582   5.388   4.676 -0.4687  0.5167  0.0070
   56DOPE  H17R 7172   0.540   5.488   4.698 -1.2649 -0.0623  1.2254
   56DOPE  H17S 7173   0.524   5.323   4.745  0.1722  1.7474  1.7557
   56DOPE  C218 7174   0.537   5.364   4.536  0.0361 -0.1831 -0.0458
   56DOPE  H18R 7175   0.614   5.326   4.466 -0.5292  1.0972 -1.4217
   56DOPE  H18S 7176   0.514   5.466   4.498  2.6895  0.6523  0.4177
   56DOPE  H18T 7177   0.455   5.289   4.537  0.5437 -0.7569 -0.4108
   56DOPE   C33 7178   1.008   5.570   4.130 -0.1858  0.1676  0.6133
   56DOPE   H3X 7179   0.933   5.608   4.058 -2.2641  0.4622  2.7947
   56DOPE   H3Y 7180   1.052   5.658   4.182 -1.9146  1.6354 -0.2817
   56DOPE   C34 7181   0.937   5.490   4.238 -0.4141  0.0278 -0.1788
   56DOPE   H4X 7182   0.847   5.549   4.265  1.7686  3.2239  0.6294
   56DOPE   H4Y 7183   0.908   5.392   4.195  1.0294  0.1133 -1.4216
   56DOPE   C35 7184   1.027   5.475   4.367  1.1405  0.2111 -0.4424
   56DOPE   H5X 7185   1.119   5.416   4.346 -0.6569 -2.0489 -2.5631
   56DOPE   H5Y 7186   0.969   5.411   4.437  0.1885  0.4623 -0.9856
   56DOPE   C36 7187   1.084   5.600   4.443 -0.5357  0.0525  0.3611
   56DOPE   H6X 7188   1.148   5.666   4.380 -1.7190  1.6390  0.7607
   56DOPE   H6Y 7189   1.143   5.558   4.526  1.0275 -0.4127 -0.9358
   56DOPE   C37 7190   0.969   5.686   4.488 -0.5030 -0.6388 -0.0759
   56DOPE   H7X 7191   0.902   5.703   4.401  1.4894 -1.1548 -1.7807
   56DOPE   H7Y 7192   0.900   5.641   4.562  0.4707  1.3627  2.1788
   56DOPE   C38 7193   1.024   5.821   4.540  0.6956  0.8712 -0.7449
   56DOPE   H8X 7194   0.942   5.892   4.567  0.2325  0.3116 -0.6699
   56DOPE   H8Y 7195   1.105   5.870   4.482  1.7354  1.9735  1.4821
   56DOPE   C39 7196   1.087   5.793   4.676 -0.0747  0.3605  0.7098
   56DOPE   H9X 7197   1.186   5.747   4.668  0.0661  0.8811 -0.8305
   56DOPE  C310 7198   1.029   5.818   4.797  0.6271 -0.0786 -0.0842
   56DOPE  H10X 7199   1.085   5.785   4.885 -0.3848 -0.2423  0.5211
   56DOPE  C311 7200   0.897   5.891   4.824 -0.3764 -0.6192 -0.2858
   56DOPE  H11X 7201   0.903   5.933   4.927 -1.8113  0.3443 -0.5738
   56DOPE  H11Y 7202   0.899   5.983   4.762  0.3289 -0.0683  0.5200
   56DOPE  C312 7203   0.765   5.823   4.807  0.4737  0.0252 -0.0181
   56DOPE  H12X 7204   0.757   5.788   4.702 -0.8390  0.7033 -0.1672
   56DOPE  H12Y 7205   0.694   5.909   4.802 -0.4832 -0.7660 -0.3550
   56DOPE  C313 7206   0.740   5.724   4.924 -0.6843  0.0491 -0.3208
   56DOPE  H13X 7207   0.793   5.627   4.917 -0.9593 -0.0505 -1.0714
   56DOPE  H13Y 7208   0.779   5.761   5.022  0.9538 -3.5693  0.5670
   56DOPE  C314 7209   0.588   5.689   4.939 -0.1213 -0.1400  0.6984
   56DOPE  H14X 7210   0.546   5.647   4.845  0.2952  3.0983 -1.0754
   56DOPE  H14Y 7211   0.525   5.781   4.951 -0.6269 -0.1404 -1.6004
   56DOPE  C315 7212   0.555   5.595   5.053 -0.4802 -0.4190 -0.1102
   56DOPE  H15X 7213   0.593   5.636   5.148  0.2089 -0.4558 -0.3649
   56DOPE  H15Y 7214   0.615   5.502   5.043  0.6622 -0.2027  3.4750
   56DOPE  C316 7215   0.404   5.561   5.066 -0.0000  0.2690  0.0780
   56DOPE  H16X 7216   0.385   5.453   5.048 -0.5842  0.2499  0.7398
   56DOPE  H16Y 7217   0.346   5.614   4.987  0.0580  0.0453 -0.1171
   56DOPE  C317 7218   0.352   5.590   5.204  0.5916  0.2676 -0.4126
   56DOPE  H17X 7219   0.416   5.543   5.282  0.5209  1.2951  0.2746
   56DOPE  H17Y 7220   0.375   5.698   5.216 -0.2238  0.4987 -0.8222
   56DOPE  C318 7221   0.206   5.560   5.230 -0.0227 -0.3505 -0.1302
   56DOPE  H18X 7222   0.176   5.454   5.212 -3.2238  0.7020 -1.5556
   56DOPE  H18Y 7223   0.181   5.581   5.336 -0.3411  0.3722 -0.3461
   56DOPE  H18Z 7224   0.146   5.620   5.160  0.5131  1.5133  0.9375
   57DOPE     N 7225   1.002   2.818   2.700  0.3486  0.0624  0.3328
   57DOPE   HN1 7226   1.072   2.891   2.725  0.1019  0.3041  0.3302
   57DOPE   HN2 7227   1.047   2.725   2.700  0.6015  0.1621  1.8306
   57DOPE   HN3 7228   0.960   2.836   2.606  0.4452 -1.5555 -0.0437
   57DOPE   C12 7229   0.880   2.828   2.802 -0.1046 -0.1071  0.2391
   57DOPE  H12A 7230   0.918   2.820   2.907 -0.0368 -1.0311  0.1560
   57DOPE  H12B 7231   0.810   2.746   2.776  0.2326  0.3656 -2.4090
   57DOPE   C11 7232   0.816   2.968   2.766 -0.3584  0.0293 -1.1999
   57DOPE  H11A 7233   0.714   2.959   2.809 -0.4228  2.1524 -0.7992
   57DOPE  H11B 7234   0.804   2.970   2.656  0.9172 -0.3542 -1.3618
   57DOPE     P 7235   0.891   3.140   2.956  0.1034  0.2353  0.2528
   57DOPE   O13 7236   0.759   3.210   2.963 -0.7791  0.0544 -0.1938
   57DOPE   O14 7237   1.012   3.222   2.971  0.6993  0.0270  0.0918
   57DOPE   O11 7238   0.898   3.013   3.057 -0.4675 -0.4780 -0.2575
   57DOPE   O12 7239   0.908   3.067   2.812 -0.2664  0.2769 -0.4476
   57DOPE    C1 7240   0.779   2.953   3.120  0.5897  0.0664  0.2098
   57DOPE    HA 7241   0.806   2.847   3.140  2.9504  0.9267  2.0783
   57DOPE    HB 7242   0.693   2.960   3.050 -0.7610 -2.7334  1.4548
   57DOPE    C2 7243   0.724   3.029   3.254 -0.0854 -0.2870  0.2864
   57DOPE    HS 7244   0.714   3.135   3.222 -0.6558  0.0197  1.4423
   57DOPE   O21 7245   0.818   3.015   3.359  0.3766 -0.4014  0.5635
   57DOPE   C21 7246   0.889   3.132   3.375 -0.5359  0.8825  0.0642
   57DOPE   O22 7247   0.870   3.238   3.326  0.6750 -0.0924 -0.0718
   57DOPE   C22 7248   1.000   3.112   3.479  0.5025 -0.4541  0.4507
   57DOPE   H2R 7249   0.980   3.184   3.561  2.9623 -1.0343  1.6570
   57DOPE   H2S 7250   1.096   3.142   3.433 -0.3174 -0.4032 -1.3094
   57DOPE    C3 7251   0.578   2.983   3.297  0.0592 -0.3811  0.0033
   57DOPE    HX 7252   0.578   2.874   3.315 -0.0864 -0.4342 -0.3021
   57DOPE    HY 7253   0.517   2.999   3.205 -0.7481  1.1320  0.7562
   57DOPE   O31 7254   0.523   3.055   3.408 -0.6188 -0.5418  0.1679
   57DOPE   C31 7255   0.487   3.179   3.392  0.4932 -0.3397 -0.0259
   57DOPE   O32 7256   0.471   3.240   3.288 -0.5910 -0.0685 -0.2456
   57DOPE   C32 7257   0.448   3.237   3.526 -0.1921 -0.1432  0.2762
   57DOPE   H2X 7258   0.353   3.191   3.560 -0.4606  1.4606  1.7929
   57DOPE   H2Y 7259   0.529   3.223   3.601 -0.0921  1.5573  0.5121
   57DOPE   C23 7260   1.010   2.962   3.537  0.0238 -0.5087  0.2515
   57DOPE   H3R 7261   1.013   2.905   3.441  3.2864  0.7951 -0.5596
   57DOPE   H3S 7262   0.915   2.950   3.592 -0.0623 -0.1826  0.1759
   57DOPE   C24 7263   1.116   2.938   3.648 -0.0181  0.2709 -0.2904
   57DOPE   H4R 7264   1.220   2.939   3.610  1.5747 -0.8565  3.5202
   57DOPE   H4S 7265   1.101   2.839   3.695  1.1773  0.7278  1.1221
   57DOPE   C25 7266   1.101   3.041   3.758  0.1802 -0.7172  0.1996
   57DOPE   H5R 7267   0.991   3.056   3.766  0.3489 -0.3805  2.4961
   57DOPE   H5S 7268   1.142   3.136   3.716 -0.7517 -0.9868 -1.4159
   57DOPE   C26 7269   1.176   2.988   3.882 -1.1716  0.4450 -0.6241
   57DOPE   H6R 7270   1.275   2.949   3.849 -0.4055  1.7298  0.0970
   57DOPE   H6S 7271   1.121   2.901   3.923 -0.8574  1.2366  1.6320
   57DOPE   C27 7272   1.194   3.089   3.996 -0.9355  0.4592 -0.1357
   57DOPE   H7R 7273   1.265   3.166   3.958  0.9003 -0.9651  0.2584
   57DOPE   H7S 7274   1.252   3.045   4.079  0.3922 -2.7784 -2.5494
   57DOPE   C28 7275   1.063   3.148   4.038  0.3647 -0.1159 -0.6688
   57DOPE   H8R 7276   0.997   3.185   3.958 -0.9989 -0.5724  0.2098
   57DOPE   H8S 7277   1.083   3.234   4.105  0.5241  0.1289 -1.0291
   57DOPE   C29 7278   0.974   3.050   4.116 -0.2259 -0.2179 -0.4023
   57DOPE   H9R 7279   0.881   3.034   4.060  0.3812 -0.2355 -1.4495
   57DOPE  C210 7280   0.985   3.011   4.238  0.0291 -0.0960 -0.1009
   57DOPE  H10R 7281   0.917   2.932   4.274 -0.4177  0.3326  0.0169
   57DOPE  C211 7282   1.087   3.052   4.340  0.1276  0.6516  0.1893
   57DOPE  H11R 7283   1.163   3.126   4.308 -0.4015  1.4327  0.6853
   57DOPE  H11S 7284   1.142   2.969   4.389 -1.3231  0.7905  2.1985
   57DOPE  C212 7285   1.029   3.114   4.468  1.3985 -0.4228 -0.1247
   57DOPE  H12R 7286   1.106   3.100   4.547 -1.6640 -2.6606  2.7348
   57DOPE  H12S 7287   0.951   3.046   4.508  2.0341 -0.2428  1.5248
   57DOPE  C213 7288   0.965   3.253   4.463 -0.3644  0.0143 -0.3418
   57DOPE  H13R 7289   0.884   3.260   4.387  0.1583  0.3048 -0.8785
   57DOPE  H13S 7290   1.044   3.324   4.431 -0.6981 -0.9200 -3.6456
   57DOPE  C214 7291   0.899   3.306   4.594 -0.3262  0.5732  0.1130
   57DOPE  H14R 7292   0.829   3.226   4.627  1.7225 -0.3069  2.6751
   57DOPE  H14S 7293   0.843   3.395   4.560 -1.9011 -0.8447 -1.2192
   57DOPE  C215 7294   1.015   3.330   4.698 -0.0366  0.0769 -0.2346
   57DOPE  H15R 7295   1.074   3.238   4.718 -1.5476 -0.8158  0.2559
   57DOPE  H15S 7296   0.953   3.358   4.785 -0.2084 -1.4002  0.1500
   57DOPE  C216 7297   1.106   3.449   4.659 -0.0704 -0.3082  0.0144
   57DOPE  H16R 7298   1.181   3.421   4.582  0.2264  0.1983  0.1164
   57DOPE  H16S 7299   1.181   3.470   4.738  1.5973 -0.2267 -1.5119
   57DOPE  C217 7300   1.046   3.583   4.621  0.4082  0.2577 -0.0524
   57DOPE  H17R 7301   0.995   3.571   4.523 -0.3109  1.7280  0.1104
   57DOPE  H17S 7302   1.124   3.662   4.621  1.1041 -0.3986 -1.4424
   57DOPE  C218 7303   0.936   3.629   4.725  0.2583  0.5691 -0.2299
   57DOPE  H18R 7304   0.981   3.654   4.823  1.0588  1.0360 -0.7092
   57DOPE  H18S 7305   0.850   3.558   4.724  1.9130 -1.5294 -0.1429
   57DOPE  H18T 7306   0.888   3.714   4.671  0.6358 -1.3183 -3.8718
   57DOPE   C33 7307   0.432   3.391   3.514  0.1402  0.0938  0.3376
   57DOPE   H3X 7308   0.358   3.425   3.438 -1.5828  0.7586  2.2097
   57DOPE   H3Y 7309   0.525   3.431   3.469 -0.6964 -1.3276 -2.9731
   57DOPE   C34 7310   0.384   3.453   3.652  0.1810  0.8642  0.6881
   57DOPE   H4X 7311   0.462   3.433   3.729  1.5361 -0.8735 -1.0232
   57DOPE   H4Y 7312   0.390   3.564   3.647  1.5163  0.7515 -0.8795
   57DOPE   C35 7313   0.239   3.422   3.678 -0.3319  0.2644  0.1516
   57DOPE   H5X 7314   0.218   3.313   3.672 -0.5266  0.2649  0.7221
   57DOPE   H5Y 7315   0.181   3.483   3.605  1.3535  0.8970 -0.7066
   57DOPE   C36 7316   0.202   3.461   3.826  0.3094 -0.1143 -0.1468
   57DOPE   H6X 7317   0.276   3.410   3.890  0.7469 -0.3665 -0.8452
   57DOPE   H6Y 7318   0.103   3.425   3.861 -0.9007  0.8784 -2.3429
   57DOPE   C37 7319   0.199   3.611   3.856 -0.0332 -0.1806  0.2261
   57DOPE   H7X 7320   0.298   3.651   3.822  1.0198 -3.2276 -0.6125
   57DOPE   H7Y 7321   0.125   3.651   3.784 -1.3220 -1.9376  0.5212
   57DOPE   C38 7322   0.169   3.636   4.008  0.0101  1.0353  0.5865
   57DOPE   H8X 7323   0.256   3.587   4.058 -0.2994 -2.5161 -1.9680
   57DOPE   H8Y 7324   0.077   3.582   4.039 -0.2909  1.6318  0.7397
   57DOPE   C39 7325   0.163   3.781   4.031 -0.5067 -0.4226 -0.1726
   57DOPE   H9X 7326   0.117   3.843   3.952  2.2171  0.5808 -1.0930
   57DOPE  C310 7327   0.228   3.851   4.128  0.6384 -0.7685 -0.4822
   57DOPE  H10X 7328   0.193   3.955   4.121 -0.1561 -1.0588 -0.9926
   57DOPE  C311 7329   0.304   3.796   4.250  0.7898 -0.0018  0.2140
   57DOPE  H11X 7330   0.256   3.832   4.344 -0.5855 -0.3658 -0.3167
   57DOPE  H11Y 7331   0.298   3.685   4.258  1.2702 -0.0389  0.0583
   57DOPE  C312 7332   0.459   3.840   4.252  0.1981  0.4438  0.4130
   57DOPE  H12X 7333   0.474   3.932   4.191 -1.8537  0.3666 -0.2665
   57DOPE  H12Y 7334   0.509   3.767   4.185 -0.8589 -0.2022  0.3149
   57DOPE  C313 7335   0.510   3.866   4.396  0.7638 -0.1980  1.2401
   57DOPE  H13X 7336   0.423   3.898   4.458 -2.3317 -0.8844 -2.3712
   57DOPE  H13Y 7337   0.550   3.771   4.437 -1.5966 -2.2960 -0.9800
   57DOPE  C314 7338   0.608   3.980   4.406  0.1922 -0.0836 -0.0971
   57DOPE  H14X 7339   0.565   4.081   4.412  0.6420  0.1860 -1.2014
   57DOPE  H14Y 7340   0.684   3.980   4.325 -0.7307 -1.0578 -1.0014
   57DOPE  C315 7341   0.677   3.975   4.540  0.7783  0.4385 -0.0650
   57DOPE  H15X 7342   0.725   3.875   4.549 -1.4836 -0.6107  1.0836
   57DOPE  H15Y 7343   0.593   3.983   4.612  0.2575 -2.2596 -0.2628
   57DOPE  C316 7344   0.780   4.086   4.572  0.0551 -0.4148  0.3241
   57DOPE  H16X 7345   0.803   4.079   4.681 -2.7488 -2.5957  0.9062
   57DOPE  H16Y 7346   0.731   4.184   4.556 -1.4620 -1.2921 -0.6200
   57DOPE  C317 7347   0.917   4.083   4.491  0.6540 -0.7494  0.0384
   57DOPE  H17X 7348   0.954   3.978   4.502 -2.4115 -1.8345  0.8405
   57DOPE  H17Y 7349   0.878   4.097   4.388 -1.7903  1.6360  1.1729
   57DOPE  C318 7350   1.024   4.188   4.530 -0.5919 -0.5075 -0.1758
   57DOPE  H18X 7351   1.069   4.187   4.631  0.8707  0.9946 -0.7673
   57DOPE  H18Y 7352   1.109   4.175   4.459 -0.0733  1.3680  0.0566
   57DOPE  H18Z 7353   0.983   4.289   4.509 -0.3105 -0.6770 -1.6835
   58DOPE     N 7354   6.163   7.379   2.919  1.2986 -0.2240 -0.2968
   58DOPE   HN1 7355   6.078   7.426   2.883  0.5939 -0.6649  0.7488
   58DOPE   HN2 7356   6.120   7.324   2.996 -2.0336  0.3648 -1.5669
   58DOPE   HN3 7357   6.228   7.452   2.954  1.8114 -0.0267 -1.5882
   58DOPE   C12 7358   6.213   7.295   2.805  0.7738  0.9842 -0.2585
   58DOPE  H12A 7359   6.321   7.275   2.824  0.9110  1.7472 -0.1946
   58DOPE  H12B 7360   6.209   7.363   2.717 -2.4177  1.3597  0.0466
   58DOPE   C11 7361   6.125   7.169   2.775 -0.4223 -0.0280  0.0924
   58DOPE  H11A 7362   6.163   7.118   2.684  0.1725  1.5574 -0.5693
   58DOPE  H11B 7363   6.020   7.196   2.750 -1.1028 -1.6300  0.9806
   58DOPE     P 7364   6.046   7.068   3.001  0.1797 -0.0067 -0.5521
   58DOPE   O13 7365   6.115   7.005   3.115  0.4080  0.1534  0.5323
   58DOPE   O14 7366   5.916   7.006   2.964  0.4657 -0.2481 -0.2502
   58DOPE   O11 7367   6.018   7.215   3.056  0.2107 -0.1639 -0.0134
   58DOPE   O12 7368   6.131   7.072   2.878  0.0545 -0.5745  0.1334
   58DOPE    C1 7369   5.899   7.230   3.138 -0.4524  0.3688  0.3949
   58DOPE    HA 7370   5.869   7.134   3.186 -1.3565  1.9071  3.1000
   58DOPE    HB 7371   5.817   7.283   3.084 -2.4936 -0.4397  2.5311
   58DOPE    C2 7372   5.931   7.314   3.264  0.9139  0.2953  0.0167
   58DOPE    HS 7373   5.983   7.401   3.219  0.6440 -0.6031 -2.1639
   58DOPE   O21 7374   6.014   7.237   3.354 -0.2904  0.0584  0.1517
   58DOPE   C21 7375   6.152   7.248   3.339 -0.0837 -0.0598  0.3841
   58DOPE   O22 7376   6.206   7.314   3.257  0.1485  0.0779  0.4129
   58DOPE   C22 7377   6.228   7.152   3.418 -0.1996 -0.2747 -0.1546
   58DOPE   H2R 7378   6.281   7.093   3.340 -0.1769 -1.7634  0.9457
   58DOPE   H2S 7379   6.168   7.086   3.485 -0.0324 -0.2121  0.0579
   58DOPE    C3 7380   5.794   7.360   3.340  0.5363  0.3570 -0.5152
   58DOPE    HX 7381   5.754   7.259   3.365  0.1167  0.9339  1.3253
   58DOPE    HY 7382   5.716   7.415   3.283  0.0992  1.9081  1.4232
   58DOPE   O31 7383   5.831   7.421   3.467 -0.0636  0.2337  0.3855
   58DOPE   C31 7384   5.857   7.548   3.458  0.7662 -0.2571  0.2939
   58DOPE   O32 7385   5.866   7.614   3.357 -0.5887  0.0601  0.3979
   58DOPE   C32 7386   5.876   7.599   3.601 -0.3199 -0.0810  0.4699
   58DOPE   H2X 7387   5.908   7.510   3.661 -0.0555 -1.9009 -2.1922
   58DOPE   H2Y 7388   5.962   7.666   3.583 -1.4521  0.5069 -3.6552
   58DOPE   C23 7389   6.333   7.227   3.505  1.1841  0.3019 -0.3459
   58DOPE   H3R 7390   6.359   7.325   3.461  0.6881 -0.3449 -2.1477
   58DOPE   H3S 7391   6.423   7.163   3.504  1.9677  1.3305 -2.8508
   58DOPE   C24 7392   6.293   7.245   3.653 -0.0367  0.2971 -0.0931
   58DOPE   H4R 7393   6.236   7.154   3.678 -0.9198  1.2183  1.4063
   58DOPE   H4S 7394   6.217   7.326   3.660  0.3001  0.4964  2.1678
   58DOPE   C25 7395   6.415   7.285   3.743  0.9420 -0.2102  0.4256
   58DOPE   H5R 7396   6.463   7.383   3.722 -0.6452  0.8922  1.6956
   58DOPE   H5S 7397   6.496   7.209   3.734  1.6329  0.7171 -2.2272
   58DOPE   C26 7398   6.371   7.291   3.892 -0.4871 -0.6080 -0.2970
   58DOPE   H6R 7399   6.273   7.341   3.906  0.7344  1.9731 -0.2951
   58DOPE   H6S 7400   6.437   7.362   3.946 -0.1584 -0.5230 -0.8032
   58DOPE   C27 7401   6.386   7.161   3.963 -0.1330 -0.0307  0.0698
   58DOPE   H7R 7402   6.491   7.143   3.993 -0.5314 -1.9650  0.3814
   58DOPE   H7S 7403   6.348   7.072   3.909  2.2093  0.6082 -2.9182
   58DOPE   C28 7404   6.300   7.167   4.095 -0.1262 -0.0826  0.0211
   58DOPE   H8R 7405   6.194   7.151   4.065  0.3341 -0.7040 -1.3545
   58DOPE   H8S 7406   6.293   7.270   4.137  1.7428  0.2915 -0.5091
   58DOPE   C29 7407   6.345   7.062   4.201  0.1221 -1.1980  0.6413
   58DOPE   H9R 7408   6.315   6.961   4.171  2.8309 -1.7888 -0.3473
   58DOPE  C210 7409   6.403   7.096   4.321  0.0247  0.0720 -0.2826
   58DOPE  H10R 7410   6.423   7.018   4.396 -0.9952  1.7950  1.8978
   58DOPE  C211 7411   6.469   7.230   4.360  0.0377  0.1292 -0.1997
   58DOPE  H11R 7412   6.402   7.310   4.324 -1.1065 -0.9128 -0.4614
   58DOPE  H11S 7413   6.569   7.256   4.319  0.5898  0.4270  1.2527
   58DOPE  C212 7414   6.492   7.253   4.512  0.0538  0.3260  0.2062
   58DOPE  H12R 7415   6.406   7.231   4.579  0.8543  0.6890  1.3894
   58DOPE  H12S 7416   6.518   7.358   4.538  2.2407 -0.4340  1.3425
   58DOPE  C213 7417   6.616   7.175   4.555  0.1073  0.4333 -0.3827
   58DOPE  H13R 7418   6.693   7.185   4.476 -0.4935 -0.2050 -1.0658
   58DOPE  H13S 7419   6.589   7.067   4.566 -0.7662  0.7069  0.2096
   58DOPE  C214 7420   6.667   7.204   4.696  0.2701  0.2063 -0.6043
   58DOPE  H14R 7421   6.654   7.314   4.707 -0.9024 -0.1261  2.4258
   58DOPE  H14S 7422   6.771   7.168   4.711 -0.7316 -2.0983  1.4067
   58DOPE  C215 7423   6.579   7.149   4.808 -0.3207  0.9504 -0.0225
   58DOPE  H15R 7424   6.590   7.038   4.806 -1.9923  0.7477  0.1911
   58DOPE  H15S 7425   6.473   7.178   4.790 -0.2554  0.1089 -2.0636
   58DOPE  C216 7426   6.620   7.205   4.948  0.0542 -0.7810 -0.6286
   58DOPE  H16R 7427   6.602   7.314   4.955  3.3142 -0.2092  1.0293
   58DOPE  H16S 7428   6.731   7.196   4.955  0.0237 -2.7436 -1.8727
   58DOPE  C217 7429   6.547   7.148   5.068 -0.3078 -0.1113  0.1937
   58DOPE  H17R 7430   6.560   7.038   5.067 -1.3573 -0.2697 -2.6626
   58DOPE  H17S 7431   6.439   7.154   5.047 -0.2571 -2.0086 -0.8139
   58DOPE  C218 7432   6.600   7.190   5.208 -0.4599 -0.1638 -0.1566
   58DOPE  H18R 7433   6.709   7.176   5.223 -0.0537 -1.0241 -3.2226
   58DOPE  H18S 7434   6.557   7.131   5.292 -0.1082 -1.3801 -0.8146
   58DOPE  H18T 7435   6.575   7.293   5.241  0.2492 -0.9983  3.4300
   58DOPE   C33 7436   5.754   7.675   3.664  0.3690  0.6631  0.1360
   58DOPE   H3X 7437   5.686   7.604   3.716  1.9559 -0.6735  0.4784
   58DOPE   H3Y 7438   5.702   7.716   3.575 -0.2097 -1.4911 -0.5780
   58DOPE   C34 7439   5.797   7.783   3.757 -0.2977 -0.5508 -0.0141
   58DOPE   H4X 7440   5.839   7.867   3.699 -1.6294 -1.0444 -1.7851
   58DOPE   H4Y 7441   5.708   7.835   3.800  0.3985 -0.7486  1.7227
   58DOPE   C35 7442   5.883   7.746   3.877  0.1772 -0.2065 -0.5452
   58DOPE   H5X 7443   5.915   7.837   3.933  1.2813 -1.6251  1.2366
   58DOPE   H5Y 7444   5.973   7.688   3.848  1.9997 -0.6303  4.7491
   58DOPE   C36 7445   5.799   7.661   3.980 -0.6784  0.3775 -0.0028
   58DOPE   H6X 7446   5.720   7.603   3.928  0.7812  0.3408 -2.3216
   58DOPE   H6Y 7447   5.738   7.731   4.041 -1.5612  0.9671 -1.5230
   58DOPE   C37 7448   5.880   7.555   4.073  0.7188  0.3144 -0.5274
   58DOPE   H7X 7449   5.795   7.490   4.102 -0.0885  1.5345 -0.1106
   58DOPE   H7Y 7450   5.957   7.495   4.019  0.3515  0.3108 -1.0467
   58DOPE   C38 7451   5.954   7.630   4.186 -0.0818  0.1390  0.2548
   58DOPE   H8X 7452   5.992   7.719   4.132 -1.6471  0.2783 -0.6829
   58DOPE   H8Y 7453   6.033   7.563   4.226  1.4372  0.4244 -2.0936
   58DOPE   C39 7454   5.869   7.676   4.303 -0.0730  0.8917  0.1883
   58DOPE   H9X 7455   5.777   7.729   4.273 -0.8341  0.3053  1.4174
   58DOPE  C310 7456   5.888   7.653   4.434 -1.0217 -0.5794 -0.0491
   58DOPE  H10X 7457   5.805   7.688   4.497  0.5886  1.8156  0.9371
   58DOPE  C311 7458   6.003   7.587   4.506 -0.1865  0.7503 -0.5037
   58DOPE  H11X 7459   5.963   7.491   4.546 -0.6582  0.3612 -1.8499
   58DOPE  H11Y 7460   6.084   7.556   4.436 -0.7307  0.1633 -0.8745
   58DOPE  C312 7461   6.054   7.667   4.628 -0.6374 -0.6049  0.5114
   58DOPE  H12X 7462   5.979   7.669   4.710 -0.5256 -0.5996  0.6156
   58DOPE  H12Y 7463   6.071   7.772   4.594  3.2343 -1.8775 -2.2069
   58DOPE  C313 7464   6.181   7.612   4.693  1.2680 -0.3348 -0.1086
   58DOPE  H13X 7465   6.164   7.628   4.802 -1.3433 -0.3861 -0.4316
   58DOPE  H13Y 7466   6.169   7.503   4.680 -0.9965 -0.0991 -0.4492
   58DOPE  C314 7467   6.309   7.668   4.636 -0.3012 -0.4197  0.2090
   58DOPE  H14X 7468   6.323   7.776   4.660 -0.4629 -0.2805 -0.2997
   58DOPE  H14Y 7469   6.300   7.671   4.525  0.8501  0.7893  0.1247
   58DOPE  C315 7470   6.435   7.587   4.685 -0.1638 -0.2779 -0.3764
   58DOPE  H15X 7471   6.532   7.625   4.646 -1.0942  0.8063 -1.7395
   58DOPE  H15Y 7472   6.423   7.482   4.652 -0.7732 -0.0089 -1.0300
   58DOPE  C316 7473   6.457   7.579   4.836  0.1941  0.2860  0.1796
   58DOPE  H16X 7474   6.543   7.509   4.846  0.1476 -0.0257 -1.3838
   58DOPE  H16Y 7475   6.374   7.528   4.890 -0.5015  2.3814  1.1890
   58DOPE  C317 7476   6.499   7.709   4.904  0.4202  0.3219  0.6220
   58DOPE  H17X 7477   6.591   7.747   4.857  1.6511 -1.5900  1.3495
   58DOPE  H17Y 7478   6.423   7.788   4.886  0.3224 -0.3504 -2.3770
   58DOPE  C318 7479   6.520   7.683   5.051 -0.0884  0.3460 -0.6597
   58DOPE  H18X 7480   6.611   7.622   5.065  1.2383  2.0834 -1.3530
   58DOPE  H18Y 7481   6.532   7.762   5.128 -0.0080 -0.0536 -0.2596
   58DOPE  H18Z 7482   6.436   7.628   5.098 -1.3406 -0.2251 -3.3306
   59DOPE     N 7483   0.452   0.743   2.276 -0.1867  0.0908  0.0437
   59DOPE   HN1 7484   0.534   0.807   2.284 -0.4356  0.4219  0.0021
   59DOPE   HN2 7485   0.491   0.650   2.298  1.0962  0.0048 -2.2960
   59DOPE   HN3 7486   0.405   0.732   2.184 -1.3185 -0.5386  0.6785
   59DOPE   C12 7487   0.342   0.779   2.373  0.0769 -0.1060  0.5639
   59DOPE  H12A 7488   0.399   0.800   2.466  2.6778  0.7100 -1.1111
   59DOPE  H12B 7489   0.269   0.695   2.375  0.6098 -1.0047 -4.4792
   59DOPE   C11 7490   0.262   0.905   2.344  0.1969 -0.8168  0.2637
   59DOPE  H11A 7491   0.201   0.906   2.251  3.9421 -0.6207 -2.4139
   59DOPE  H11B 7492   0.333   0.990   2.334 -2.9820  2.2323  1.2599
   59DOPE     P 7493   0.219   1.031   2.574  0.4800 -0.6491 -0.2130
   59DOPE   O13 7494   0.149   1.161   2.564 -0.2390  0.0484 -0.3892
   59DOPE   O14 7495   0.368   1.035   2.589 -0.0899 -0.1034  0.0567
   59DOPE   O11 7496   0.157   0.955   2.695  0.1620  0.1371 -0.2259
   59DOPE   O12 7497   0.171   0.940   2.456  0.6131  0.2017 -0.0033
   59DOPE    C1 7498   0.181   0.813   2.697 -0.8965 -0.5495 -0.4401
   59DOPE    HA 7499   0.286   0.795   2.666 -0.7637 -0.4289 -0.0539
   59DOPE    HB 7500   0.108   0.762   2.629 -0.7436  0.7405 -1.6197
   59DOPE    C2 7501   0.166   0.751   2.845 -0.4130  0.5811 -0.1036
   59DOPE    HS 7502   0.059   0.773   2.866 -0.1884  1.7541 -0.1678
   59DOPE   O21 7503   0.267   0.805   2.932  0.0397  0.3500  0.1032
   59DOPE   C21 7504   0.217   0.851   3.044 -0.8422  0.5620 -0.2991
   59DOPE   O22 7505   0.100   0.845   3.081  0.1717  0.1541 -0.1704
   59DOPE   C22 7506   0.333   0.909   3.124  0.0164  0.3752  0.1008
   59DOPE   H2R 7507   0.346   1.013   3.087  2.7078 -0.2177 -0.8228
   59DOPE   H2S 7508   0.430   0.859   3.105  0.5452  1.2325  0.4631
   59DOPE    C3 7509   0.183   0.603   2.837  0.0761  0.2573 -0.2249
   59DOPE    HX 7510   0.279   0.584   2.786  0.0963  0.9803 -0.4713
   59DOPE    HY 7511   0.102   0.554   2.778 -0.1488  0.2807  0.0597
   59DOPE   O31 7512   0.181   0.550   2.973 -0.1253  0.0064 -0.8765
   59DOPE   C31 7513   0.062   0.492   3.020  0.0017 -0.0459  1.1882
   59DOPE   O32 7514  -0.046   0.499   2.960  0.1293  0.1361  0.6199
   59DOPE   C32 7515   0.082   0.439   3.160 -0.0481  0.1105 -0.2894
   59DOPE   H2X 7516   0.177   0.382   3.159  0.6870  1.3068 -1.1855
   59DOPE   H2Y 7517   0.093   0.526   3.228  0.4299  0.4059 -0.7371
   59DOPE   C23 7518   0.307   0.892   3.271  0.1082 -0.0197  0.0468
   59DOPE   H3R 7519   0.209   0.935   3.300  0.0304 -0.2951  0.1950
   59DOPE   H3S 7520   0.383   0.941   3.335 -0.1365  0.9434 -0.3906
   59DOPE   C24 7521   0.310   0.739   3.315  0.1809 -0.1715 -0.6640
   59DOPE   H4R 7522   0.413   0.698   3.306  0.1071 -0.6165  0.4003
   59DOPE   H4S 7523   0.240   0.686   3.246  1.0449 -1.8130 -0.3396
   59DOPE   C25 7524   0.281   0.731   3.465 -0.0032  0.7533  0.0715
   59DOPE   H5R 7525   0.177   0.768   3.477 -0.8125 -0.1424 -3.0479
   59DOPE   H5S 7526   0.355   0.785   3.527 -0.6356  0.4297  1.1380
   59DOPE   C26 7527   0.278   0.585   3.515  0.1597  0.3324 -0.0869
   59DOPE   H6R 7528   0.382   0.546   3.507 -0.3144 -0.7219 -1.4777
   59DOPE   H6S 7529   0.222   0.523   3.442  0.7686 -0.2954 -0.0327
   59DOPE   C27 7530   0.228   0.567   3.663  0.9504  0.6235  0.8937
   59DOPE   H7R 7531   0.240   0.459   3.688  1.7513  1.1007  2.7374
   59DOPE   H7S 7532   0.119   0.584   3.667  0.6413 -0.3709 -1.4853
   59DOPE   C28 7533   0.299   0.662   3.758  0.8562 -0.6202 -0.2780
   59DOPE   H8R 7534   0.245   0.655   3.854 -0.9105 -2.8539 -1.3400
   59DOPE   H8S 7535   0.285   0.764   3.716  1.4145 -1.5288 -2.9213
   59DOPE   C29 7536   0.444   0.623   3.786  0.1431 -0.6307 -0.0093
   59DOPE   H9R 7537   0.462   0.515   3.801  1.0057 -0.5233 -0.1764
   59DOPE  C210 7538   0.549   0.708   3.783 -0.5423 -0.3939 -0.6963
   59DOPE  H10R 7539   0.652   0.669   3.788 -0.5937 -0.4624 -0.0486
   59DOPE  C211 7540   0.540   0.858   3.768 -0.1428 -0.6484  0.0162
   59DOPE  H11R 7541   0.438   0.896   3.789  0.3924  1.6013 -1.1627
   59DOPE  H11S 7542   0.561   0.885   3.662  2.5871  3.3247  1.3357
   59DOPE  C212 7543   0.639   0.945   3.855  0.4494 -0.1747 -0.3583
   59DOPE  H12R 7544   0.641   1.043   3.803 -0.6278 -0.6569 -1.3676
   59DOPE  H12S 7545   0.742   0.905   3.847  0.3038 -0.2336 -2.5167
   59DOPE  C213 7546   0.588   0.964   4.001 -0.1912 -0.1841 -0.6684
   59DOPE  H13R 7547   0.587   0.858   4.036  2.1264 -0.1692 -0.3840
   59DOPE  H13S 7548   0.486   1.007   4.002 -0.3722 -0.2893  3.3158
   59DOPE  C214 7549   0.694   1.055   4.072  0.7814  0.5616 -0.0264
   59DOPE  H14R 7550   0.689   1.153   4.021 -0.9725  0.2211 -0.5850
   59DOPE  H14S 7551   0.800   1.024   4.057  0.6477 -0.5104  1.0771
   59DOPE  C215 7552   0.665   1.076   4.221 -0.4464  0.2648  0.4223
   59DOPE  H15R 7553   0.676   0.976   4.270  0.0821 -1.1306 -2.3391
   59DOPE  H15S 7554   0.564   1.116   4.244 -0.4561  1.0870 -0.9665
   59DOPE  C216 7555   0.774   1.169   4.277 -0.1534  0.3317 -0.3181
   59DOPE  H16R 7556   0.768   1.272   4.236 -1.8646  1.5012  2.5397
   59DOPE  H16S 7557   0.874   1.122   4.260 -0.2419 -0.9406  2.1701
   59DOPE  C217 7558   0.748   1.185   4.435  0.4402  0.0914  0.1694
   59DOPE  H17R 7559   0.637   1.184   4.431  0.4389  0.2393  0.1543
   59DOPE  H17S 7560   0.791   1.282   4.469 -0.6022  0.4877  0.3970
   59DOPE  C218 7561   0.794   1.069   4.525  0.3757  0.5683 -0.4080
   59DOPE  H18R 7562   0.901   1.040   4.521 -0.0582 -1.6785  1.9119
   59DOPE  H18S 7563   0.724   0.983   4.514  0.0213  0.6876  0.7192
   59DOPE  H18T 7564   0.781   1.097   4.632  0.1783  0.7939 -0.4887
   59DOPE   C33 7565  -0.022   0.346   3.209  0.4973  0.3283  0.2146
   59DOPE   H3X 7566  -0.041   0.255   3.148  2.7507  0.1462 -0.2921
   59DOPE   H3Y 7567  -0.119   0.401   3.207  0.0558 -0.3411  1.7468
   59DOPE   C34 7568  -0.006   0.307   3.359  0.3297  0.8215 -0.6307
   59DOPE   H4X 7569   0.014   0.406   3.405 -3.9392  1.8112 -0.5370
   59DOPE   H4Y 7570  -0.106   0.284   3.403 -0.4814  1.7941 -1.9120
   59DOPE   C35 7571   0.105   0.199   3.383  0.7195 -0.0735  0.0913
   59DOPE   H5X 7572   0.180   0.220   3.304  0.3869  1.1384  0.0822
   59DOPE   H5Y 7573   0.063   0.099   3.358 -0.2310  0.2764  0.2462
   59DOPE   C36 7574   0.160   0.196   3.525  0.2771  0.8294 -1.0255
   59DOPE   H6X 7575   0.078   0.170   3.596  1.3393  1.2796  0.4241
   59DOPE   H6Y 7576   0.215   0.291   3.543  2.0041 -0.0379 -1.5009
   59DOPE   C37 7577   0.253   0.081   3.552 -0.7130  0.3264  1.1053
   59DOPE   H7X 7578   0.200  -0.011   3.519  2.7835 -1.3126 -0.3812
   59DOPE   H7Y 7579   0.337   0.075   3.481 -1.7981 -0.8196 -0.1357
   59DOPE   C38 7580   0.281   0.063   3.704 -0.4669 -0.6245 -0.2296
   59DOPE   H8X 7581   0.336  -0.033   3.717  0.5727 -0.0768 -0.4544
   59DOPE   H8Y 7582   0.181   0.050   3.749 -1.2645 -0.7485 -1.9713
   59DOPE   C39 7583   0.360   0.178   3.769  0.0766  0.1915 -0.0486
   59DOPE   H9X 7584   0.303   0.272   3.764  0.5204  0.4269 -0.9104
   59DOPE  C310 7585   0.489   0.173   3.801 -0.1015  0.1666 -0.3358
   59DOPE  H10X 7586   0.537   0.257   3.854 -2.2134  0.3991  1.3636
   59DOPE  C311 7587   0.575   0.046   3.816  0.1340  0.9416 -0.2017
   59DOPE  H11X 7588   0.516  -0.047   3.802  0.1407  0.8767  0.1870
   59DOPE  H11Y 7589   0.658   0.028   3.745  0.3075 -1.3072  0.4970
   59DOPE  C312 7590   0.618   0.032   3.969 -0.3458 -0.2974  0.1193
   59DOPE  H12X 7591   0.530   0.062   4.031 -0.4190  1.0770 -0.6087
   59DOPE  H12Y 7592   0.698   0.104   3.998 -0.2281 -0.3810  0.0020
   59DOPE  C313 7593   0.644  -0.115   4.012  0.3324 -0.1692  0.1337
   59DOPE  H13X 7594   0.550  -0.173   3.997 -0.8101  1.9355 -1.4526
   59DOPE  H13Y 7595   0.722  -0.171   3.956  1.2445 -0.3632  1.5365
   59DOPE  C314 7596   0.678  -0.123   4.158  0.3595 -0.2177 -0.3976
   59DOPE  H14X 7597   0.611  -0.053   4.214  0.9048 -0.1758  0.2194
   59DOPE  H14Y 7598   0.782  -0.091   4.178  0.4703 -0.5245 -0.4766
   59DOPE  C315 7599   0.662  -0.262   4.224  0.4834  0.0369 -0.8503
   59DOPE  H15X 7600   0.724  -0.326   4.158 -1.1945 -1.3752 -1.1594
   59DOPE  H15Y 7601   0.561  -0.309   4.226 -0.0108  1.0466  1.4616
   59DOPE  C316 7602   0.733  -0.276   4.362  0.5719  0.2293  0.0347
   59DOPE  H16X 7603   0.841  -0.259   4.344  0.4113 -0.2354 -1.5177
   59DOPE  H16Y 7604   0.716  -0.383   4.390 -0.8138 -0.2894 -2.4676
   59DOPE  C317 7605   0.681  -0.202   4.481  0.1854 -0.1807 -1.0075
   59DOPE  H17X 7606   0.668  -0.094   4.458 -1.5872  0.5721  2.8463
   59DOPE  H17Y 7607   0.575  -0.227   4.504  0.6654  0.4865  2.4650
   59DOPE  C318 7608   0.771  -0.232   4.604  0.3309  0.8759  0.1592
   59DOPE  H18X 7609   0.719  -0.193   4.694  0.7999  0.7040  0.5104
   59DOPE  H18Y 7610   0.789  -0.340   4.619 -1.3459  0.0989 -2.7791
   59DOPE  H18Z 7611   0.870  -0.182   4.592 -0.5977  2.4739 -1.4429
   60DOPE     N 7612   6.045   5.693   2.624 -0.6014 -0.9607  0.2896
   60DOPE   HN1 7613   6.030   5.590   2.621  0.0829 -1.2101  2.7969
   60DOPE   HN2 7614   6.067   5.726   2.720  3.6908  0.5473 -0.9990
   60DOPE   HN3 7615   5.965   5.740   2.579 -0.5994  0.9266  2.1095
   60DOPE   C12 7616   6.158   5.717   2.535 -0.3928  0.0557 -0.3597
   60DOPE  H12A 7617   6.185   5.824   2.548  1.1612 -0.5547  1.8654
   60DOPE  H12B 7618   6.124   5.685   2.434  1.4689 -2.4466 -0.2657
   60DOPE   C11 7619   6.283   5.632   2.579 -0.0038  0.3108  0.0129
   60DOPE  H11A 7620   6.297   5.652   2.687 -0.7430  2.7156 -0.2646
   60DOPE  H11B 7621   6.371   5.682   2.534 -0.1772 -0.2815 -1.0363
   60DOPE     P 7622   6.205   5.381   2.622  0.3760 -0.1066 -0.2897
   60DOPE   O13 7623   6.246   5.251   2.564 -0.0918  0.3816  0.2277
   60DOPE   O14 7624   6.064   5.410   2.612  0.3671 -0.0502 -0.0531
   60DOPE   O11 7625   6.259   5.398   2.770  0.5098 -0.2934  0.4233
   60DOPE   O12 7626   6.278   5.495   2.538  0.0093  1.0980 -0.0790
   60DOPE    C1 7627   6.217   5.313   2.871 -0.9777 -0.9151 -0.6014
   60DOPE    HA 7628   6.302   5.245   2.894 -0.3645 -0.4553 -1.4558
   60DOPE    HB 7629   6.137   5.241   2.844  0.2914 -2.5607 -0.1003
   60DOPE    C2 7630   6.162   5.368   3.004 -0.2544  0.3896 -0.3012
   60DOPE    HS 7631   6.060   5.408   2.986 -0.7668 -1.1070 -0.9135
   60DOPE   O21 7632   6.252   5.466   3.059  0.4773 -0.1632  0.2000
   60DOPE   C21 7633   6.187   5.557   3.131 -0.4662 -0.4760 -0.2792
   60DOPE   O22 7634   6.067   5.560   3.147  0.1815 -0.2945  0.2066
   60DOPE   C22 7635   6.295   5.628   3.211 -0.5340 -0.9070 -0.6263
   60DOPE   H2R 7636   6.374   5.666   3.143  1.2377 -2.1852  0.6256
   60DOPE   H2S 7637   6.343   5.547   3.271 -0.9309 -0.7134 -0.0368
   60DOPE    C3 7638   6.135   5.244   3.096  0.1234  0.0272  0.5135
   60DOPE    HX 7639   6.231   5.203   3.134  0.6394  1.4513  0.7744
   60DOPE    HY 7640   6.082   5.165   3.038  0.5955  0.0184  0.0841
   60DOPE   O31 7641   6.040   5.271   3.206 -0.0692 -0.2089  0.1498
   60DOPE   C31 7642   6.098   5.304   3.320  0.3838  0.6638 -0.4927
   60DOPE   O32 7643   6.216   5.314   3.346  0.0698 -0.1751  0.2821
   60DOPE   C32 7644   5.984   5.328   3.417  0.0065  0.0045  0.2619
   60DOPE   H2X 7645   5.895   5.371   3.365  0.8609  0.2418 -1.0546
   60DOPE   H2Y 7646   5.963   5.231   3.467  1.7628  0.6574  2.4174
   60DOPE   C23 7647   6.257   5.753   3.305  0.1489 -0.1466  0.3696
   60DOPE   H3R 7648   6.194   5.731   3.394  1.9560 -1.0691  1.4853
   60DOPE   H3S 7649   6.216   5.836   3.244 -1.4046 -0.0488  1.4926
   60DOPE   C24 7650   6.381   5.813   3.365  0.2952  0.1192 -0.7871
   60DOPE   H4R 7651   6.472   5.800   3.304  1.0915 -0.2326  0.4416
   60DOPE   H4S 7652   6.400   5.746   3.452 -0.4959 -0.0697 -0.7544
   60DOPE   C25 7653   6.378   5.965   3.395 -0.2757 -0.0664  0.3178
   60DOPE   H5R 7654   6.335   6.022   3.310  1.7011 -0.8037 -1.2948
   60DOPE   H5S 7655   6.485   5.997   3.398  0.8611 -3.5247  1.6629
   60DOPE   C26 7656   6.296   6.013   3.513  0.5789  0.0025 -0.9378
   60DOPE   H6R 7657   6.303   5.935   3.592 -2.1364  0.5869 -0.0182
   60DOPE   H6S 7658   6.187   6.015   3.491  0.3147  1.4964  0.3644
   60DOPE   C27 7659   6.324   6.151   3.560  0.1214  0.6406 -0.1740
   60DOPE   H7R 7660   6.245   6.159   3.638 -0.7604 -0.8805 -0.8667
   60DOPE   H7S 7661   6.305   6.228   3.482  0.3524  0.0921 -0.7772
   60DOPE   C28 7662   6.465   6.163   3.613 -0.0476 -0.3167 -0.2633
   60DOPE   H8R 7663   6.534   6.186   3.529 -0.9252  0.9861 -0.6530
   60DOPE   H8S 7664   6.513   6.082   3.672 -0.1822 -0.5068 -0.4149
   60DOPE   C29 7665   6.470   6.283   3.699 -0.5959 -0.0480 -0.5842
   60DOPE   H9R 7666   6.502   6.380   3.657 -2.0815  1.4143  1.4839
   60DOPE  C210 7667   6.430   6.283   3.831  0.3554 -0.0708 -0.4092
   60DOPE  H10R 7668   6.432   6.368   3.900  2.5037 -0.4697  0.1088
   60DOPE  C211 7669   6.381   6.160   3.905 -0.1414  0.3034 -0.8890
   60DOPE  H11R 7670   6.318   6.092   3.843  1.6494 -0.9689 -1.4029
   60DOPE  H11S 7671   6.332   6.188   4.000  0.4699 -1.5624  0.0324
   60DOPE  C212 7672   6.506   6.069   3.952 -0.2530 -0.0510  0.0983
   60DOPE  H12R 7673   6.549   6.140   4.026 -0.1770  0.3622 -0.3404
   60DOPE  H12S 7674   6.585   6.062   3.874  0.4052 -1.0347  0.8240
   60DOPE  C213 7675   6.473   5.931   4.009  0.6249  0.3132  0.0690
   60DOPE  H13R 7676   6.397   5.956   4.086  0.3655 -0.7475  0.1720
   60DOPE  H13S 7677   6.556   5.893   4.071  1.3073  1.1279 -0.3305
   60DOPE  C214 7678   6.432   5.834   3.907 -0.0579  0.0814  0.3758
   60DOPE  H14R 7679   6.378   5.889   3.827 -1.2594 -1.8319 -0.1971
   60DOPE  H14S 7680   6.364   5.753   3.942  1.0919 -2.2216 -2.3114
   60DOPE  C215 7681   6.556   5.761   3.847 -0.4018 -0.2117  0.2809
   60DOPE  H15R 7682   6.591   5.689   3.924 -1.5756 -1.8750 -0.6776
   60DOPE  H15S 7683   6.641   5.831   3.829 -0.8816  0.9189  2.1472
   60DOPE  C216 7684   6.521   5.674   3.724 -0.0282 -0.7555  0.6248
   60DOPE  H16R 7685   6.616   5.630   3.686  0.4295  0.5751  0.1742
   60DOPE  H16S 7686   6.482   5.727   3.634 -2.8052 -3.9952 -0.3239
   60DOPE  C217 7687   6.413   5.567   3.747 -0.0458 -0.8590  0.0993
   60DOPE  H17R 7688   6.317   5.604   3.790 -0.5004 -0.4583 -1.2248
   60DOPE  H17S 7689   6.450   5.494   3.823  1.0882 -1.3340 -0.8853
   60DOPE  C218 7690   6.375   5.496   3.620  0.3166 -0.7577  0.5821
   60DOPE  H18R 7691   6.314   5.408   3.647  0.4772 -0.8851  0.5325
   60DOPE  H18S 7692   6.466   5.450   3.575  0.8134 -0.0769  0.8727
   60DOPE  H18T 7693   6.325   5.557   3.542 -0.0960 -0.8770  0.7508
   60DOPE   C33 7694   6.031   5.421   3.535 -0.4264  0.1062  0.0903
   60DOPE   H3X 7695   6.087   5.506   3.492 -0.5221 -0.1674 -0.5823
   60DOPE   H3Y 7696   6.106   5.378   3.606 -0.5613  2.7401  1.9971
   60DOPE   C34 7697   5.911   5.464   3.630  0.7392  0.1075  0.5971
   60DOPE   H4X 7698   5.828   5.503   3.567  1.9459  0.0420 -1.1149
   60DOPE   H4Y 7699   5.870   5.369   3.671 -0.4862  0.4803  0.2655
   60DOPE   C35 7700   5.968   5.553   3.743 -0.1260  0.6060 -0.5639
   60DOPE   H5X 7701   6.072   5.523   3.767 -0.2647  0.7343  0.2093
   60DOPE   H5Y 7702   5.918   5.538   3.841 -2.2337 -0.9975 -1.7818
   60DOPE   C36 7703   5.976   5.703   3.691  0.6468  0.0485 -1.2219
   60DOPE   H6X 7704   5.878   5.754   3.701  0.2539 -0.6925 -1.2037
   60DOPE   H6Y 7705   5.997   5.705   3.582 -0.1522  0.8018 -1.3739
   60DOPE   C37 7706   6.083   5.801   3.750 -0.7287  0.5382 -0.1315
   60DOPE   H7X 7707   6.186   5.763   3.736 -1.4756 -1.4830 -0.5071
   60DOPE   H7Y 7708   6.071   5.889   3.684 -2.5306  1.1514  0.9377
   60DOPE   C38 7709   6.059   5.848   3.891  0.8382  0.7594 -0.3809
   60DOPE   H8X 7710   6.114   5.943   3.906  2.4183 -0.5401  3.3210
   60DOPE   H8Y 7711   6.115   5.781   3.961 -0.9225 -0.8102 -0.3900
   60DOPE   C39 7712   5.918   5.875   3.941  0.5765 -0.3830  0.6585
   60DOPE   H9X 7713   5.864   5.943   3.873  2.1328  0.1895 -0.0576
   60DOPE  C310 7714   5.850   5.831   4.047 -0.0059 -0.1868 -0.7317
   60DOPE  H10X 7715   5.747   5.869   4.054 -1.2489 -3.3006 -0.7640
   60DOPE  C311 7716   5.901   5.737   4.155 -0.2100 -0.2259  0.0148
   60DOPE  H11X 7717   5.999   5.692   4.130 -0.3592 -0.6724  0.2188
   60DOPE  H11Y 7718   5.932   5.785   4.251  1.8855  0.3182 -0.8729
   60DOPE  C312 7719   5.804   5.618   4.193  0.0246 -0.5468  0.1806
   60DOPE  H12X 7720   5.788   5.560   4.099 -0.5458  0.3628 -0.2989
   60DOPE  H12Y 7721   5.706   5.651   4.234  0.7028 -0.6220  1.9385
   60DOPE  C313 7722   5.858   5.517   4.297  0.0301 -0.5943 -0.2408
   60DOPE  H13X 7723   5.961   5.493   4.262  0.6718  2.3638 -0.6122
   60DOPE  H13Y 7724   5.861   5.576   4.391 -2.8068  0.1423 -0.5398
   60DOPE  C314 7725   5.776   5.391   4.300 -0.4752 -0.1964 -0.1179
   60DOPE  H14X 7726   5.792   5.351   4.198 -1.0443 -0.7975  0.0217
   60DOPE  H14Y 7727   5.667   5.412   4.304 -0.4303 -0.0122  0.2105
   60DOPE  C315 7728   5.811   5.285   4.402  0.2627 -0.3985 -0.1745
   60DOPE  H15X 7729   5.807   5.349   4.492  1.5791  2.3049 -1.9154
   60DOPE  H15Y 7730   5.909   5.233   4.392 -0.1539 -1.0152 -1.2855
   60DOPE  C316 7731   5.695   5.185   4.408  0.6251 -0.2437  0.0452
   60DOPE  H16X 7732   5.724   5.095   4.466 -3.0163 -1.6057 -0.0498
   60DOPE  H16Y 7733   5.673   5.139   4.309  0.5408 -1.2876  0.5378
   60DOPE  C317 7734   5.565   5.241   4.472  0.0646 -0.2527 -0.6522
   60DOPE  H17X 7735   5.533   5.331   4.415 -0.8504  0.2137  0.5607
   60DOPE  H17Y 7736   5.493   5.157   4.473 -0.4330  0.1718  0.9813
   60DOPE  C318 7737   5.574   5.283   4.620 -1.1068  0.6392 -0.0898
   60DOPE  H18X 7738   5.628   5.379   4.634  2.2488 -1.0315 -0.3634
   60DOPE  H18Y 7739   5.478   5.295   4.674 -0.2600  0.8775  1.4285
   60DOPE  H18Z 7740   5.643   5.215   4.675 -0.2108  1.4794 -0.1483
   6123SM     N 7741   3.472   3.392   7.360  1.1535  0.4632 -0.0613
   6123SM   C15 7742   3.470   3.364   7.507 -0.6796  0.3623 -0.3659
   6123SM  H15A 7743   3.470   3.259   7.533 -0.9422  0.4268 -0.0974
   6123SM  H15B 7744   3.381   3.392   7.561 -0.9743  1.1792 -1.2446
   6123SM  H15C 7745   3.553   3.413   7.557 -2.8599  2.9771  0.9366
   6123SM   C14 7746   3.496   3.533   7.340  0.6059  0.8602 -0.0074
   6123SM  H14A 7747   3.594   3.558   7.377  0.9062  0.5625 -0.5895
   6123SM  H14B 7748   3.422   3.592   7.392 -0.8059 -2.3221  1.8269
   6123SM  H14C 7749   3.490   3.553   7.234 -0.5849  0.9228  0.0537
   6123SM   C13 7750   3.596   3.321   7.310 -0.1720 -0.3640 -0.2430
   6123SM  H13A 7751   3.597   3.219   7.344  0.2399 -0.0391  0.7807
   6123SM  H13B 7752   3.683   3.368   7.353  0.0527 -0.5642 -0.4767
   6123SM  H13C 7753   3.599   3.320   7.202  0.0044  0.7343 -0.2654
   6123SM   C12 7754   3.345   3.349   7.280 -0.2027  0.0879  0.0867
   6123SM  H12A 7755   3.328   3.242   7.287  0.3261 -0.0834 -1.0311
   6123SM  H12B 7756   3.351   3.369   7.174 -1.7110 -0.9151 -0.2131
   6123SM   C11 7757   3.212   3.414   7.324  0.0212 -0.2765  0.0068
   6123SM  H11A 7758   3.215   3.390   7.432  1.1497 -0.3161 -0.0226
   6123SM  H11B 7759   3.133   3.356   7.271 -1.6521  0.2531  1.8372
   6123SM     P 7760   3.194   3.602   7.139  0.2997 -0.3655 -0.6487
   6123SM   O13 7761   3.055   3.632   7.108 -0.1350 -0.0118  0.4625
   6123SM   O14 7762   3.281   3.719   7.140  0.2327 -0.6152 -0.1956
   6123SM   O11 7763   3.239   3.481   7.047  0.8628  0.2958 -0.0128
   6123SM   O12 7764   3.202   3.551   7.294  0.7753  0.4849  0.4204
   6123SM   C1S 7765   3.160   3.395   6.969  0.6537 -0.5518  0.2262
   6123SM   H1S 7766   3.050   3.400   6.985  0.5727  0.9390 -0.6251
   6123SM   H1T 7767   3.195   3.291   6.987 -0.2074 -1.2339 -1.8181
   6123SM    NF 7768   3.093   3.314   6.742  0.5947  0.4786  0.5882
   6123SM   HNF 7769   3.146   3.248   6.690 -0.1451  0.8826 -0.7188
   6123SM   C2S 7770   3.181   3.408   6.811  0.0266 -0.2828  0.0859
   6123SM   H2S 7771   3.160   3.512   6.777 -0.1468 -0.3025  0.1328
   6123SM   C3S 7772   3.326   3.397   6.767 -0.4143  0.0809  0.1072
   6123SM   H3S 7773   3.367   3.295   6.779 -0.1038  0.3092  1.1023
   6123SM    O3 7774   3.423   3.468   6.847  0.3994  0.0961  0.7767
   6123SM   HO3 7775   3.376   3.504   6.923  0.0862 -2.6056  1.9753
   6123SM   C4S 7776   3.349   3.445   6.617 -0.2928 -0.5178 -0.3658
   6123SM   H4S 7777   3.284   3.388   6.548 -1.7971  2.5403 -1.7066
   6123SM   C5S 7778   3.399   3.563   6.566 -0.4074 -0.0401  0.5176
   6123SM   H5S 7779   3.430   3.641   6.637  0.6723  0.7941 -0.8433
   6123SM   C6S 7780   3.411   3.598   6.422  0.4975 -0.4301 -0.5499
   6123SM   H6S 7781   3.499   3.666   6.409 -0.2210  1.4093  2.9508
   6123SM   H6T 7782   3.331   3.671   6.397  2.7021  2.4098  0.1434
   6123SM   C7S 7783   3.400   3.490   6.318  0.5129  0.1985  0.6913
   6123SM   H7S 7784   3.307   3.434   6.340  0.7974  0.0041  1.4407
   6123SM   H7T 7785   3.491   3.426   6.324  0.4153 -0.3234 -2.1493
   6123SM   C8S 7786   3.391   3.546   6.173  0.0725 -0.7780 -0.4673
   6123SM   H8S 7787   3.479   3.613   6.165 -0.5270  0.2686  1.0818
   6123SM   H8T 7788   3.306   3.615   6.156  2.2653  2.1832 -0.2241
   6123SM   C9S 7789   3.394   3.439   6.068 -0.6134  0.1995  0.0283
   6123SM   H9S 7790   3.297   3.387   6.060 -0.2770 -0.2615 -1.5436
   6123SM   H9T 7791   3.480   3.376   6.098  0.9855  3.0765  2.0427
   6123SM  C10S 7792   3.417   3.501   5.929  0.4430 -0.2211  0.6657
   6123SM  H10S 7793   3.522   3.533   5.910 -0.2743  0.9366 -1.7249
   6123SM  H10T 7794   3.360   3.596   5.930 -0.7452 -0.8686 -0.8692
   6123SM  C11S 7795   3.374   3.406   5.811 -0.3755  0.1686  0.9494
   6123SM  H11S 7796   3.333   3.467   5.728  1.7706  0.4773  0.0341
   6123SM  H11T 7797   3.297   3.327   5.823 -1.1407  1.0384  1.9339
   6123SM  C12S 7798   3.494   3.330   5.749  0.1905  0.2640 -0.5762
   6123SM  H12S 7799   3.551   3.294   5.837 -0.4527  0.4544 -0.0721
   6123SM  H12T 7800   3.555   3.401   5.689 -0.5290  2.5569  1.2542
   6123SM  C13S 7801   3.458   3.213   5.670 -0.2622  0.5040  0.2381
   6123SM  H13S 7802   3.410   3.134   5.731 -0.5054 -0.8395 -1.5921
   6123SM  H13T 7803   3.557   3.182   5.632 -0.1648  2.1904 -1.0704
   6123SM  C14S 7804   3.372   3.238   5.555  0.4169  0.8252 -0.5311
   6123SM  H14S 7805   3.421   3.315   5.492 -0.2644  0.9306 -0.9473
   6123SM  H14T 7806   3.270   3.275   5.581 -0.0708 -0.4719 -0.5303
   6123SM  C15S 7807   3.353   3.108   5.466 -0.7100  0.0623 -0.2022
   6123SM  H15S 7808   3.292   3.042   5.530 -0.4131  1.6300  1.7758
   6123SM  H15T 7809   3.453   3.074   5.432 -1.1168  0.2199 -1.6337
   6123SM  C16S 7810   3.269   3.125   5.335  0.6299 -0.4887  0.1850
   6123SM  H16S 7811   3.176   3.180   5.358  2.4439  2.6404  0.6221
   6123SM  H16T 7812   3.244   3.029   5.285 -2.3406  0.3639 -0.0931
   6123SM  C17S 7813   3.348   3.204   5.233 -0.7732 -0.0871  0.6907
   6123SM  H17S 7814   3.439   3.146   5.208 -1.2416 -1.2465  1.5670
   6123SM  H17T 7815   3.370   3.308   5.265 -2.8757  0.7725 -0.4847
   6123SM  C18S 7816   3.274   3.220   5.102  0.2492  0.1784 -0.0583
   6123SM  H18S 7817   3.223   3.123   5.081 -1.8673  1.1730  0.1943
   6123SM  H18T 7818   3.334   3.251   5.014  1.4752 -0.9519  0.3470
   6123SM  H18U 7819   3.190   3.291   5.120 -0.5397 -1.3044  2.7793
   6123SM   C1F 7820   2.961   3.312   6.737 -1.0376 -0.0336  0.5766
   6123SM    OF 7821   2.889   3.395   6.792  0.2866 -0.4933  0.2316
   6123SM   C2F 7822   2.903   3.196   6.663  0.3412 -0.2721 -0.2642
   6123SM   H2F 7823   2.852   3.133   6.739 -0.1868  0.2276 -0.1923
   6123SM   H2G 7824   2.991   3.142   6.622 -0.0882 -0.2935 -1.1726
   6123SM   C3F 7825   2.802   3.231   6.558  0.5525 -0.4210 -0.2950
   6123SM   H3F 7826   2.850   3.297   6.482 -1.6101  0.0165 -1.3534
   6123SM   H3G 7827   2.727   3.296   6.608  0.3200 -0.1583 -0.9792
   6123SM   C4F 7828   2.756   3.108   6.486 -0.2039 -0.1256  0.1633
   6123SM   H4F 7829   2.684   3.044   6.542  0.5765 -1.5451 -0.4300
   6123SM   H4G 7830   2.842   3.042   6.463  0.7409  0.8365  0.8175
   6123SM   C5F 7831   2.688   3.138   6.351 -0.2940  0.0694 -0.2770
   6123SM   H5F 7832   2.747   3.212   6.292  1.5308 -0.4110  0.8920
   6123SM   H5G 7833   2.588   3.187   6.355 -0.1833  0.2680  0.0602
   6123SM   C6F 7834   2.657   3.008   6.275 -0.3204  1.2758  0.0481
   6123SM   H6F 7835   2.591   2.934   6.323  0.8327  0.3230  0.2166
   6123SM   H6G 7836   2.755   2.959   6.256 -0.7966 -0.2018  1.2798
   6123SM   C7F 7837   2.606   3.032   6.134 -0.3538  0.5818 -0.0114
   6123SM   H7F 7838   2.676   3.103   6.086  0.3074  0.2804  0.5051
   6123SM   H7G 7839   2.506   3.078   6.148  0.1081  1.1099  1.7432
   6123SM   C8F 7840   2.587   2.910   6.053 -0.4762 -0.2226 -0.7603
   6123SM   H8F 7841   2.536   2.834   6.116  0.5816  0.5723  1.1321
   6123SM   H8G 7842   2.684   2.872   6.015 -1.0535  0.7475 -3.4188
   6123SM   C9F 7843   2.501   2.938   5.934 -0.1669  0.1702 -0.9666
   6123SM   H9F 7844   2.560   3.002   5.865 -0.5495  2.0678  0.3842
   6123SM   H9G 7845   2.413   3.003   5.956 -1.3924 -0.8425 -2.6066
   6123SM  C10F 7846   2.447   2.809   5.869  0.2453  0.1450  0.1622
   6123SM  H10F 7847   2.368   2.767   5.933 -0.4460  1.3794  0.1484
   6123SM  H10G 7848   2.535   2.742   5.858 -0.2637 -0.8854  1.9350
   6123SM  C11F 7849   2.387   2.850   5.733  0.2392 -0.3010  0.1742
   6123SM  H11F 7850   2.475   2.887   5.675  0.8081 -1.2183  0.4406
   6123SM  H11G 7851   2.318   2.934   5.754 -1.0690 -1.5489  1.0033
   6123SM  C12F 7852   2.323   2.733   5.671 -0.4133  0.4969  0.5993
   6123SM  H12F 7853   2.409   2.671   5.638 -0.4767  0.5030  0.4208
   6123SM  H12G 7854   2.274   2.767   5.577 -1.3093 -3.1924 -0.4427
   6123SM  C13F 7855   2.226   2.648   5.754  0.4877 -0.0460  1.0010
   6123SM  H13F 7856   2.147   2.714   5.797  0.3027  1.7174 -1.7686
   6123SM  H13G 7857   2.276   2.599   5.840  0.4506 -0.9558  0.5170
   6123SM  C14F 7858   2.149   2.539   5.678  0.0588 -0.3157  0.6986
   6123SM  H14F 7859   2.092   2.587   5.596  1.1834  1.3259  0.8347
   6123SM  H14G 7860   2.071   2.497   5.744  0.3357 -1.1456  0.5092
   6123SM  C15F 7861   2.226   2.426   5.614  0.0074  0.8193  0.1909
   6123SM  H15F 7862   2.214   2.332   5.673  1.5653  0.4491 -0.0348
   6123SM  H15G 7863   2.334   2.454   5.613  0.1563  0.6127 -3.1580
   6123SM  C16F 7864   2.183   2.400   5.471  0.0158  0.0691  1.1895
   6123SM  H16F 7865   2.072   2.400   5.460  0.0655  2.2277  0.0882
   6123SM  H16G 7866   2.223   2.310   5.422 -0.0844  1.6469 -2.0577
   6123SM  C17F 7867   2.223   2.513   5.374  0.2454 -0.2842  0.1282
   6123SM  H17F 7868   2.331   2.535   5.389  0.3841  0.3805 -1.5607
   6123SM  H17G 7869   2.178   2.608   5.410  0.3486 -0.4879  0.8068
   6123SM  C18F 7870   2.200   2.488   5.220  0.1162  0.2516  0.4466
   6123SM  H18F 7871   2.194   2.584   5.164  2.0923  0.0418 -0.2096
   6123SM  H18G 7872   2.103   2.435   5.205  0.7341 -0.2421 -2.3235
   6123SM  C19F 7873   2.321   2.410   5.148  0.2753  0.5576 -0.5784
   6123SM  H19F 7874   2.336   2.312   5.197 -1.4253  1.1670  1.2934
   6123SM  H19G 7875   2.411   2.473   5.164  1.0907 -1.2306  2.5526
   6123SM  C20F 7876   2.298   2.397   4.995  1.1728  0.3973 -0.3482
   6123SM  H20F 7877   2.196   2.363   4.969  0.9817  0.2346  0.5984
   6123SM  H20G 7878   2.372   2.324   4.956 -0.2013 -0.6431 -1.0981
   6123SM  C21F 7879   2.331   2.527   4.914 -0.0670  0.0688  0.5032
   6123SM  H21F 7880   2.441   2.542   4.920 -0.1502  1.0286 -0.2957
   6123SM  H21G 7881   2.288   2.609   4.976 -2.2426 -1.2105  0.7914
   6123SM  C22F 7882   2.279   2.531   4.770  0.2456  0.3947  0.1081
   6123SM  H22F 7883   2.312   2.444   4.708  0.7432  1.7293 -1.5730
   6123SM  H22G 7884   2.324   2.624   4.730 -1.5900  2.0907  1.7820
   6123SM  C23F 7885   2.118   2.533   4.758 -0.9422 -0.4252 -0.0983
   6123SM  H23F 7886   2.074   2.467   4.835  0.3878  0.0881  1.1463
   6123SM  H23G 7887   2.076   2.509   4.658  0.4677 -1.7838 -0.4073
   6123SM  H23H 7888   2.091   2.634   4.794 -0.8099 -0.6557  0.6586
   6223SM     N 7889   2.828   3.005   7.099  0.0646 -0.9260  0.2762
   6223SM   C15 7890   2.899   3.068   6.981  0.0164 -0.1525  0.7352
   6223SM  H15A 7891   2.954   3.003   6.915 -1.3638  0.1078 -0.7357
   6223SM  H15B 7892   2.967   3.147   7.008  2.7992 -0.9717 -3.0001
   6223SM  H15C 7893   2.826   3.123   6.924 -0.3758  0.5826  1.8958
   6223SM   C14 7894   2.781   3.118   7.179  0.0763 -0.1658 -0.0040
   6223SM  H14A 7895   2.739   3.089   7.273 -0.4417 -2.8753 -1.0028
   6223SM  H14B 7896   2.696   3.172   7.140  0.2912  1.3882  1.5309
   6223SM  H14C 7897   2.861   3.189   7.198 -0.4805  0.1084  1.3721
   6223SM   C13 7898   2.713   2.931   7.048  0.3568  0.7200  0.5841
   6223SM  H13A 7899   2.745   2.842   6.996 -0.5350  0.6059  0.2221
   6223SM  H13B 7900   2.652   2.995   6.986 -0.5129  0.4376  1.1250
   6223SM  H13C 7901   2.654   2.898   7.132  0.1460 -0.9428 -0.1734
   6223SM   C12 7902   2.935   2.930   7.173 -0.4540 -0.0949  0.6997
   6223SM  H12A 7903   2.975   2.854   7.107 -0.5690  1.3665 -1.1424
   6223SM  H12B 7904   2.899   2.877   7.260  2.4760 -1.1159  1.4194
   6223SM   C11 7905   3.057   3.017   7.224  0.0553 -0.6780 -0.3865
   6223SM  H11A 7906   3.103   2.952   7.301  0.5849  0.0224 -0.1016
   6223SM  H11B 7907   3.029   3.116   7.267  0.2431 -0.5882 -0.4662
   6223SM     P 7908   3.294   2.993   7.113  0.1541 -0.0239 -0.2154
   6223SM   O13 7909   3.374   3.075   7.209  0.5987  0.8948 -0.3875
   6223SM   O14 7910   3.288   2.850   7.146  0.1586  0.1967 -0.2574
   6223SM   O11 7911   3.340   3.020   6.968  0.2952  0.3065  0.3885
   6223SM   O12 7912   3.148   3.050   7.118  0.0427  0.1891 -0.8848
   6223SM   C1S 7913   3.261   2.988   6.853  0.1157 -0.1648  0.4062
   6223SM   H1S 7914   3.196   3.072   6.819  1.2364  0.3230 -0.5819
   6223SM   H1T 7915   3.193   2.902   6.875 -1.8792  1.1750 -0.2420
   6223SM    NF 7916   3.286   2.941   6.618  0.8877  0.1460  0.1375
   6223SM   HNF 7917   3.284   2.848   6.581  0.9747 -1.1451  3.0758
   6223SM   C2S 7918   3.353   2.948   6.741 -0.4625  0.3671 -0.2147
   6223SM   H2S 7919   3.438   3.019   6.745 -0.6916  0.7038 -1.0247
   6223SM   C3S 7920   3.434   2.819   6.777  0.1099  0.5890  0.2905
   6223SM   H3S 7921   3.353   2.745   6.792  0.6794  0.3735  2.5515
   6223SM    O3 7922   3.493   2.821   6.904 -0.4530  0.5448 -0.3080
   6223SM   HO3 7923   3.447   2.898   6.938  0.6212  1.2732 -0.4619
   6223SM   C4S 7924   3.534   2.770   6.670 -0.8293  0.0979 -0.2973
   6223SM   H4S 7925   3.490   2.713   6.587  0.0064  1.2940 -1.6168
   6223SM   C5S 7926   3.662   2.803   6.643 -0.1883  0.0722  0.0593
   6223SM   H5S 7927   3.708   2.874   6.712  1.1711 -0.7838  0.0667
   6223SM   C6S 7928   3.735   2.781   6.509 -0.6395 -0.5407 -0.3651
   6223SM   H6S 7929   3.819   2.711   6.526 -2.1787 -2.4412 -0.2793
   6223SM   H6T 7930   3.766   2.879   6.467  0.7605 -1.1457 -0.7981
   6223SM   C7S 7931   3.660   2.702   6.398 -0.3513 -0.4452  0.3028
   6223SM   H7S 7932   3.572   2.765   6.372  1.4715  1.5528 -1.5368
   6223SM   H7T 7933   3.642   2.600   6.437  1.8934 -1.0794 -0.1619
   6223SM   C8S 7934   3.755   2.685   6.276 -0.3532  0.2176  0.8525
   6223SM   H8S 7935   3.857   2.657   6.311  0.5789  0.3147 -1.6120
   6223SM   H8T 7936   3.757   2.781   6.221  0.8183 -0.1099  0.2964
   6223SM   C9S 7937   3.724   2.574   6.170  0.4176  0.4919 -0.6325
   6223SM   H9S 7938   3.620   2.589   6.133  0.3787 -2.1761 -1.7907
   6223SM   H9T 7939   3.732   2.469   6.204  0.9454  0.1707 -1.6990
   6223SM  C10S 7940   3.812   2.596   6.049  0.8217  0.2936 -0.6036
   6223SM  H10S 7941   3.918   2.575   6.074  1.0055  0.2168 -1.4277
   6223SM  H10T 7942   3.805   2.702   6.018 -0.3755  0.3929 -0.0476
   6223SM  C11S 7943   3.759   2.517   5.930  0.3564  0.8051 -0.4357
   6223SM  H11S 7944   3.651   2.532   5.911 -0.2139 -1.2584  0.8230
   6223SM  H11T 7945   3.781   2.409   5.949 -1.3247  0.5035 -0.0464
   6223SM  C12S 7946   3.832   2.561   5.806  0.5661  0.1172  0.7035
   6223SM  H12S 7947   3.941   2.563   5.827  0.6012  0.5811  0.4814
   6223SM  H12T 7948   3.811   2.665   5.774 -1.5054 -0.6171 -0.5283
   6223SM  C13S 7949   3.801   2.464   5.685 -0.1277  0.3788 -0.1075
   6223SM  H13S 7950   3.707   2.498   5.635  0.4355  1.4929 -0.4495
   6223SM  H13T 7951   3.787   2.363   5.729 -2.3863  1.2665  1.4025
   6223SM  C14S 7952   3.909   2.459   5.578 -0.2482  0.8645  0.4424
   6223SM  H14S 7953   4.003   2.415   5.618 -0.1955 -0.3694 -0.9210
   6223SM  H14T 7954   3.925   2.566   5.554  0.8070  0.1652 -2.3726
   6223SM  C15S 7955   3.856   2.388   5.455  1.8031  0.0761  0.9731
   6223SM  H15S 7956   3.762   2.434   5.418  3.3364  1.6358 -1.2231
   6223SM  H15T 7957   3.831   2.282   5.480 -0.2817  0.7136  1.8028
   6223SM  C16S 7958   3.962   2.400   5.346 -0.1629  0.2206  0.7254
   6223SM  H16S 7959   4.051   2.351   5.391 -1.1619 -2.1439  0.2794
   6223SM  H16T 7960   3.983   2.507   5.325 -0.2049  0.3019  1.0904
   6223SM  C17S 7961   3.934   2.321   5.215  0.1970  0.1219 -0.6035
   6223SM  H17S 7962   3.838   2.362   5.176 -1.3962 -1.8315  0.9681
   6223SM  H17T 7963   3.912   2.216   5.247  1.2152  0.7011  2.3475
   6223SM  C18S 7964   4.042   2.332   5.112  0.4881 -0.1827 -0.0330
   6223SM  H18S 7965   4.130   2.283   5.158  0.5110  0.9232  1.1742
   6223SM  H18T 7966   4.055   2.438   5.082 -1.5843 -0.8945 -4.1352
   6223SM  H18U 7967   4.008   2.294   5.013 -1.7602  2.6111 -0.4628
   6223SM   C1F 7968   3.257   3.044   6.550  0.3200 -0.2609  0.0095
   6223SM    OF 7969   3.275   3.154   6.600  0.4649  0.0376  0.0534
   6223SM   C2F 7970   3.193   3.027   6.412  0.1991 -0.2763 -0.2818
   6223SM   H2F 7971   3.102   2.964   6.421  0.7829 -1.2762 -1.1707
   6223SM   H2G 7972   3.265   2.971   6.348 -0.3854 -0.1753 -1.0483
   6223SM   C3F 7973   3.169   3.168   6.354 -0.3808 -0.1926  0.1426
   6223SM   H3F 7974   3.269   3.204   6.321 -0.1923 -0.1553  0.7339
   6223SM   H3G 7975   3.117   3.240   6.420  1.3942 -0.1524  1.5695
   6223SM   C4F 7976   3.089   3.153   6.227  0.4256 -0.0368  0.4351
   6223SM   H4F 7977   3.095   3.257   6.188 -1.0843  0.0397  0.3613
   6223SM   H4G 7978   2.980   3.142   6.244  0.1677 -0.7369 -1.4465
   6223SM   C5F 7979   3.142   3.062   6.115 -0.1474 -0.2257 -0.1742
   6223SM   H5F 7980   3.115   2.960   6.150 -0.2926  0.3556  1.5111
   6223SM   H5G 7981   3.250   3.081   6.099 -0.0881 -1.8038 -2.0166
   6223SM   C6F 7982   3.070   3.070   5.982 -0.2325 -0.3220  0.0878
   6223SM   H6F 7983   2.967   3.029   5.990 -0.4119 -0.1559 -1.0654
   6223SM   H6G 7984   3.114   2.999   5.909 -0.7934 -3.6771  2.7977
   6223SM   C7F 7985   3.052   3.211   5.923  0.7730  0.1988 -0.6310
   6223SM   H7F 7986   3.144   3.268   5.950 -0.1239  0.5726  1.9201
   6223SM   H7G 7987   2.964   3.260   5.970 -0.0091 -2.9553  1.5853
   6223SM   C8F 7988   3.037   3.209   5.777 -0.4999 -0.4032  0.5985
   6223SM   H8F 7989   2.954   3.139   5.754 -0.7805  0.8683 -2.7466
   6223SM   H8G 7990   3.129   3.168   5.730 -1.0938 -2.0613  0.8171
   6223SM   C9F 7991   3.000   3.343   5.716 -0.1418 -0.5297 -0.3730
   6223SM   H9F 7992   3.099   3.392   5.706 -0.0950 -0.3332  0.8452
   6223SM   H9G 7993   2.933   3.379   5.797 -1.5120 -1.2781 -1.1373
   6223SM  C10F 7994   2.941   3.341   5.575 -0.7278 -0.0202 -0.5449
   6223SM  H10F 7995   2.853   3.274   5.568 -1.2553  0.4050  1.4821
   6223SM  H10G 7996   3.015   3.281   5.517 -2.2767 -1.7227 -0.8733
   6223SM  C11F 7997   2.909   3.477   5.511  0.3459 -0.3981  0.3154
   6223SM  H11F 7998   3.010   3.522   5.497  0.9947 -2.0416 -0.6114
   6223SM  H11G 7999   2.847   3.535   5.583 -0.2826 -2.0757  1.1737
   6223SM  C12F 8000   2.837   3.469   5.374 -0.1954 -0.7351  0.0361
   6223SM  H12F 8001   2.844   3.575   5.340 -0.8734 -0.3752  0.9628
   6223SM  H12G 8002   2.728   3.448   5.379 -0.7705  1.6768 -0.8515
   6223SM  C13F 8003   2.903   3.369   5.276  0.7550 -0.6981  0.0795
   6223SM  H13F 8004   2.871   3.275   5.326 -2.2546  1.4381  2.6370
   6223SM  H13G 8005   3.013   3.382   5.275  0.6816  0.0707  0.6121
   6223SM  C14F 8006   2.833   3.372   5.135  0.4352 -0.1154 -0.2127
   6223SM  H14F 8007   2.722   3.376   5.131  0.4036  2.7503  1.2044
   6223SM  H14G 8008   2.868   3.282   5.079  2.8438  0.9912 -0.6077
   6223SM  C15F 8009   2.883   3.483   5.048 -0.1178  0.1708 -0.2548
   6223SM  H15F 8010   2.993   3.491   5.059 -0.1672  0.6939 -0.0776
   6223SM  H15G 8011   2.841   3.581   5.081  0.5918 -0.1096  1.6292
   6223SM  C16F 8012   2.837   3.459   4.905 -0.5661  0.1504 -0.3756
   6223SM  H16F 8013   2.727   3.474   4.907 -0.8327 -1.2960 -1.5568
   6223SM  H16G 8014   2.876   3.356   4.890  0.5162  0.4417  0.3224
   6223SM  C17F 8015   2.901   3.559   4.808  0.0302  0.0858 -0.5291
   6223SM  H17F 8016   2.927   3.659   4.849 -0.6969  0.1496 -0.2041
   6223SM  H17G 8017   2.814   3.574   4.741 -0.9904 -2.6208  0.0574
   6223SM  C18F 8018   3.018   3.501   4.730  0.4315  0.0855  0.4085
   6223SM  H18F 8019   3.004   3.396   4.697 -0.7960 -0.6771  3.0342
   6223SM  H18G 8020   3.103   3.511   4.801 -0.5126  1.2697  1.4413
   6223SM  C19F 8021   3.054   3.576   4.604 -0.1623  0.4228  0.1287
   6223SM  H19F 8022   3.158   3.556   4.570 -0.7386 -2.0952 -0.3772
   6223SM  H19G 8023   3.050   3.687   4.610  0.8703  0.4719  0.0920
   6223SM  C20F 8024   2.974   3.521   4.480  0.3671 -0.0619 -0.1409
   6223SM  H20F 8025   2.876   3.494   4.526 -0.1097  2.0737  0.1967
   6223SM  H20G 8026   3.015   3.430   4.432 -0.2434  0.3012 -1.3989
   6223SM  C21F 8027   2.948   3.631   4.371  0.1372 -0.1822 -0.2738
   6223SM  H21F 8028   3.045   3.666   4.330 -0.7285  0.2864 -2.0174
   6223SM  H21G 8029   2.904   3.721   4.420 -1.1083  0.0344 -1.7142
   6223SM  C22F 8030   2.854   3.578   4.260 -0.5761  0.1813 -0.2190
   6223SM  H22F 8031   2.890   3.489   4.205  0.9077  0.4862  0.2045
   6223SM  H22G 8032   2.850   3.652   4.177 -1.0689  0.8867  0.4142
   6223SM  C23F 8033   2.710   3.568   4.316  0.4683  0.4611 -0.1138
   6223SM  H23F 8034   2.638   3.523   4.245  1.0707 -0.0395 -0.4119
   6223SM  H23G 8035   2.685   3.669   4.357  1.1094  0.5877 -0.0326
   6223SM  H23H 8036   2.706   3.494   4.399  0.3607 -0.8994 -1.2929
   6323SM     N 8037   4.295   4.985   7.425 -0.2037  0.4290 -0.2484
   6323SM   C15 8038   4.158   4.963   7.474 -0.3855  0.5043 -0.2762
   6323SM  H15A 8039   4.141   4.874   7.534  1.0874  0.3686 -0.0258
   6323SM  H15B 8040   4.080   4.974   7.400 -0.3046  0.6957 -0.3335
   6323SM  H15C 8041   4.132   5.042   7.543 -0.0102 -0.6596  1.2652
   6323SM   C14 8042   4.392   4.989   7.533 -0.5402  0.5188  0.5199
   6323SM  H14A 8043   4.377   5.070   7.603  1.0703  1.2068  0.0980
   6323SM  H14B 8044   4.488   5.009   7.489 -0.4022 -0.7360  0.2261
   6323SM  H14C 8045   4.396   4.896   7.587 -2.0127 -0.4844 -1.0037
   6323SM   C13 8046   4.340   4.878   7.322  0.4261 -0.0720 -0.9600
   6323SM  H13A 8047   4.258   4.871   7.252 -0.9430  0.0365  0.5813
   6323SM  H13B 8048   4.357   4.779   7.361  2.7839  0.7268  0.2928
   6323SM  H13C 8049   4.427   4.914   7.269  1.6567  0.0823  1.0678
   6323SM   C12 8050   4.300   5.119   7.355  0.5023 -0.0389 -0.1310
   6323SM  H12A 8051   4.268   5.199   7.420  0.4612 -0.6657  0.6456
   6323SM  H12B 8052   4.226   5.123   7.277 -1.1804 -2.1515  1.2031
   6323SM   C11 8053   4.434   5.166   7.287  0.1517  0.1978 -0.2638
   6323SM  H11A 8054   4.509   5.152   7.368  0.5340  1.8292 -0.3102
   6323SM  H11B 8055   4.432   5.277   7.281 -0.0660  0.2343  0.4138
   6323SM     P 8056   4.387   5.118   7.033 -0.0894 -0.0069  0.4289
   6323SM   O13 8057   4.421   4.999   6.957 -0.7170  0.1802  0.6415
   6323SM   O14 8058   4.245   5.160   7.046  0.5476 -0.3383 -0.4434
   6323SM   O11 8059   4.465   5.242   6.987 -0.4254  0.2134  0.3266
   6323SM   O12 8060   4.456   5.096   7.172 -0.1256  0.7792 -0.1377
   6323SM   C1S 8061   4.594   5.220   6.928  0.0545  0.5629 -0.2869
   6323SM   H1S 8062   4.634   5.118   6.947 -3.4995 -0.7457  0.9915
   6323SM   H1T 8063   4.665   5.293   6.972 -0.5461  0.2008  1.3375
   6323SM    NF 8064   4.740   5.237   6.726  0.2613  0.2029 -0.2208
   6323SM   HNF 8065   4.788   5.323   6.709  0.1145  0.7847  2.0547
   6323SM   C2S 8066   4.602   5.250   6.770 -0.5448 -0.0744  0.2977
   6323SM   H2S 8067   4.554   5.171   6.708  1.2857 -0.8179 -0.2234
   6323SM   C3S 8068   4.542   5.392   6.725 -0.2600  0.7980 -0.6159
   6323SM   H3S 8069   4.613   5.474   6.748  0.6856 -0.1609 -0.0869
   6323SM    O3 8070   4.420   5.423   6.795  0.1217 -0.1720  0.1150
   6323SM   HO3 8071   4.418   5.353   6.862  0.7313 -1.0236 -0.7327
   6323SM   C4S 8072   4.514   5.379   6.575  0.0789 -0.0897  0.1659
   6323SM   H4S 8073   4.431   5.311   6.549  0.5000  0.3789 -2.6514
   6323SM   C5S 8074   4.582   5.434   6.471  0.0814  0.3565 -0.1078
   6323SM   H5S 8075   4.669   5.497   6.495 -0.9725  1.6762  0.3993
   6323SM   C6S 8076   4.541   5.418   6.330 -0.6378  0.4612  0.2422
   6323SM   H6S 8077   4.616   5.351   6.282 -0.1175  0.7440  0.6432
   6323SM   H6T 8078   4.551   5.512   6.272 -0.0060  0.5204  0.4332
   6323SM   C7S 8079   4.398   5.365   6.300 -1.0845 -0.6277 -0.4859
   6323SM   H7S 8080   4.330   5.410   6.376  0.9369 -1.3755  1.8805
   6323SM   H7T 8081   4.403   5.261   6.340  1.8184 -0.2773  0.2427
   6323SM   C8S 8082   4.352   5.381   6.149 -0.1004 -0.2474  0.2720
   6323SM   H8S 8083   4.353   5.487   6.115 -1.6992 -0.0536  0.7493
   6323SM   H8T 8084   4.245   5.351   6.150 -0.1167 -0.3689  2.9575
   6323SM   C9S 8085   4.425   5.298   6.048 -0.1272 -0.3080 -0.2489
   6323SM   H9S 8086   4.449   5.199   6.093 -1.4211  0.0345  1.2901
   6323SM   H9T 8087   4.520   5.347   6.017 -0.6675  1.1209  0.2748
   6323SM  C10S 8088   4.335   5.274   5.926  0.6566  0.4564 -0.2953
   6323SM  H10S 8089   4.323   5.376   5.883  1.4088  0.9054  0.5120
   6323SM  H10T 8090   4.233   5.238   5.953 -0.2718  2.7037 -0.5667
   6323SM  C11S 8091   4.396   5.187   5.816 -0.1497 -0.0983  0.5486
   6323SM  H11S 8092   4.428   5.089   5.856 -2.2673 -1.1591 -0.1837
   6323SM  H11T 8093   4.481   5.243   5.771  0.0825 -1.2221 -0.4492
   6323SM  C12S 8094   4.285   5.158   5.710  0.3498 -0.3432 -0.3594
   6323SM  H12S 8095   4.234   5.251   5.679 -1.9187 -1.9172 -1.5789
   6323SM  H12T 8096   4.205   5.091   5.748 -1.0133  2.6310  2.4998
   6323SM  C13S 8097   4.326   5.096   5.575 -0.3371 -0.2452  0.3871
   6323SM  H13S 8098   4.355   4.990   5.590  0.0181  0.0882  2.2859
   6323SM  H13T 8099   4.413   5.154   5.540 -1.0879  0.1460 -0.8979
   6323SM  C14S 8100   4.225   5.092   5.470  1.2085 -0.4615 -0.6886
   6323SM  H14S 8101   4.200   5.196   5.441  3.0729  0.0905 -0.4722
   6323SM  H14T 8102   4.130   5.053   5.513  1.0855 -0.7279 -1.1947
   6323SM  C15S 8103   4.260   5.007   5.346  0.0706 -0.1144 -0.2867
   6323SM  H15S 8104   4.297   4.905   5.373  0.1167 -0.2096 -0.7042
   6323SM  H15T 8105   4.351   5.053   5.303  1.2218 -0.0005  2.1204
   6323SM  C16S 8106   4.143   4.991   5.245  0.9454 -0.0268 -0.2839
   6323SM  H16S 8107   4.088   5.085   5.221  0.2229 -0.3129  0.2035
   6323SM  H16T 8108   4.067   4.924   5.292  1.7467 -0.6500  0.1557
   6323SM  C17S 8109   4.193   4.926   5.116 -1.1529  0.4866  0.1620
   6323SM  H17S 8110   4.259   4.989   5.053  0.2786 -1.1534 -0.0350
   6323SM  H17T 8111   4.104   4.907   5.052  0.0514  0.7433 -1.6562
   6323SM  C18S 8112   4.263   4.791   5.150  0.1509 -0.1573  0.4363
   6323SM  H18S 8113   4.272   4.733   5.056 -2.6764 -2.4782  1.4656
   6323SM  H18T 8114   4.208   4.735   5.229 -0.8477  0.4312  0.1695
   6323SM  H18U 8115   4.363   4.803   5.197 -0.2046 -0.3251  1.2460
   6323SM   C1F 8116   4.811   5.133   6.722  0.9627 -0.1318  0.0960
   6323SM    OF 8117   4.756   5.027   6.750 -0.3180 -0.1634  0.3314
   6323SM   C2F 8118   4.953   5.141   6.682  0.0272  0.1327  0.3822
   6323SM   H2F 8119   4.999   5.040   6.686  1.2805  0.6834  0.5562
   6323SM   H2G 8120   5.008   5.204   6.755 -0.7250 -1.2327  2.1999
   6323SM   C3F 8121   4.986   5.180   6.534 -0.3749 -0.5446 -0.3489
   6323SM   H3F 8122   4.924   5.129   6.457  0.3893 -1.1109 -0.6081
   6323SM   H3G 8123   5.089   5.149   6.505 -0.5061  0.6066 -2.2517
   6323SM   C4F 8124   4.973   5.332   6.517 -0.6043 -0.6058 -0.3960
   6323SM   H4F 8125   5.053   5.383   6.575 -0.6637 -1.6717  0.6577
   6323SM   H4G 8126   4.879   5.357   6.570  0.1067 -0.6344  0.9364
   6323SM   C5F 8127   4.946   5.386   6.374  0.5578 -0.3197 -0.2819
   6323SM   H5F 8128   4.906   5.489   6.374 -0.2054 -0.5866 -1.7830
   6323SM   H5G 8129   4.882   5.320   6.311  1.7989 -0.0025 -1.9420
   6323SM   C6F 8130   5.076   5.389   6.286 -0.0398  0.2362 -0.1300
   6323SM   H6F 8131   5.111   5.290   6.250 -0.7569 -0.5739  1.2931
   6323SM   H6G 8132   5.157   5.424   6.354 -0.3887 -1.1278  1.0347
   6323SM   C7F 8133   5.067   5.474   6.163  0.6911 -0.1593  0.6036
   6323SM   H7F 8134   5.038   5.574   6.203  0.3367  0.6534 -1.5510
   6323SM   H7G 8135   4.989   5.440   6.092  2.3859  0.3969 -1.6521
   6323SM   C8F 8136   5.200   5.480   6.081 -0.1208  0.4903 -0.0231
   6323SM   H8F 8137   5.236   5.377   6.061  0.4383  0.9162 -1.3194
   6323SM   H8G 8138   5.275   5.528   6.148  0.0022  2.9730 -1.7741
   6323SM   C9F 8139   5.182   5.561   5.952  0.1592  0.0079  0.5496
   6323SM   H9F 8140   5.152   5.665   5.977 -0.3542 -0.6303  2.8302
   6323SM   H9G 8141   5.108   5.502   5.894  0.3932 -0.4266  0.6889
   6323SM  C10F 8142   5.309   5.567   5.869 -0.0401  0.3515  0.1288
   6323SM  H10F 8143   5.356   5.467   5.875 -0.4671  0.1992  1.1946
   6323SM  H10G 8144   5.377   5.635   5.925 -1.1595  2.0914 -0.5169
   6323SM  C11F 8145   5.284   5.611   5.722 -0.2218 -0.6145  0.2447
   6323SM  H11F 8146   5.248   5.716   5.731 -1.2676 -0.9818  0.5419
   6323SM  H11G 8147   5.196   5.552   5.689 -2.2034  1.0864  2.1155
   6323SM  C12F 8148   5.412   5.608   5.634  0.0046 -0.1000  0.2607
   6323SM  H12F 8149   5.490   5.672   5.682 -0.9440  1.2935 -0.0013
   6323SM  H12G 8150   5.393   5.647   5.532  0.0515  0.1718  0.3538
   6323SM  C13F 8151   5.466   5.462   5.621 -0.1185 -0.6199 -0.6812
   6323SM  H13F 8152   5.372   5.405   5.606  0.7358 -1.7424 -2.0186
   6323SM  H13G 8153   5.506   5.433   5.720  0.0377 -2.3382 -1.2107
   6323SM  C14F 8154   5.563   5.434   5.505  0.5859  0.5424 -0.5370
   6323SM  H14F 8155   5.654   5.375   5.528  0.3221 -0.0705 -1.0498
   6323SM  H14G 8156   5.605   5.521   5.450  2.0018  0.2776  0.0738
   6323SM  C15F 8157   5.495   5.339   5.405 -0.8606  0.4143 -0.1491
   6323SM  H15F 8158   5.428   5.259   5.443 -0.9174  1.6093  2.4683
   6323SM  H15G 8159   5.578   5.290   5.350  0.7865  1.4718  1.3073
   6323SM  C16F 8160   5.410   5.417   5.306  0.0696 -0.0090 -0.4455
   6323SM  H16F 8161   5.464   5.489   5.241 -1.0517 -0.1775 -1.6179
   6323SM  H16G 8162   5.333   5.465   5.370  1.2634 -0.5046  1.4343
   6323SM  C17F 8163   5.339   5.325   5.211  0.7700  0.5173 -0.0278
   6323SM  H17F 8164   5.265   5.393   5.163  0.5834  0.7592  0.5966
   6323SM  H17G 8165   5.287   5.241   5.262  0.4053  3.0063  4.0804
   6323SM  C18F 8166   5.424   5.267   5.101 -0.8299  0.0801  0.2339
   6323SM  H18F 8167   5.516   5.223   5.146 -0.2444 -0.0492 -1.0475
   6323SM  H18G 8168   5.458   5.348   5.033 -0.1180  0.6900  1.2928
   6323SM  C19F 8169   5.345   5.161   5.018  0.3702 -0.0314 -0.8223
   6323SM  H19F 8170   5.264   5.203   4.955 -0.7353 -0.4568  0.2639
   6323SM  H19G 8171   5.288   5.100   5.092  0.2406 -0.2643 -1.1139
   6323SM  C20F 8172   5.434   5.061   4.942  0.3596  0.3130 -0.1736
   6323SM  H20F 8173   5.504   5.121   4.880  1.5115 -0.7181  0.0667
   6323SM  H20G 8174   5.359   5.012   4.876  0.5921 -1.5716  0.8715
   6323SM  C21F 8175   5.493   4.948   5.031  0.7609  0.1978 -0.3152
   6323SM  H21F 8176   5.408   4.903   5.087 -0.3130  0.7816 -1.4143
   6323SM  H21G 8177   5.559   4.992   5.108  0.7347  0.6709 -0.5624
   6323SM  C22F 8178   5.587   4.853   4.958 -0.6403  0.1979  0.6824
   6323SM  H22F 8179   5.607   4.760   5.015  0.2290  0.5417  0.9478
   6323SM  H22G 8180   5.686   4.900   4.943 -1.0657  0.7625 -0.4779
   6323SM  C23F 8181   5.544   4.820   4.817  0.4423 -0.4103  0.0447
   6323SM  H23F 8182   5.530   4.912   4.757 -1.2316 -1.5244 -1.3933
   6323SM  H23G 8183   5.446   4.766   4.815  0.2736 -0.2607  1.8543
   6323SM  H23H 8184   5.612   4.748   4.768 -2.7128 -2.9439 -1.0007
   6423SM     N 8185   5.072   4.106   7.231 -0.3082 -0.0661  0.0329
   6423SM   C15 8186   5.085   4.055   7.086 -0.2328 -0.3794 -0.3017
   6423SM  H15A 8187   5.189   4.044   7.059  0.4433  3.2718  0.2333
   6423SM  H15B 8188   5.051   4.118   7.005 -4.5302 -2.0632 -0.0949
   6423SM  H15C 8189   5.040   3.958   7.073  0.1814 -0.4694 -1.0723
   6423SM   C14 8190   5.103   4.001   7.330  0.4945  0.6398 -0.5315
   6423SM  H14A 8191   5.126   4.041   7.427  2.3085 -0.2699 -0.5487
   6423SM  H14B 8192   5.194   3.950   7.301  0.4839  0.5203 -0.3559
   6423SM  H14C 8193   5.024   3.928   7.345  0.7707  0.6227  1.0268
   6423SM   C13 8194   5.159   4.225   7.262 -0.4687  0.1437  0.0883
   6423SM  H13A 8195   5.121   4.308   7.204  0.6634  1.2599  0.8827
   6423SM  H13B 8196   5.262   4.206   7.233 -1.1208 -0.8616 -1.7544
   6423SM  H13C 8197   5.152   4.249   7.367 -1.3697 -1.0449  0.3220
   6423SM   C12 8198   4.928   4.144   7.251 -0.3082 -0.5130  0.7753
   6423SM  H12A 8199   4.918   4.147   7.359 -0.0457 -1.4341  0.8290
   6423SM  H12B 8200   4.866   4.061   7.222 -0.5793 -0.3277  0.8121
   6423SM   C11 8201   4.880   4.264   7.169  0.1895  0.0255 -0.3821
   6423SM  H11A 8202   4.955   4.346   7.170 -0.1600  0.3551  0.9945
   6423SM  H11B 8203   4.789   4.300   7.221 -1.0452 -0.0033 -2.4474
   6423SM     P 8204   4.716   4.188   6.988  0.2896  0.3222  0.4333
   6423SM   O13 8205   4.730   4.132   6.848 -0.2496 -0.6288  0.1043
   6423SM   O14 8206   4.652   4.096   7.090  0.3781  0.1870  0.0756
   6423SM   O11 8207   4.636   4.318   6.980 -0.3080 -0.7019  0.2152
   6423SM   O12 8208   4.858   4.223   7.037  0.0661  0.1028 -0.2120
   6423SM   C1S 8209   4.682   4.447   6.924 -0.5283 -0.0923 -0.3283
   6423SM   H1S 8210   4.793   4.451   6.913 -0.5505  1.1128 -0.2355
   6423SM   H1T 8211   4.663   4.536   6.988 -1.0521  1.8703 -3.0776
   6423SM    NF 8212   4.674   4.584   6.715  0.0713 -0.4514 -0.2037
   6423SM   HNF 8213   4.625   4.671   6.717 -0.1856 -0.6019  0.2078
   6423SM   C2S 8214   4.612   4.475   6.788  0.3286 -0.6116  0.3192
   6423SM   H2S 8215   4.641   4.388   6.725  2.7310  2.0830 -2.6205
   6423SM   C3S 8216   4.456   4.487   6.806  0.8323  0.3571  0.0328
   6423SM   H3S 8217   4.431   4.588   6.846  1.8798  1.1050 -1.1194
   6423SM    O3 8218   4.399   4.382   6.893  0.0350 -0.9984  0.3845
   6423SM   HO3 8219   4.473   4.326   6.920 -0.7411 -1.3977  1.7947
   6423SM   C4S 8220   4.385   4.474   6.673 -0.0318 -0.6015 -0.0975
   6423SM   H4S 8221   4.400   4.374   6.630  1.2407 -0.1167 -0.8379
   6423SM   C5S 8222   4.295   4.560   6.619 -0.3242 -0.0320 -0.0752
   6423SM   H5S 8223   4.269   4.648   6.681  0.0147  0.6960 -0.9396
   6423SM   C6S 8224   4.220   4.534   6.492 -0.6687  0.3057  0.9351
   6423SM   H6S 8225   4.243   4.610   6.415 -3.1253  0.8276  0.6148
   6423SM   H6T 8226   4.109   4.538   6.507 -1.4693 -2.9112 -2.5932
   6423SM   C7S 8227   4.238   4.393   6.423  0.6211  0.1517  0.3357
   6423SM   H7S 8228   4.195   4.310   6.483 -2.1279  1.6388  0.6199
   6423SM   H7T 8229   4.344   4.376   6.394 -0.3185 -2.7192 -1.9085
   6423SM   C8S 8230   4.148   4.393   6.299 -0.0056  0.1822  0.2538
   6423SM   H8S 8231   4.174   4.485   6.243  0.9427 -0.1284  0.1712
   6423SM   H8T 8232   4.040   4.389   6.324  0.1664  1.2342  1.2318
   6423SM   C9S 8233   4.178   4.283   6.201  0.1723 -0.3177 -0.0811
   6423SM   H9S 8234   4.152   4.185   6.245 -0.5236  0.3134  0.9498
   6423SM   H9T 8235   4.284   4.274   6.167  0.0039  0.7810 -0.9454
   6423SM  C10S 8236   4.087   4.304   6.078 -0.1763 -0.5028 -0.4097
   6423SM  H10S 8237   4.116   4.396   6.022  1.8558 -0.8853 -0.0605
   6423SM  H10T 8238   3.987   4.336   6.116  0.5026  1.2247  0.0226
   6423SM  C11S 8239   4.069   4.186   5.982  0.3173  0.0820  0.0270
   6423SM  H11S 8240   4.002   4.220   5.900 -1.0537 -0.2478  0.9557
   6423SM  H11T 8241   4.036   4.102   6.047  0.1626  0.2344  0.1470
   6423SM  C12S 8242   4.203   4.137   5.925  0.0616 -0.6663 -0.2220
   6423SM  H12S 8243   4.279   4.119   6.004  0.9239 -1.0538 -1.1157
   6423SM  H12T 8244   4.240   4.220   5.861 -2.7686 -0.0104 -1.1938
   6423SM  C13S 8245   4.196   4.008   5.834  0.4689  0.1521  0.0247
   6423SM  H13S 8246   4.138   3.934   5.894 -0.6921  0.5016 -0.6473
   6423SM  H13T 8247   4.296   3.972   5.800  0.5136  0.8003 -0.5381
   6423SM  C14S 8248   4.130   4.037   5.697  0.3563  0.9627  0.1779
   6423SM  H14S 8249   4.185   4.116   5.640  0.9257  0.2002 -0.3526
   6423SM  H14T 8250   4.026   4.069   5.720  0.1653 -0.0696  0.7874
   6423SM  C15S 8251   4.112   3.906   5.615 -0.1244  0.0070  0.5706
   6423SM  H15S 8252   4.057   3.834   5.679  0.6929 -1.4349 -0.2650
   6423SM  H15T 8253   4.212   3.860   5.597 -1.4518 -2.6989 -0.4936
   6423SM  C16S 8254   4.062   3.925   5.471  0.4257  0.2688 -0.3200
   6423SM  H16S 8255   4.133   3.983   5.409 -0.4601 -0.7694 -2.4113
   6423SM  H16T 8256   3.969   3.984   5.486 -1.5889 -3.0264  1.3129
   6423SM  C17S 8257   4.050   3.800   5.387  0.0958 -0.2954  0.0686
   6423SM  H17S 8258   3.983   3.811   5.299  1.0988 -0.1528 -0.6970
   6423SM  H17T 8259   4.005   3.722   5.452 -2.1587  0.2529 -0.7621
   6423SM  C18S 8260   4.186   3.757   5.336  0.3787  0.2733 -0.1392
   6423SM  H18S 8261   4.221   3.809   5.244  0.4733 -2.1574 -1.5686
   6423SM  H18T 8262   4.176   3.654   5.296  0.5818  0.0703  0.3337
   6423SM  H18U 8263   4.271   3.761   5.407  1.4448 -1.2474 -1.2575
   6423SM   C1F 8264   4.804   4.586   6.677  0.7104  0.3857 -0.1222
   6423SM    OF 8265   4.866   4.480   6.676  0.3368 -0.3367 -0.2729
   6423SM   C2F 8266   4.864   4.711   6.623 -0.0233  0.5828  0.0260
   6423SM   H2F 8267   4.913   4.765   6.707 -0.6417  2.6084 -0.8698
   6423SM   H2G 8268   4.787   4.784   6.589 -0.1567  0.0149 -0.9299
   6423SM   C3F 8269   4.962   4.684   6.501  0.5597  0.3175 -0.1967
   6423SM   H3F 8270   4.897   4.624   6.434 -1.1679  0.4597  1.2822
   6423SM   H3G 8271   5.049   4.627   6.540  0.5330  0.4334  0.0331
   6423SM   C4F 8272   5.002   4.813   6.431  0.3404  0.6724  0.3794
   6423SM   H4F 8273   5.054   4.882   6.502  1.3950  0.7566 -0.4535
   6423SM   H4G 8274   4.908   4.868   6.408  0.3561  1.6416  2.4143
   6423SM   C5F 8275   5.077   4.773   6.301  0.4676 -0.4385  0.4202
   6423SM   H5F 8276   5.027   4.690   6.247  0.9452  0.8558 -2.1676
   6423SM   H5G 8277   5.177   4.735   6.330  0.9197  0.1880 -0.2679
   6423SM   C6F 8278   5.092   4.880   6.194 -0.1143 -0.1051 -0.4424
   6423SM   H6F 8279   5.138   4.830   6.106  0.3973  2.3448 -1.6573
   6423SM   H6G 8280   5.170   4.955   6.219  1.2721 -1.8173  0.5625
   6423SM   C7F 8281   4.968   4.952   6.152 -0.2534 -0.4171 -0.7070
   6423SM   H7F 8282   4.938   5.009   6.243 -0.2452 -0.6849 -0.5373
   6423SM   H7G 8283   4.891   4.879   6.119 -2.8460  1.9306 -0.2923
   6423SM   C8F 8284   4.996   5.046   6.030 -0.1196  0.0571 -0.5545
   6423SM   H8F 8285   5.038   4.988   5.946  2.3738  2.1623 -0.9101
   6423SM   H8G 8286   5.081   5.118   6.042 -1.4880  1.8731 -1.3224
   6423SM   C9F 8287   4.869   5.123   5.978 -0.2567 -0.2228  0.7393
   6423SM   H9F 8288   4.822   5.192   6.051 -0.1633  0.8852 -0.2211
   6423SM   H9G 8289   4.790   5.051   5.947  0.5889  0.0917 -2.5588
   6423SM  C10F 8290   4.915   5.205   5.851  0.1848 -0.3607 -0.8280
   6423SM  H10F 8291   5.009   5.166   5.806  1.1823  1.6848 -0.6422
   6423SM  H10G 8292   4.939   5.310   5.877  1.3237 -0.8833  0.3451
   6423SM  C11F 8293   4.816   5.208   5.734  0.2558  0.6164  0.1276
   6423SM  H11F 8294   4.717   5.242   5.772  0.4292  1.5537 -0.2314
   6423SM  H11G 8295   4.802   5.108   5.688  0.0873  1.0804 -0.8439
   6423SM  C12F 8296   4.877   5.300   5.628  0.3076 -0.6373 -0.1210
   6423SM  H12F 8297   4.975   5.272   5.584  1.3637  2.1550  0.2552
   6423SM  H12G 8298   4.906   5.397   5.673 -0.8410  0.1352 -1.0076
   6423SM  C13F 8299   4.767   5.338   5.538  0.1036 -0.1055  0.2634
   6423SM  H13F 8300   4.682   5.371   5.602  1.3200  1.4189  1.1891
   6423SM  H13G 8301   4.746   5.242   5.487  3.3948  0.0010 -1.5739
   6423SM  C14F 8302   4.792   5.453   5.443  0.9865  0.0048  0.3942
   6423SM  H14F 8303   4.898   5.453   5.409  1.6802 -0.5125  2.4259
   6423SM  H14G 8304   4.776   5.550   5.495  0.4919  1.0356 -1.5655
   6423SM  C15F 8305   4.692   5.450   5.329  1.0633 -0.6614  0.3322
   6423SM  H15F 8306   4.712   5.362   5.263 -0.9061 -0.9687  0.0803
   6423SM  H15G 8307   4.712   5.546   5.276 -1.9974  0.9090  1.7814
   6423SM  C16F 8308   4.540   5.457   5.367 -1.1829 -0.1268  0.1339
   6423SM  H16F 8309   4.516   5.540   5.437  0.9337  0.3994  0.3073
   6423SM  H16G 8310   4.521   5.365   5.426 -0.7180  0.6516  1.5385
   6423SM  C17F 8311   4.451   5.461   5.239  0.2687  0.0569  0.1731
   6423SM  H17F 8312   4.503   5.401   5.162  1.1113 -0.3202  1.0095
   6423SM  H17G 8313   4.453   5.563   5.194  1.1320 -0.2886 -0.5828
   6423SM  C18F 8314   4.315   5.404   5.270  0.4525 -0.0326 -0.2891
   6423SM  H18F 8315   4.266   5.460   5.352  0.0103 -0.3604 -0.3277
   6423SM  H18G 8316   4.311   5.297   5.297  1.3715 -0.5178 -1.9292
   6423SM  C19F 8317   4.223   5.422   5.148  1.7007 -0.4824  0.3003
   6423SM  H19F 8318   4.199   5.528   5.122  2.8927 -0.0508  0.8825
   6423SM  H19G 8319   4.132   5.360   5.164  1.6094 -0.3948  0.1243
   6423SM  C20F 8320   4.277   5.362   5.019  0.2705  0.1488  0.2486
   6423SM  H20F 8321   4.364   5.301   5.050  2.6361  2.6237 -1.0606
   6423SM  H20G 8322   4.303   5.444   4.949  0.0776  0.9730  1.1157
   6423SM  C21F 8323   4.176   5.277   4.940  0.3315 -0.2624  0.3353
   6423SM  H21F 8324   4.078   5.329   4.931  0.5690 -0.1016 -1.9824
   6423SM  H21G 8325   4.156   5.188   5.003  1.5638 -0.0174  1.0918
   6423SM  C22F 8326   4.229   5.243   4.802 -0.3099  0.1695  0.3851
   6423SM  H22F 8327   4.297   5.318   4.757 -1.0263  1.7251  1.7987
   6423SM  H22G 8328   4.148   5.238   4.727  0.8159  0.7572 -0.9127
   6423SM  C23F 8329   4.294   5.106   4.805 -0.0498 -0.4220 -0.1501
   6423SM  H23F 8330   4.219   5.033   4.844 -1.3210  1.1417  0.4540
   6423SM  H23G 8331   4.385   5.105   4.868 -0.8428 -3.0426  1.0759
   6423SM  H23H 8332   4.323   5.083   4.701 -0.7195  2.1332 -0.9703
   6523SM     N 8333   6.245   4.977   7.374  0.1201 -0.6175 -0.1043
   6523SM   C15 8334   6.267   5.121   7.346  0.2969 -0.1742  0.2357
   6523SM  H15A 8335   6.338   5.127   7.264 -0.5273  0.5072 -0.4529
   6523SM  H15B 8336   6.302   5.161   7.440 -0.7096  1.2153  0.0378
   6523SM  H15C 8337   6.182   5.182   7.320  1.3594  0.4657 -2.1044
   6523SM   C14 8338   6.386   4.932   7.400 -0.2530 -0.7720 -0.4553
   6523SM  H14A 8339   6.429   4.997   7.474 -1.9490  0.9178 -0.8759
   6523SM  H14B 8340   6.447   4.930   7.310  2.9477 -2.9586  1.5632
   6523SM  H14C 8341   6.390   4.827   7.423 -0.7142 -0.3077  1.9524
   6523SM   C13 8342   6.172   4.964   7.500  0.2001 -0.3142 -1.0863
   6523SM  H13A 8343   6.080   5.022   7.498  0.3179  0.1718  2.3297
   6523SM  H13B 8344   6.226   4.991   7.589  1.4940 -1.5213 -1.4753
   6523SM  H13C 8345   6.140   4.862   7.514  1.2640 -0.3816  1.3129
   6523SM   C12 8346   6.176   4.912   7.257 -0.7507 -0.2169  0.2486
   6523SM  H12A 8347   6.227   4.945   7.168  0.1783 -1.2121  0.3941
   6523SM  H12B 8348   6.073   4.944   7.247 -0.5554  0.2390 -0.3432
   6523SM   C11 8349   6.177   4.761   7.269  0.0311  0.1646  0.2691
   6523SM  H11A 8350   6.282   4.723   7.274 -0.4921 -1.5138 -0.6201
   6523SM  H11B 8351   6.137   4.714   7.176 -1.6811 -2.0322  1.9870
   6523SM     P 8352   5.945   4.702   7.378 -0.3815  0.4062 -0.0296
   6523SM   O13 8353   5.907   4.555   7.380 -0.4554 -0.3137  0.1768
   6523SM   O14 8354   5.884   4.777   7.490  0.5683 -0.1792  0.0433
   6523SM   O11 8355   5.900   4.766   7.243 -0.1525 -0.5604 -0.1354
   6523SM   O12 8356   6.099   4.726   7.382 -0.0423  0.7804 -0.4923
   6523SM   C1S 8357   5.862   4.688   7.130  0.2040  0.0284  0.6482
   6523SM   H1S 8358   5.781   4.613   7.142  0.7107 -0.7055 -0.3441
   6523SM   H1T 8359   5.953   4.635   7.093  0.2531  1.1573 -0.9509
   6523SM    NF 8360   5.804   4.710   6.886  0.2373 -0.0527  0.5481
   6523SM   HNF 8361   5.869   4.717   6.811  1.9239 -0.1332  1.9427
   6523SM   C2S 8362   5.828   4.783   7.012  0.7403 -0.6195 -0.6564
   6523SM   H2S 8363   5.734   4.835   7.041  1.0245 -0.9819  1.0221
   6523SM   C3S 8364   5.934   4.902   6.996  0.3903  0.2354 -0.4493
   6523SM   H3S 8365   6.037   4.861   6.999  0.3829  0.2525  1.0226
   6523SM    O3 8366   5.949   4.996   7.109  0.3959  0.4420 -0.4885
   6523SM   HO3 8367   5.893   4.958   7.178  0.6641  0.1694 -0.4182
   6523SM   C4S 8368   5.901   4.985   6.875 -0.3370  0.7490  0.5278
   6523SM   H4S 8369   5.803   5.034   6.867 -1.3522 -0.2429  4.5208
   6523SM   C5S 8370   5.991   5.000   6.775 -0.3050 -0.5651 -0.2497
   6523SM   H5S 8371   6.093   4.959   6.777  0.7176  1.8025  0.7641
   6523SM   C6S 8372   5.964   5.085   6.656 -0.7422 -0.6493 -0.1436
   6523SM   H6S 8373   6.051   5.152   6.638 -0.7433 -1.2041 -2.5530
   6523SM   H6T 8374   5.876   5.150   6.672 -1.4008 -1.6415  0.3668
   6523SM   C7S 8375   5.945   5.008   6.521  0.4760  0.2756  0.2664
   6523SM   H7S 8376   5.840   4.972   6.522  0.2869  0.8111  0.0513
   6523SM   H7T 8377   6.016   4.923   6.515  0.4808  0.1894  1.3207
   6523SM   C8S 8378   5.964   5.101   6.397 -0.0209 -0.1125 -0.4365
   6523SM   H8S 8379   6.053   5.165   6.414  0.4188 -1.2958  2.3006
   6523SM   H8T 8380   5.883   5.176   6.388  0.5055  0.4146 -0.8094
   6523SM   C9S 8381   5.969   5.026   6.262  0.4056 -0.3798 -0.1180
   6523SM   H9S 8382   5.875   4.966   6.262 -0.3497  0.7275  1.4970
   6523SM   H9T 8383   6.053   4.953   6.267 -0.4315 -1.2931  1.4947
   6523SM  C10S 8384   5.984   5.111   6.137 -0.0495 -0.0783  0.8461
   6523SM  H10S 8385   6.086   5.156   6.131 -0.5252  1.0239  0.7503
   6523SM  H10T 8386   5.912   5.195   6.141 -1.5669 -1.3919  2.7765
   6523SM  C11S 8387   5.953   5.036   6.002 -0.2094 -0.7199  0.8728
   6523SM  H11S 8388   5.857   4.980   6.003 -0.0419 -1.0324  0.3669
   6523SM  H11T 8389   6.027   4.953   5.996 -3.2788 -3.6191  0.0670
   6523SM  C12S 8390   5.970   5.122   5.875  0.2542 -0.3496  0.1636
   6523SM  H12S 8391   6.065   5.179   5.876  0.2615 -0.3529  0.9085
   6523SM  H12T 8392   5.878   5.184   5.878 -0.0390 -0.8030  2.2232
   6523SM  C13S 8393   5.949   5.044   5.745 -0.1102 -0.2323 -0.4014
   6523SM  H13S 8394   5.869   4.968   5.760 -0.5548  0.0843 -1.1108
   6523SM  H13T 8395   6.041   4.986   5.724  1.6040  1.6422  1.4543
   6523SM  C14S 8396   5.937   5.136   5.626  0.0438 -0.0031 -0.5541
   6523SM  H14S 8397   6.033   5.190   5.625  0.5682 -0.9162 -0.5522
   6523SM  H14T 8398   5.851   5.206   5.625  1.0363  1.2354 -0.7160
   6523SM  C15S 8399   5.926   5.060   5.498  0.2409  0.2590 -0.1600
   6523SM  H15S 8400   5.832   5.002   5.497  0.3677  0.0464  0.1786
   6523SM  H15T 8401   5.995   4.974   5.496  0.0941  0.0391  2.0499
   6523SM  C16S 8402   5.934   5.153   5.374  0.2379 -0.8602 -0.2881
   6523SM  H16S 8403   6.021   5.218   5.395  0.8613 -1.4689 -0.9563
   6523SM  H16T 8404   5.844   5.219   5.373  0.3222 -0.7534 -0.5779
   6523SM  C17S 8405   5.963   5.081   5.241 -0.3027  0.4695  0.2108
   6523SM  H17S 8406   6.041   5.003   5.244 -0.3117  0.3502 -1.6631
   6523SM  H17T 8407   5.995   5.157   5.167 -0.3317 -0.5006 -0.8117
   6523SM  C18S 8408   5.840   5.010   5.173 -0.3144 -0.3764 -0.2193
   6523SM  H18S 8409   5.854   4.961   5.074 -4.2581 -0.4051 -0.9284
   6523SM  H18T 8410   5.763   5.088   5.154 -0.0066 -0.1938 -0.7498
   6523SM  H18U 8411   5.807   4.932   5.245 -1.2258 -0.4093 -0.6593
   6523SM   C1F 8412   5.697   4.630   6.878  1.0116 -0.5345 -0.0583
   6523SM    OF 8413   5.619   4.614   6.976  0.6719 -0.0179 -0.0918
   6523SM   C2F 8414   5.677   4.561   6.748  0.0944 -0.1345  0.0685
   6523SM   H2F 8415   5.733   4.466   6.737 -0.5899 -0.4401 -0.8230
   6523SM   H2G 8416   5.703   4.638   6.673  2.5678  0.0493  1.0093
   6523SM   C3F 8417   5.523   4.528   6.733 -0.1188 -0.4008  0.1015
   6523SM   H3F 8418   5.470   4.624   6.752  1.0560  0.6794 -1.7352
   6523SM   H3G 8419   5.495   4.449   6.805 -2.3891  2.1422  2.2440
   6523SM   C4F 8420   5.487   4.490   6.583 -0.8111  0.1005  0.3763
   6523SM   H4F 8421   5.557   4.408   6.556  0.8182  1.4237  0.4331
   6523SM   H4G 8422   5.504   4.572   6.510  2.6228 -0.4610  0.3775
   6523SM   C5F 8423   5.346   4.446   6.573 -0.4248  0.5983 -0.1170
   6523SM   H5F 8424   5.274   4.519   6.615 -1.4634  0.6996 -1.9795
   6523SM   H5G 8425   5.326   4.352   6.629  0.3233  0.2567 -0.4063
   6523SM   C6F 8426   5.306   4.422   6.426 -0.2713  0.2896 -0.5849
   6523SM   H6F 8427   5.359   4.329   6.394 -1.4133 -0.4837 -0.2889
   6523SM   H6G 8428   5.340   4.505   6.360  0.2334 -0.0716 -0.7830
   6523SM   C7F 8429   5.154   4.410   6.404 -0.8030 -0.5404 -0.9334
   6523SM   H7F 8430   5.097   4.505   6.399  0.0908 -0.0409 -2.4452
   6523SM   H7G 8431   5.111   4.353   6.489 -2.6636  0.5613 -1.0742
   6523SM   C8F 8432   5.109   4.342   6.276  0.1181  0.0855 -0.4540
   6523SM   H8F 8433   4.998   4.337   6.267  0.1038  1.3880 -1.3032
   6523SM   H8G 8434   5.143   4.238   6.293  0.7676  0.3418 -0.1652
   6523SM   C9F 8435   5.166   4.417   6.152  0.4832 -0.3632  0.3426
   6523SM   H9F 8436   5.275   4.442   6.152  0.3786  0.1382 -0.4877
   6523SM   H9G 8437   5.116   4.517   6.154 -1.4821 -1.3119  0.4293
   6523SM  C10F 8438   5.141   4.364   6.014  0.1070 -0.7222 -0.0384
   6523SM  H10F 8439   5.043   4.311   6.013 -0.9732  1.1643  0.5448
   6523SM  H10G 8440   5.216   4.284   6.002 -0.1608 -1.3049  1.8460
   6523SM  C11F 8441   5.131   4.464   5.910  0.0198 -0.1165  0.3967
   6523SM  H11F 8442   5.212   4.540   5.908  0.7320 -0.8755  0.1224
   6523SM  H11G 8443   5.038   4.521   5.931 -0.9521 -1.1469 -0.9256
   6523SM  C12F 8444   5.123   4.405   5.767 -1.1629  0.5869  0.6999
   6523SM  H12F 8445   5.217   4.346   5.771 -1.6006 -0.0449  2.6233
   6523SM  H12G 8446   5.129   4.476   5.682 -0.3434 -1.2170 -0.8152
   6523SM  C13F 8447   5.011   4.299   5.735 -0.1722  0.0677  0.1204
   6523SM  H13F 8448   4.908   4.340   5.748  0.1764  1.4276 -1.1321
   6523SM  H13G 8449   5.034   4.223   5.813  0.4004  0.1711  0.0554
   6523SM  C14F 8450   5.021   4.241   5.594 -0.3349 -0.2965 -0.4290
   6523SM  H14F 8451   4.947   4.158   5.594 -0.1000 -0.5182  0.2159
   6523SM  H14G 8452   5.119   4.191   5.584  0.4052  0.8541  0.8051
   6523SM  C15F 8453   4.989   4.330   5.476  1.0100  0.4848 -0.1752
   6523SM  H15F 8454   5.033   4.286   5.384 -0.9581 -2.6885  0.2573
   6523SM  H15G 8455   5.041   4.427   5.495  2.1703 -0.0207 -0.6539
   6523SM  C16F 8456   4.839   4.365   5.460  0.0898 -0.1344 -0.0814
   6523SM  H16F 8457   4.792   4.398   5.556 -0.3763 -1.7861  0.2787
   6523SM  H16G 8458   4.789   4.275   5.420 -0.0176 -0.2785  0.3730
   6523SM  C17F 8459   4.836   4.483   5.360 -0.4967 -0.3251 -0.5017
   6523SM  H17F 8460   4.898   4.465   5.269 -0.6542  1.7597 -1.0840
   6523SM  H17G 8461   4.868   4.572   5.419 -3.1366 -1.3399  2.7733
   6523SM  C18F 8462   4.690   4.526   5.320 -0.6431 -0.4431 -0.2108
   6523SM  H18F 8463   4.700   4.622   5.267  1.3042 -0.1527  0.6165
   6523SM  H18G 8464   4.631   4.544   5.412  1.1740 -2.4082  1.4502
   6523SM  C19F 8465   4.630   4.440   5.207 -0.1130  0.5009 -0.2694
   6523SM  H19F 8466   4.528   4.477   5.183 -0.8405 -1.8145 -1.0024
   6523SM  H19G 8467   4.615   4.335   5.240  0.4113  0.4921 -0.0423
   6523SM  C20F 8468   4.716   4.423   5.085 -0.7067 -0.1810  0.5027
   6523SM  H20F 8469   4.789   4.343   5.107  0.9294  0.8001 -1.0420
   6523SM  H20G 8470   4.769   4.516   5.055 -0.4282 -0.6959 -0.6321
   6523SM  C21F 8471   4.626   4.383   4.968 -0.1912 -0.5617  0.0012
   6523SM  H21F 8472   4.551   4.464   4.957  1.3946  1.1076  1.0140
   6523SM  H21G 8473   4.564   4.297   5.004 -2.9151  1.2256 -0.1068
   6523SM  C22F 8474   4.699   4.350   4.832  0.5532  0.2497  0.5313
   6523SM  H22F 8475   4.790   4.299   4.870  0.7872  2.4265  3.1212
   6523SM  H22G 8476   4.733   4.447   4.789 -2.7969  1.1777 -0.2854
   6523SM  C23F 8477   4.622   4.256   4.746  0.2217  0.2746 -0.3282
   6523SM  H23F 8478   4.686   4.230   4.658  1.6213 -1.6155  1.1637
   6523SM  H23G 8479   4.531   4.312   4.715 -0.3764  1.5143  3.2572
   6523SM  H23H 8480   4.604   4.161   4.800 -2.3374 -0.0976 -1.6822
   6623SM     N 8481   4.472   2.245   7.456  0.6364  0.2729 -0.2890
   6623SM   C15 8482   4.588   2.152   7.426 -0.1370  0.1204 -0.0803
   6623SM  H15A 8483   4.682   2.205   7.421 -1.3474  2.2943 -3.8302
   6623SM  H15B 8484   4.567   2.101   7.334  1.0522  1.2424 -1.0140
   6623SM  H15C 8485   4.589   2.069   7.495 -0.8525 -1.2787 -1.6796
   6623SM   C14 8486   4.349   2.161   7.482 -0.5214  0.0289 -0.1485
   6623SM  H14A 8487   4.265   2.217   7.520 -0.9982 -0.2389 -0.8038
   6623SM  H14B 8488   4.371   2.095   7.565 -0.7392 -0.0654 -0.1658
   6623SM  H14C 8489   4.316   2.108   7.395 -1.7292  1.7839 -0.8059
   6623SM   C13 8490   4.514   2.315   7.588  0.0379 -0.3471  0.7153
   6623SM  H13A 8491   4.536   2.232   7.653  0.2996 -0.1766  0.8460
   6623SM  H13B 8492   4.431   2.378   7.616  0.0625 -0.2493  0.5736
   6623SM  H13C 8493   4.597   2.383   7.571 -1.5869  1.3404 -0.9579
   6623SM   C12 8494   4.445   2.344   7.350 -0.1005  0.3649  0.0207
   6623SM  H12A 8495   4.513   2.428   7.353  0.6084 -0.1642 -0.6654
   6623SM  H12B 8496   4.355   2.400   7.369  1.0754  1.3479  3.4199
   6623SM   C11 8497   4.428   2.287   7.204 -1.0131 -0.6465 -0.7916
   6623SM  H11A 8498   4.523   2.239   7.174 -0.4629 -1.0005  1.4107
   6623SM  H11B 8499   4.425   2.373   7.133 -0.4113  0.1534  0.1226
   6623SM     P 8500   4.179   2.241   7.168  0.4159 -0.0053  0.3813
   6623SM   O13 8501   4.092   2.134   7.211  0.0175 -0.2925 -0.2353
   6623SM   O14 8502   4.160   2.374   7.231 -0.5874 -0.9030  0.5442
   6623SM   O11 8503   4.181   2.253   7.013  0.0374  0.6504  0.6871
   6623SM   O12 8504   4.325   2.190   7.192 -0.2258 -1.0603  0.9203
   6623SM   C1S 8505   4.205   2.134   6.936  0.0391  0.2147 -0.1382
   6623SM   H1S 8506   4.130   2.056   6.962  0.0046 -0.0588 -1.0385
   6623SM   H1T 8507   4.307   2.091   6.952  0.5945  1.1533 -1.0402
   6623SM    NF 8508   4.199   2.027   6.714 -0.4016 -0.3453 -0.7806
   6623SM   HNF 8509   4.286   1.982   6.697  0.6936  0.6521  1.7476
   6623SM   C2S 8510   4.199   2.161   6.784 -0.2759  0.8702  0.0347
   6623SM   H2S 8511   4.106   2.216   6.759  0.4031  2.0322  0.0151
   6623SM   C3S 8512   4.320   2.252   6.748  0.4470 -0.8563 -0.3068
   6623SM   H3S 8513   4.409   2.200   6.791  1.4186  2.0921  1.5927
   6623SM    O3 8514   4.315   2.383   6.812 -0.5664 -0.2622 -0.2640
   6623SM   HO3 8515   4.266   2.374   6.894  0.3569  1.4862  0.5448
   6623SM   C4S 8516   4.333   2.261   6.601  0.5637  0.9226 -0.6282
   6623SM   H4S 8517   4.242   2.298   6.550  0.7278  0.6501 -1.1273
   6623SM   C5S 8518   4.430   2.197   6.530 -0.4133  0.0579 -0.0208
   6623SM   H5S 8519   4.506   2.138   6.584  0.1324  0.8937  0.1491
   6623SM   C6S 8520   4.437   2.192   6.380  0.1917  0.6172  0.3388
   6623SM   H6S 8521   4.515   2.269   6.359  0.9981 -0.3330 -0.2491
   6623SM   H6T 8522   4.341   2.212   6.328  1.3171  1.9568 -1.3327
   6623SM   C7S 8523   4.487   2.060   6.319 -0.2761  0.5390  1.0565
   6623SM   H7S 8524   4.414   1.978   6.333 -0.3531  0.6599  1.3741
   6623SM   H7T 8525   4.581   2.028   6.369  1.0381  0.3423 -1.3697
   6623SM   C8S 8526   4.517   2.071   6.167 -0.1133  0.6087 -0.1736
   6623SM   H8S 8527   4.572   1.978   6.143  1.9884  1.5994  0.4985
   6623SM   H8T 8528   4.587   2.158   6.167  1.4149 -0.5759 -0.0328
   6623SM   C9S 8529   4.399   2.097   6.080  1.0374 -0.6900  0.3450
   6623SM   H9S 8530   4.442   2.126   5.981  1.5641 -2.5293 -0.0017
   6623SM   H9T 8531   4.339   2.186   6.109  0.1774 -0.6580 -1.3574
   6623SM  C10S 8532   4.314   1.970   6.052  0.0893  0.1781  0.2063
   6623SM  H10S 8533   4.225   2.006   5.995  1.4823 -0.7121 -2.7458
   6623SM  H10T 8534   4.275   1.929   6.147 -3.2441  0.4512 -0.9150
   6623SM  C11S 8535   4.381   1.853   5.976  0.3708 -0.0883  0.9331
   6623SM  H11S 8536   4.304   1.772   5.976 -0.3968  0.6200  0.9213
   6623SM  H11T 8537   4.473   1.816   6.024  1.7376 -0.8544 -2.0325
   6623SM  C12S 8538   4.412   1.893   5.832  0.2182  0.2300  0.0790
   6623SM  H12S 8539   4.496   1.966   5.826  0.7510 -0.4382 -0.7187
   6623SM  H12T 8540   4.320   1.952   5.812  2.3126  4.0942  0.6210
   6623SM  C13S 8541   4.441   1.774   5.743  0.3045 -1.0539 -0.0066
   6623SM  H13S 8542   4.348   1.716   5.720 -1.4797  1.4975  0.3791
   6623SM  H13T 8543   4.517   1.710   5.793 -1.3357 -1.4579  2.1770
   6623SM  C14S 8544   4.496   1.817   5.614 -0.0198 -0.4697 -0.7492
   6623SM  H14S 8545   4.577   1.891   5.628  0.0876 -0.7035 -0.1457
   6623SM  H14T 8546   4.419   1.869   5.553 -1.7439 -1.1929  0.7426
   6623SM  C15S 8547   4.542   1.692   5.529  0.1585  0.3348  0.6923
   6623SM  H15S 8548   4.444   1.649   5.499 -0.9576  1.8149  2.0446
   6623SM  H15T 8549   4.600   1.613   5.582  0.3682  1.3780  2.0524
   6623SM  C16S 8550   4.620   1.732   5.401  0.1296 -0.3384 -0.1275
   6623SM  H16S 8551   4.729   1.739   5.423 -0.0643  0.4912  0.6286
   6623SM  H16T 8552   4.577   1.825   5.357  1.2348 -0.5877 -1.8411
   6623SM  C17S 8553   4.605   1.621   5.298  0.1365 -0.4552  0.2197
   6623SM  H17S 8554   4.495   1.610   5.286 -0.5898  1.2840  3.9071
   6623SM  H17T 8555   4.642   1.528   5.346  1.4449  0.2400  0.6078
   6623SM  C18S 8556   4.651   1.662   5.154  0.5401 -0.1652 -0.2915
   6623SM  H18S 8557   4.605   1.762   5.138  1.2483  0.0323 -1.1438
   6623SM  H18T 8558   4.606   1.598   5.075 -0.5364  0.2635 -0.0456
   6623SM  H18U 8559   4.762   1.660   5.145  0.5403 -0.2001 -0.2853
   6623SM   C1F 8560   4.091   1.955   6.702 -0.1860 -0.5997  0.4826
   6623SM    OF 8561   3.982   1.997   6.744 -0.4826 -0.0810  0.1103
   6623SM   C2F 8562   4.111   1.825   6.634 -0.0691  0.5151 -0.0437
   6623SM   H2F 8563   4.190   1.766   6.685 -0.0285 -0.7565 -1.5162
   6623SM   H2G 8564   4.153   1.850   6.535 -0.1441 -0.6465 -0.3850
   6623SM   C3F 8565   3.991   1.739   6.603 -0.0838  0.3238  0.1953
   6623SM   H3F 8566   3.937   1.709   6.696 -0.6126 -0.1141 -0.2445
   6623SM   H3G 8567   4.023   1.644   6.554  0.0701  0.3553  0.2358
   6623SM   C4F 8568   3.885   1.793   6.502 -0.1249 -0.2969 -0.2051
   6623SM   H4F 8569   3.945   1.833   6.418 -0.2786  0.4711  0.0394
   6623SM   H4G 8570   3.826   1.871   6.554 -0.6774 -1.2383  0.6322
   6623SM   C5F 8571   3.785   1.685   6.454  0.2135 -0.2487  0.9515
   6623SM   H5F 8572   3.719   1.650   6.537  0.0019 -1.6503  0.2275
   6623SM   H5G 8573   3.836   1.591   6.423 -0.6380 -0.6830  0.8177
   6623SM   C6F 8574   3.702   1.720   6.321 -0.1889  0.3842 -0.3546
   6623SM   H6F 8575   3.648   1.630   6.286  0.3072 -0.7396  1.5953
   6623SM   H6G 8576   3.779   1.752   6.247  0.2185 -0.6435 -0.3962
   6623SM   C7F 8577   3.594   1.830   6.342 -0.3816  0.9366  0.6105
   6623SM   H7F 8578   3.648   1.917   6.385 -0.4385  1.8957 -1.1546
   6623SM   H7G 8579   3.521   1.784   6.413  1.2730 -1.9590  0.5975
   6623SM   C8F 8580   3.524   1.872   6.209 -0.7123  0.6121 -0.8043
   6623SM   H8F 8581   3.598   1.892   6.128  1.1602  4.2677  1.5115
   6623SM   H8G 8582   3.484   1.974   6.229  0.6629  1.5716 -2.5839
   6623SM   C9F 8583   3.416   1.768   6.179  0.4334 -0.7689  0.6874
   6623SM   H9F 8584   3.330   1.782   6.248 -1.5167 -1.9700 -1.3868
   6623SM   H9G 8585   3.448   1.664   6.200 -0.6710 -1.2119  0.2434
   6623SM  C10F 8586   3.359   1.781   6.038  0.1412  0.3668  0.0745
   6623SM  H10F 8587   3.347   1.891   6.027 -4.3688  0.0516  0.0176
   6623SM  H10G 8588   3.254   1.744   6.041  0.9738 -2.1761  1.0534
   6623SM  C11F 8589   3.430   1.720   5.919  0.0808  0.0380  0.6502
   6623SM  H11F 8590   3.435   1.610   5.905 -0.2804  0.2704 -1.7889
   6623SM  H11G 8591   3.537   1.749   5.928  0.8853 -1.2208 -2.9932
   6623SM  C12F 8592   3.369   1.768   5.782  1.0064  0.0110  0.0648
   6623SM  H12F 8593   3.303   1.856   5.798  1.6794  0.7696 -1.1909
   6623SM  H12G 8594   3.310   1.688   5.733  0.6035 -0.2251  0.9126
   6623SM  C13F 8595   3.473   1.800   5.680 -0.6462 -0.4012  0.4302
   6623SM  H13F 8596   3.541   1.874   5.728 -1.4578 -1.7262  3.9815
   6623SM  H13G 8597   3.418   1.842   5.594  0.3529  3.2614  1.4300
   6623SM  C14F 8598   3.563   1.684   5.626  0.3243 -0.1951 -0.3552
   6623SM  H14F 8599   3.606   1.630   5.713 -0.9888 -1.8963 -0.6987
   6623SM  H14G 8600   3.646   1.720   5.561  1.5273 -1.5678  0.3595
   6623SM  C15F 8601   3.466   1.574   5.565 -0.0393 -0.3802  0.0705
   6623SM  H15F 8602   3.397   1.623   5.493 -1.6351 -0.6671  1.3265
   6623SM  H15G 8603   3.394   1.535   5.640 -2.7348  0.5262 -1.8843
   6623SM  C16F 8604   3.542   1.461   5.504 -0.8327 -0.4322  0.1157
   6623SM  H16F 8605   3.468   1.382   5.482  1.1056 -2.0132 -1.1274
   6623SM  H16G 8606   3.618   1.411   5.568  0.1553 -1.6823 -1.9351
   6623SM  C17F 8607   3.618   1.497   5.373 -0.2357 -0.1831  0.2369
   6623SM  H17F 8608   3.676   1.409   5.338  0.9643  0.8395 -0.4213
   6623SM  H17G 8609   3.695   1.573   5.397 -1.5876  0.6790  2.1462
   6623SM  C18F 8610   3.523   1.541   5.260  1.0855  0.3684 -0.0440
   6623SM  H18F 8611   3.593   1.557   5.175  1.2956 -0.3084 -0.0034
   6623SM  H18G 8612   3.466   1.633   5.285 -0.7688 -1.0809  1.3694
   6623SM  C19F 8613   3.425   1.433   5.215 -0.0236  0.4893  0.8821
   6623SM  H19F 8614   3.347   1.401   5.288  1.0491 -1.0369  1.4304
   6623SM  H19G 8615   3.480   1.340   5.191 -1.5253 -0.2020 -0.0165
   6623SM  C20F 8616   3.348   1.461   5.084 -0.0124 -0.0696  0.5393
   6623SM  H20F 8617   3.416   1.486   4.999  1.3887 -0.5194  1.4853
   6623SM  H20G 8618   3.290   1.551   5.114 -0.9011 -0.1261 -0.9411
   6623SM  C21F 8619   3.246   1.359   5.031  0.0846  0.5716 -0.1246
   6623SM  H21F 8620   3.154   1.365   5.094  1.6196 -1.3502  2.5400
   6623SM  H21G 8621   3.280   1.253   5.034 -4.0952 -0.9324  2.0068
   6623SM  C22F 8622   3.194   1.397   4.893  0.7559 -0.2705  0.0862
   6623SM  H22F 8623   3.274   1.376   4.819 -0.4558 -0.1572 -1.3162
   6623SM  H22G 8624   3.160   1.502   4.888 -0.1622 -0.5693 -0.1832
   6623SM  C23F 8625   3.077   1.306   4.849  1.1741  0.2624  0.1920
   6623SM  H23F 8626   3.122   1.221   4.795  0.5684  0.0796 -0.0271
   6623SM  H23G 8627   2.987   1.355   4.805  0.2360 -0.0751  1.6728
   6623SM  H23H 8628   3.024   1.267   4.938 -0.2237 -0.7371 -1.0353
   6723SM     N 8629   3.920   5.842   6.866  0.3025  0.0799 -1.0198
   6723SM   C15 8630   3.987   5.759   6.972 -0.5998  0.2033  0.0190
   6723SM  H15A 8631   3.961   5.654   6.969 -1.1659  0.3609 -1.6301
   6723SM  H15B 8632   3.961   5.798   7.069 -2.4914 -0.1639 -0.2948
   6723SM  H15C 8633   4.094   5.761   6.954 -0.6160 -0.1922 -0.1328
   6723SM   C14 8634   3.965   5.985   6.891  0.0511 -0.0021 -0.3556
   6723SM  H14A 8635   4.059   6.011   6.844 -0.1905  1.1919 -0.2039
   6723SM  H14B 8636   3.976   6.015   6.994  0.2760  0.4155 -0.4996
   6723SM  H14C 8637   3.887   6.044   6.845 -1.1708 -0.7168  0.7232
   6723SM   C13 8638   3.974   5.790   6.737 -0.0246  0.7108  0.3275
   6723SM  H13A 8639   3.955   5.684   6.734  1.5414  0.4007  0.4609
   6723SM  H13B 8640   4.082   5.800   6.736  0.1141 -0.6595  0.1266
   6723SM  H13C 8641   3.941   5.838   6.645 -0.9961 -1.3695 -0.4806
   6723SM   C12 8642   3.775   5.830   6.892  0.1645  0.4191 -0.0396
   6723SM  H12A 8643   3.754   5.874   6.989 -1.8585 -0.5070  0.0000
   6723SM  H12B 8644   3.741   5.728   6.899 -0.3793  0.6806  2.0424
   6723SM   C11 8645   3.686   5.906   6.794  0.3185 -0.8378  0.1858
   6723SM  H11A 8646   3.578   5.887   6.813 -0.8073  1.8511 -2.6673
   6723SM  H11B 8647   3.688   5.864   6.692  1.0273 -0.4735  0.0453
   6723SM     P 8648   3.637   6.150   6.885  0.0316 -0.2400  0.1281
   6723SM   O13 8649   3.594   6.071   7.001  0.1740  0.3378 -0.6180
   6723SM   O14 8650   3.710   6.270   6.903 -0.1743 -0.3397  0.0814
   6723SM   O11 8651   3.507   6.186   6.806 -0.1267  1.2663 -0.1824
   6723SM   O12 8652   3.704   6.048   6.788 -0.5302 -0.4384  0.4469
   6723SM   C1S 8653   3.493   6.205   6.667 -0.9186 -0.4980  0.2421
   6723SM   H1S 8654   3.593   6.215   6.619 -0.4980 -0.9194  1.0246
   6723SM   H1T 8655   3.434   6.297   6.648  1.1040  0.7902 -0.1322
   6723SM    NF 8656   3.399   6.133   6.457  0.1376  0.0243 -0.0860
   6723SM   HNF 8657   3.315   6.163   6.412 -0.4779  0.2170  1.1625
   6723SM   C2S 8658   3.404   6.102   6.597  0.7667 -0.3834 -0.0480
   6723SM   H2S 8659   3.450   6.001   6.611 -1.3440 -1.5705 -1.0611
   6723SM   C3S 8660   3.263   6.089   6.661  0.0026  0.2397  0.2575
   6723SM   H3S 8661   3.211   6.183   6.637  0.3114  0.4161  0.2742
   6723SM    O3 8662   3.256   6.072   6.804  0.2670 -0.4957 -0.6501
   6723SM   HO3 8663   3.339   6.109   6.833 -1.9698  3.6280  1.5201
   6723SM   C4S 8664   3.170   5.991   6.594 -0.5608 -0.5206 -0.1056
   6723SM   H4S 8665   3.130   6.024   6.497  1.3669 -2.2822 -1.5864
   6723SM   C5S 8666   3.151   5.862   6.628  0.2466 -0.1535 -0.7400
   6723SM   H5S 8667   3.197   5.817   6.717 -2.2543 -0.8059  0.3328
   6723SM   C6S 8668   3.102   5.758   6.529 -0.1079  0.2636 -0.4390
   6723SM   H6S 8669   3.017   5.800   6.471  0.4711 -0.9188 -2.2262
   6723SM   H6T 8670   3.073   5.663   6.579  2.8205 -0.7030 -0.4146
   6723SM   C7S 8671   3.223   5.729   6.437  0.2665  0.7774  0.3755
   6723SM   H7S 8672   3.307   5.696   6.502 -0.0868  1.4999  1.2319
   6723SM   H7T 8673   3.254   5.821   6.383 -0.8257  0.6718 -0.4607
   6723SM   C8S 8674   3.195   5.629   6.325  0.5401 -0.0330 -0.2419
   6723SM   H8S 8675   3.098   5.656   6.277 -0.0631 -0.2810  0.7993
   6723SM   H8T 8676   3.184   5.527   6.369  2.8394  0.5074  1.7813
   6723SM   C9S 8677   3.297   5.622   6.212 -0.3804  0.1253 -0.0096
   6723SM   H9S 8678   3.400   5.601   6.245  0.5709  1.8477 -1.6429
   6723SM   H9T 8679   3.300   5.712   6.146 -0.5767  0.5382  0.5430
   6723SM  C10S 8680   3.286   5.498   6.125  0.1239 -0.7381 -0.0576
   6723SM  H10S 8681   3.184   5.498   6.081 -0.4466  1.6543  1.0907
   6723SM  H10T 8682   3.308   5.414   6.194  1.7248 -0.1058  0.2471
   6723SM  C11S 8683   3.395   5.501   6.016 -0.7432 -0.2643  0.4517
   6723SM  H11S 8684   3.498   5.491   6.055 -0.9790 -0.6830  0.9747
   6723SM  H11T 8685   3.389   5.590   5.949 -0.9431 -0.9372 -0.4465
   6723SM  C12S 8686   3.366   5.388   5.912  0.2357  0.3136 -0.0483
   6723SM  H12S 8687   3.260   5.399   5.880 -0.2032  1.8088  1.7484
   6723SM  H12T 8688   3.379   5.294   5.968 -0.8319 -0.0412 -0.3807
   6723SM  C13S 8689   3.475   5.406   5.801 -0.1025  0.9363  0.0475
   6723SM  H13S 8690   3.577   5.407   5.845  0.7350  3.1607 -1.7699
   6723SM  H13T 8691   3.451   5.501   5.750 -0.8471  1.1233  0.7392
   6723SM  C14S 8692   3.473   5.303   5.674  0.1635  0.3960 -0.1794
   6723SM  H14S 8693   3.488   5.199   5.712  0.8322  0.1774 -1.0220
   6723SM  H14T 8694   3.551   5.333   5.602  2.1304 -2.3150  0.6306
   6723SM  C15S 8695   3.323   5.307   5.619 -0.0804  0.9907  0.6761
   6723SM  H15S 8696   3.289   5.413   5.617 -2.7492  0.2096  0.2628
   6723SM  H15T 8697   3.240   5.263   5.679 -0.6191  1.5456  0.3456
   6723SM  C16S 8698   3.320   5.254   5.473 -0.6201 -0.2272  0.0996
   6723SM  H16S 8699   3.391   5.325   5.425 -1.2504  1.2930  1.3478
   6723SM  H16T 8700   3.219   5.278   5.432 -0.1381 -1.0514 -1.6769
   6723SM  C17S 8701   3.353   5.108   5.445 -0.4383 -0.2820 -0.2433
   6723SM  H17S 8702   3.302   5.041   5.518  0.5777 -0.8449 -0.0307
   6723SM  H17T 8703   3.455   5.090   5.486 -0.8418 -0.3194  0.7861
   6723SM  C18S 8704   3.360   5.078   5.294  0.0828 -0.7069  0.1222
   6723SM  H18S 8705   3.433   5.147   5.246 -0.7746  1.4007  1.6746
   6723SM  H18T 8706   3.259   5.078   5.247  0.4039  0.0925 -0.6027
   6723SM  H18U 8707   3.400   4.976   5.277  0.9940 -0.1691 -1.0981
   6723SM   C1F 8708   3.498   6.098   6.370 -0.0004  0.2195 -0.2033
   6723SM    OF 8709   3.602   6.042   6.407  0.4832 -0.1130  0.4646
   6723SM   C2F 8710   3.475   6.121   6.223  0.0426 -0.4617 -0.5387
   6723SM   H2F 8711   3.560   6.184   6.189 -1.0450 -0.2747 -3.2110
   6723SM   H2G 8712   3.383   6.181   6.208  0.5745  0.5903  0.3268
   6723SM   C3F 8713   3.463   5.986   6.143 -0.2446 -0.1798 -0.2447
   6723SM   H3F 8714   3.388   5.927   6.199 -1.0671  1.3926  0.3758
   6723SM   H3G 8715   3.556   5.925   6.155  0.4121  1.0425  1.2091
   6723SM   C4F 8716   3.407   5.997   6.001  0.5780  0.1006 -0.2617
   6723SM   H4F 8717   3.331   6.078   5.995 -1.9742 -2.0869  0.5738
   6723SM   H4G 8718   3.355   5.904   5.970  0.1408  0.9366 -2.2274
   6723SM   C5F 8719   3.520   6.009   5.899  0.3376 -0.0027 -0.4159
   6723SM   H5F 8720   3.578   5.915   5.898 -1.0794 -0.9517  1.6739
   6723SM   H5G 8721   3.592   6.089   5.927 -0.1897  0.4880 -0.4213
   6723SM   C6F 8722   3.468   6.032   5.754  0.5143  0.3092  0.2840
   6723SM   H6F 8723   3.436   6.136   5.734 -0.2744  0.4195  1.9576
   6723SM   H6G 8724   3.382   5.964   5.740  0.3479  0.8033 -1.2440
   6723SM   C7F 8725   3.574   6.002   5.642 -0.1972  0.0435 -0.2739
   6723SM   H7F 8726   3.623   5.903   5.654  2.4250  1.0166 -2.0688
   6723SM   H7G 8727   3.653   6.080   5.652 -0.7971  0.3930  2.4618
   6723SM   C8F 8728   3.518   6.020   5.503 -0.0980 -0.0751  0.1119
   6723SM   H8F 8729   3.475   6.120   5.486  0.6832  0.0612 -1.1857
   6723SM   H8G 8730   3.435   5.948   5.487  0.7464 -0.4565 -3.2452
   6723SM   C9F 8731   3.617   6.006   5.388 -0.2547 -0.3236  0.5958
   6723SM   H9F 8732   3.572   6.002   5.287  1.7591  0.9803 -0.4255
   6723SM   H9G 8733   3.667   5.908   5.400 -1.1653 -0.5732  2.8638
   6723SM  C10F 8734   3.725   6.113   5.374 -0.1728  0.8552 -0.1340
   6723SM  H10F 8735   3.773   6.123   5.474  1.0814 -0.0132 -0.6401
   6723SM  H10G 8736   3.669   6.207   5.352 -0.7598  0.1656 -1.7611
   6723SM  C11F 8737   3.825   6.086   5.272  0.8224 -0.0673 -0.0246
   6723SM  H11F 8738   3.860   5.981   5.284  1.1484  0.1883  1.4214
   6723SM  H11G 8739   3.908   6.158   5.289  0.3898  0.0203  1.8935
   6723SM  C12F 8740   3.784   6.102   5.120 -0.5655 -0.9013  0.0242
   6723SM  H12F 8741   3.676   6.078   5.110 -1.1269  0.9065  1.2167
   6723SM  H12G 8742   3.849   6.031   5.064 -0.4004 -0.2749 -0.5972
   6723SM  C13F 8743   3.808   6.242   5.051  0.1803  0.6445 -0.5597
   6723SM  H13F 8744   3.917   6.254   5.035  0.3161  0.8559  0.4700
   6723SM  H13G 8745   3.786   6.321   5.125  2.5236 -1.3260  2.4849
   6723SM  C14F 8746   3.733   6.266   4.924 -0.0268 -0.2206  0.0180
   6723SM  H14F 8747   3.698   6.371   4.916 -0.7887 -0.5420 -1.2034
   6723SM  H14G 8748   3.635   6.217   4.939  0.3898 -0.9815  0.3012
   6723SM  C15F 8749   3.791   6.208   4.795  0.1666  0.3529 -0.7297
   6723SM  H15F 8750   3.767   6.101   4.780 -1.2397 -0.0385  3.1197
   6723SM  H15G 8751   3.901   6.220   4.806  0.0089  1.2095  0.0240
   6723SM  C16F 8752   3.733   6.270   4.671  0.0696  0.3577  0.3193
   6723SM  H16F 8753   3.750   6.380   4.680 -1.2333  0.5645  0.4216
   6723SM  H16G 8754   3.624   6.253   4.675  0.3794 -2.2841 -0.6753
   6723SM  C17F 8755   3.795   6.228   4.541 -0.0391  0.1168 -0.6365
   6723SM  H17F 8756   3.906   6.223   4.550  0.0286  1.7872 -0.4023
   6723SM  H17G 8757   3.780   6.308   4.465  1.3148  1.5566  0.5483
   6723SM  C18F 8758   3.748   6.092   4.489  0.4970  0.2159 -0.1539
   6723SM  H18F 8759   3.652   6.106   4.433  1.2606 -1.5576 -2.0558
   6723SM  H18G 8760   3.727   6.029   4.578  0.2052  0.6533  0.0884
   6723SM  C19F 8761   3.829   6.019   4.387 -0.7403  0.1775  0.4044
   6723SM  H19F 8762   3.855   6.064   4.289  2.1529 -1.4948  0.2781
   6723SM  H19G 8763   3.769   5.933   4.351 -0.3828  0.5147 -1.0582
   6723SM  C20F 8764   3.961   5.969   4.439 -0.2231  0.0968  0.2132
   6723SM  H20F 8765   3.939   5.921   4.537 -0.9788 -0.7253 -0.3529
   6723SM  H20G 8766   4.035   6.044   4.474  1.9286 -1.1714 -1.3728
   6723SM  C21F 8767   4.016   5.859   4.350 -0.2217  0.1911  0.0792
   6723SM  H21F 8768   3.941   5.777   4.348 -0.2089  0.1776  0.1549
   6723SM  H21G 8769   4.104   5.807   4.393 -0.5697  0.9473  1.7783
   6723SM  C22F 8770   4.061   5.903   4.211  0.7321  0.0094 -0.3332
   6723SM  H22F 8771   3.969   5.926   4.154  0.5799 -1.1519 -0.5827
   6723SM  H22G 8772   4.119   5.819   4.168  2.0276  0.9366 -0.4470
   6723SM  C23F 8773   4.150   6.024   4.215  0.5974 -0.2772 -0.7262
   6723SM  H23F 8774   4.239   6.006   4.280  1.5454  2.3368 -1.1941
   6723SM  H23G 8775   4.096   6.110   4.259  0.0433 -1.6333  1.4186
   6723SM  H23H 8776   4.185   6.044   4.112  2.6105  0.8067  0.1128
   6823SM     N 8777   2.427   1.527   6.914  0.1765 -0.2854  0.0121
   6823SM   C15 8778   2.349   1.642   6.966  0.5972 -0.6669 -0.0568
   6823SM  H15A 8779   2.260   1.601   7.011 -0.1954 -0.5395 -1.4568
   6823SM  H15B 8780   2.310   1.707   6.888  1.5677 -1.3216 -1.1128
   6823SM  H15C 8781   2.408   1.702   7.035 -1.9357  2.2192 -0.1587
   6823SM   C14 8782   2.470   1.447   7.041 -0.2398  0.6253  0.1858
   6823SM  H14A 8783   2.525   1.515   7.103  0.1459  2.8631 -2.3937
   6823SM  H14B 8784   2.527   1.360   7.012  0.5306  0.6943  1.4319
   6823SM  H14C 8785   2.379   1.409   7.084  0.5879 -2.2160 -0.4152
   6823SM   C13 8786   2.335   1.439   6.834 -0.5647  0.6365  0.0060
   6823SM  H13A 8787   2.261   1.398   6.901  1.1758 -0.7166  1.1915
   6823SM  H13B 8788   2.394   1.355   6.799  0.1637  1.0426  0.2273
   6823SM  H13C 8789   2.292   1.495   6.752 -0.8735 -0.6501 -0.7403
   6823SM   C12 8790   2.544   1.569   6.832 -0.0117  0.4505  0.6914
   6823SM  H12A 8791   2.592   1.651   6.882  1.0906 -1.2357  2.5457
   6823SM  H12B 8792   2.495   1.603   6.742 -0.6121  1.1401  1.2670
   6823SM   C11 8793   2.655   1.458   6.803  0.4138  0.3267  0.9520
   6823SM  H11A 8794   2.724   1.519   6.741  1.0000 -0.6217  0.6304
   6823SM  H11B 8795   2.610   1.379   6.738  1.1698 -0.5627  1.4821
   6823SM     P 8796   2.786   1.268   6.907  0.1986  0.1819 -0.2209
   6823SM   O13 8797   2.890   1.257   7.015  0.3572  0.7953 -0.5256
   6823SM   O14 8798   2.673   1.168   6.919  0.7205  0.5276 -0.0816
   6823SM   O11 8799   2.841   1.262   6.759 -0.2419 -0.0597  0.0659
   6823SM   O12 8800   2.729   1.408   6.916  0.0082 -0.5059 -0.3174
   6823SM   C1S 8801   2.889   1.138   6.703 -0.2335  0.0334  0.1016
   6823SM   H1S 8802   2.807   1.064   6.693  0.6822 -0.9279 -0.4127
   6823SM   H1T 8803   2.974   1.096   6.761  0.4597 -0.4939 -1.2570
   6823SM    NF 8804   2.995   1.027   6.508  0.2451  0.0539  0.1849
   6823SM   HNF 8805   3.094   1.019   6.521  0.1972  0.5450  0.8983
   6823SM   C2S 8806   2.937   1.148   6.552 -0.1567 -0.4959 -0.5006
   6823SM   H2S 8807   2.855   1.173   6.481  1.0411  1.0868 -1.4000
   6823SM   C3S 8808   3.031   1.270   6.539 -0.2804 -0.2929 -0.2706
   6823SM   H3S 8809   3.116   1.239   6.603  0.4979  1.7835 -0.2480
   6823SM    O3 8810   2.978   1.395   6.586  0.2246 -0.4777 -0.6700
   6823SM   HO3 8811   2.891   1.371   6.619 -0.2028  0.3818 -1.1105
   6823SM   C4S 8812   3.088   1.281   6.395  0.1302  0.4753 -0.1529
   6823SM   H4S 8813   3.191   1.241   6.389 -0.9469 -2.3385 -2.8130
   6823SM   C5S 8814   3.032   1.320   6.276 -0.4183 -0.5474 -0.3066
   6823SM   H5S 8815   2.930   1.360   6.273  0.5010  1.8638 -2.2973
   6823SM   C6S 8816   3.108   1.312   6.140  0.0528  0.3024  0.1273
   6823SM   H6S 8817   3.060   1.234   6.077  0.8203 -0.2880  0.2543
   6823SM   H6T 8818   3.212   1.275   6.150  0.1644  0.5400 -0.1416
   6823SM   C7S 8819   3.113   1.445   6.061  0.1910 -0.3992 -0.0588
   6823SM   H7S 8820   3.147   1.519   6.136  0.3211  0.1779 -0.6778
   6823SM   H7T 8821   3.008   1.468   6.033  0.0838 -0.6713  0.1158
   6823SM   C8S 8822   3.206   1.433   5.937 -0.3547 -0.1806  0.1548
   6823SM   H8S 8823   3.305   1.392   5.967  1.1037  2.9475  0.0404
   6823SM   H8T 8824   3.234   1.533   5.898  0.2617 -0.3042  0.2759
   6823SM   C9S 8825   3.152   1.349   5.814 -0.3421  0.1916  0.2349
   6823SM   H9S 8826   3.144   1.243   5.845  0.0743  0.3718  0.9701
   6823SM   H9T 8827   3.232   1.348   5.737 -2.4323 -0.5580 -2.0732
   6823SM  C10S 8828   3.022   1.405   5.751  0.0429  0.4491 -0.5657
   6823SM  H10S 8829   3.029   1.513   5.727  1.2366  0.4394 -0.3194
   6823SM  H10T 8830   2.954   1.408   5.839 -0.7028  2.3753 -1.1449
   6823SM  C11S 8831   2.960   1.318   5.636  0.3584  0.5908 -0.0183
   6823SM  H11S 8832   2.851   1.326   5.651  0.2252  2.0785 -1.4427
   6823SM  H11T 8833   2.984   1.211   5.648 -2.5429 -0.2460 -1.0610
   6823SM  C12S 8834   2.994   1.367   5.494 -0.5421  0.0293 -0.4613
   6823SM  H12S 8835   3.105   1.371   5.500 -0.5326  0.7901 -1.0107
   6823SM  H12T 8836   2.963   1.473   5.484 -2.0306 -0.1336  1.6790
   6823SM  C13S 8837   2.941   1.280   5.382 -0.6250 -0.0525  0.4550
   6823SM  H13S 8838   2.942   1.176   5.421 -0.0973  0.1410  0.9729
   6823SM  H13T 8839   3.009   1.276   5.295 -0.6124  2.2616  0.2970
   6823SM  C14S 8840   2.807   1.326   5.326  0.1163  0.1093 -0.2123
   6823SM  H14S 8841   2.822   1.432   5.296  1.3827  0.8898  2.7737
   6823SM  H14T 8842   2.718   1.323   5.393 -0.4389 -0.4552 -0.9633
   6823SM  C15S 8843   2.765   1.243   5.201  0.1518 -0.0792  0.3254
   6823SM  H15S 8844   2.804   1.283   5.105 -0.6185 -0.5209 -0.1944
   6823SM  H15T 8845   2.654   1.242   5.191  0.0410 -3.2070  0.9189
   6823SM  C16S 8846   2.801   1.093   5.204  0.4629  0.0520 -0.7243
   6823SM  H16S 8847   2.771   1.049   5.301 -2.1054  0.1794 -1.3858
   6823SM  H16T 8848   2.912   1.096   5.194  0.4512 -0.2698 -0.9727
   6823SM  C17S 8849   2.743   1.007   5.092 -0.1393 -0.6329 -0.0437
   6823SM  H17S 8850   2.639   1.034   5.064 -0.0425  1.2793  1.2072
   6823SM  H17T 8851   2.743   0.901   5.128 -2.8809 -0.2246  1.4632
   6823SM  C18S 8852   2.817   1.006   4.962  0.7443 -0.4140  0.3707
   6823SM  H18S 8853   2.794   0.911   4.909  0.1564 -2.5351  4.1058
   6823SM  H18T 8854   2.927   1.011   4.970  0.6754  1.4753  0.5329
   6823SM  H18U 8855   2.786   1.093   4.899  0.5186 -0.7374  0.0303
   6823SM   C1F 8856   2.909   0.935   6.458 -0.0551 -0.2147 -0.0674
   6823SM    OF 8857   2.789   0.947   6.458  0.0051 -0.0780 -0.8477
   6823SM   C2F 8858   2.987   0.819   6.406 -0.1510 -0.8410  0.8971
   6823SM   H2F 8859   2.972   0.731   6.472  0.7327 -1.5622  0.1667
   6823SM   H2G 8860   3.095   0.842   6.400  0.0898 -2.0629  0.0646
   6823SM   C3F 8861   2.950   0.789   6.258 -0.2637 -0.1809 -0.2697
   6823SM   H3F 8862   2.971   0.884   6.204  0.6494  0.6280  1.4443
   6823SM   H3G 8863   2.840   0.788   6.247 -0.5028  2.5289  1.2642
   6823SM   C4F 8864   3.040   0.673   6.197  0.3697  0.5810  0.4614
   6823SM   H4F 8865   3.025   0.581   6.256  1.7911  0.3470  0.4888
   6823SM   H4G 8866   3.149   0.694   6.189  0.6380 -0.3955  1.3673
   6823SM   C5F 8867   2.996   0.646   6.049 -0.2265 -0.3040 -0.1246
   6823SM   H5F 8868   2.888   0.621   6.055 -1.4539  3.8018 -1.7293
   6823SM   H5G 8869   3.071   0.576   6.006  1.6011  2.9450 -2.6519
   6823SM   C6F 8870   2.992   0.772   5.959 -0.2583  0.0642  0.5860
   6823SM   H6F 8871   3.090   0.821   5.978 -0.9848  1.4067  0.9908
   6823SM   H6G 8872   2.907   0.837   5.989 -0.5928  0.2296 -0.6657
   6823SM   C7F 8873   2.990   0.716   5.815  0.0276  0.6041  0.4598
   6823SM   H7F 8874   2.892   0.667   5.798  1.4904 -2.5706  0.3874
   6823SM   H7G 8875   3.067   0.636   5.806 -3.2973 -2.6624 -2.4336
   6823SM   C8F 8876   3.041   0.819   5.716  0.0765  0.5271 -0.1857
   6823SM   H8F 8877   3.149   0.843   5.727 -0.2474  2.3881 -0.7432
   6823SM   H8G 8878   2.987   0.916   5.709  0.6882  0.9109  0.2426
   6823SM   C9F 8879   3.007   0.770   5.569  0.0595 -0.5264 -0.1558
   6823SM   H9F 8880   2.896   0.772   5.563  0.0586 -0.1326 -0.0479
   6823SM   H9G 8881   3.049   0.667   5.562  0.7523 -0.2864  0.4382
   6823SM  C10F 8882   3.067   0.872   5.462  0.0840 -0.2437  0.0008
   6823SM  H10F 8883   3.177   0.874   5.479  0.0715 -1.0764  0.2269
   6823SM  H10G 8884   3.029   0.976   5.474 -1.1038 -0.4025 -1.9873
   6823SM  C11F 8885   3.036   0.839   5.315 -0.1699 -0.4402 -0.4153
   6823SM  H11F 8886   3.081   0.914   5.247 -2.5495 -0.1867 -1.8616
   6823SM  H11G 8887   2.928   0.845   5.289 -1.7237  1.5088  5.1719
   6823SM  C12F 8888   3.088   0.702   5.276  0.8490  0.3364 -0.9249
   6823SM  H12F 8889   3.021   0.627   5.323  0.3459  1.1455 -0.3357
   6823SM  H12G 8890   3.190   0.683   5.317  1.2879 -1.7418 -2.7506
   6823SM  C13F 8891   3.090   0.680   5.123 -0.1438  0.3626 -0.6011
   6823SM  H13F 8892   3.157   0.753   5.075  1.2371 -1.2489 -1.2237
   6823SM  H13G 8893   2.985   0.693   5.088 -0.2646 -1.1433 -0.8691
   6823SM  C14F 8894   3.139   0.537   5.074 -0.0353  0.0784  0.1965
   6823SM  H14F 8895   3.111   0.456   5.145  0.0787  0.6608  0.9290
   6823SM  H14G 8896   3.248   0.538   5.092 -0.0587 -1.7117  0.6208
   6823SM  C15F 8897   3.113   0.510   4.922  1.3341 -0.6701  0.7960
   6823SM  H15F 8898   3.182   0.435   4.878  0.3893 -1.0054 -0.1916
   6823SM  H15G 8899   3.140   0.604   4.870 -2.5947 -0.5191 -1.3979
   6823SM  C16F 8900   2.965   0.481   4.886  0.0120  0.2284 -0.9613
   6823SM  H16F 8901   2.890   0.557   4.916 -1.3790 -2.1129  2.0132
   6823SM  H16G 8902   2.942   0.388   4.942 -1.8252  0.8105 -0.6921
   6823SM  C17F 8903   2.954   0.456   4.737 -0.2057 -0.0607  0.1442
   6823SM  H17F 8904   3.036   0.388   4.705 -0.1876 -0.5722  1.2243
   6823SM  H17G 8905   2.978   0.559   4.702  2.4739 -0.8781 -0.7181
   6823SM  C18F 8906   2.820   0.402   4.685 -0.7650 -0.6439 -0.2821
   6823SM  H18F 8907   2.799   0.444   4.584  0.2460 -0.5679 -0.4680
   6823SM  H18G 8908   2.744   0.434   4.759 -0.6517  0.3815 -0.5817
   6823SM  C19F 8909   2.812   0.252   4.668  0.5129 -0.4578 -0.1781
   6823SM  H19F 8910   2.851   0.199   4.757  1.2364 -0.0354 -0.2342
   6823SM  H19G 8911   2.873   0.228   4.578  0.3364  1.5861 -0.8929
   6823SM  C20F 8912   2.670   0.202   4.652 -0.3842 -0.2875  0.7814
   6823SM  H20F 8913   2.663   0.105   4.600  0.3044  0.9460 -1.7575
   6823SM  H20G 8914   2.617   0.280   4.593 -0.0499 -1.4153 -1.0854
   6823SM  C21F 8915   2.601   0.182   4.784 -0.2721  0.4606 -0.5130
   6823SM  H21F 8916   2.638   0.269   4.842 -3.5455 -1.0040  4.3533
   6823SM  H21G 8917   2.630   0.094   4.845  5.0613  2.5747  0.5241
   6823SM  C22F 8918   2.448   0.191   4.777  0.2432  0.2655 -0.9304
   6823SM  H22F 8919   2.430   0.285   4.721  0.8147  0.5921 -0.5747
   6823SM  H22G 8920   2.407   0.208   4.879  1.4896 -1.4705 -0.0828
   6823SM  C23F 8921   2.387   0.079   4.707  0.3979  0.4990  0.4670
   6823SM  H23F 8922   2.405  -0.021   4.752 -0.4702  0.7803  1.4831
   6823SM  H23G 8923   2.404   0.077   4.597 -0.5055 -3.9293  0.2034
   6823SM  H23H 8924   2.277   0.086   4.722  0.2712 -0.0965 -0.0900
   6923SM     N 8925   5.246   2.097   7.519 -0.1700  0.2094  0.1184
   6923SM   C15 8926   5.315   2.150   7.406 -0.1042  0.8096 -0.2219
   6923SM  H15A 8927   5.248   2.201   7.338 -1.8614 -0.3016  0.6199
   6923SM  H15B 8928   5.365   2.071   7.352 -0.9877  0.5836 -0.7304
   6923SM  H15C 8929   5.391   2.224   7.427  0.5513  0.3725 -1.0033
   6923SM   C14 8930   5.341   2.076   7.629 -0.0707 -0.0211 -0.2840
   6923SM  H14A 8931   5.381   1.976   7.636 -0.9328 -0.3932 -0.5517
   6923SM  H14B 8932   5.303   2.086   7.729  2.1670  1.0571  0.5064
   6923SM  H14C 8933   5.414   2.154   7.616  0.1733  0.0912  1.5890
   6923SM   C13 8934   5.149   2.205   7.565  0.0701  0.5048 -0.5618
   6923SM  H13A 8935   5.097   2.262   7.489 -4.0714 -2.1800 -0.0096
   6923SM  H13B 8936   5.205   2.277   7.623 -2.3279  1.7099  0.3694
   6923SM  H13C 8937   5.070   2.152   7.614  0.5000 -0.0904 -0.5000
   6923SM   C12 8938   5.176   1.964   7.482 -0.2854  0.3770 -0.2914
   6923SM  H12A 8939   5.123   1.928   7.569 -1.5212  0.5943 -0.9298
   6923SM  H12B 8940   5.263   1.901   7.478  2.7005  3.8207  3.1454
   6923SM   C11 8941   5.088   1.956   7.354  0.7867 -0.2419 -0.0820
   6923SM  H11A 8942   5.019   2.043   7.351 -0.5195 -1.2852 -1.5004
   6923SM  H11B 8943   5.032   1.861   7.361  0.1256  0.1994  0.7550
   6923SM     P 8944   5.257   1.840   7.190 -0.6968 -0.1597 -0.1480
   6923SM   O13 8945   5.372   1.830   7.277 -0.3416 -0.0883 -0.2511
   6923SM   O14 8946   5.172   1.722   7.157 -0.3831  0.5737  0.3267
   6923SM   O11 8947   5.304   1.886   7.042  0.3842  0.4237  0.6655
   6923SM   O12 8948   5.165   1.956   7.236  0.1718 -0.0578 -0.2422
   6923SM   C1S 8949   5.236   1.982   6.962  0.3448  0.1095 -0.7193
   6923SM   H1S 8950   5.257   2.085   6.997 -1.0007 -0.1860  1.0970
   6923SM   H1T 8951   5.126   1.961   6.965  0.5756 -0.9774  1.4826
   6923SM    NF 8952   5.257   2.074   6.729 -0.9986  0.2879 -0.2838
   6923SM   HNF 8953   5.181   2.074   6.664  0.3449  1.8419 -1.9706
   6923SM   C2S 8954   5.277   1.958   6.814  0.8145  0.0880  0.3799
   6923SM   H2S 8955   5.386   1.938   6.816  0.7712 -0.1187  0.6834
   6923SM   C3S 8956   5.211   1.831   6.768  0.6250  0.6942  0.6790
   6923SM   H3S 8957   5.103   1.853   6.754  0.6983  0.7011  0.0650
   6923SM    O3 8958   5.208   1.723   6.854 -0.5183 -0.0396  0.2728
   6923SM   HO3 8959   5.230   1.766   6.937 -0.6456  0.3870  0.0876
   6923SM   C4S 8960   5.255   1.783   6.632 -0.1144  0.6924  0.1940
   6923SM   H4S 8961   5.217   1.845   6.549  0.7986  2.2743  0.9224
   6923SM   C5S 8962   5.327   1.671   6.598 -0.0255  0.3449 -0.0186
   6923SM   H5S 8963   5.364   1.594   6.668 -0.7592  0.1725  0.1910
   6923SM   C6S 8964   5.342   1.638   6.449  0.3329  0.7290  0.4858
   6923SM   H6S 8965   5.325   1.529   6.439  0.1483  0.6298  1.7309
   6923SM   H6T 8966   5.447   1.646   6.413  1.4498 -0.3473  3.2288
   6923SM   C7S 8967   5.251   1.696   6.334 -0.1183  0.2107  0.7897
   6923SM   H7S 8968   5.249   1.807   6.339 -0.7667  0.3082 -1.0404
   6923SM   H7T 8969   5.146   1.663   6.332 -0.5478  1.5246 -0.1429
   6923SM   C8S 8970   5.301   1.667   6.195  0.5692 -0.4873  0.2336
   6923SM   H8S 8971   5.404   1.708   6.200  0.1014  0.9095 -0.7567
   6923SM   H8T 8972   5.254   1.740   6.125 -2.5731  1.0250  3.5808
   6923SM   C9S 8973   5.288   1.526   6.149 -0.0083 -0.0774  0.5569
   6923SM   H9S 8974   5.184   1.489   6.165  0.6820 -0.9236  3.7065
   6923SM   H9T 8975   5.352   1.460   6.212  2.1984  2.2350  0.8678
   6923SM  C10S 8976   5.335   1.512   6.004  0.1097  0.4942  0.1014
   6923SM  H10S 8977   5.435   1.557   5.985  0.0261  0.2922 -0.9052
   6923SM  H10T 8978   5.267   1.564   5.933 -0.5431 -1.4221 -0.7658
   6923SM  C11S 8979   5.342   1.367   5.941  0.3345  0.0305  1.1964
   6923SM  H11S 8980   5.240   1.324   5.940 -0.0960  1.0147 -0.3469
   6923SM  H11T 8981   5.409   1.308   6.007  0.6350 -1.0533 -0.0394
   6923SM  C12S 8982   5.389   1.379   5.793  0.4515 -0.3283  0.7223
   6923SM  H12S 8983   5.485   1.434   5.782  0.6606 -0.5827  1.2291
   6923SM  H12T 8984   5.311   1.441   5.745  0.4919 -0.6592  0.2210
   6923SM  C13S 8985   5.399   1.249   5.711  0.6400  0.2523  0.5763
   6923SM  H13S 8986   5.301   1.199   5.721  0.4849  0.0966 -1.3375
   6923SM  H13T 8987   5.470   1.182   5.764  0.3291  0.0267  0.7127
   6923SM  C14S 8988   5.442   1.270   5.566 -0.3476 -0.3152  0.2085
   6923SM  H14S 8989   5.526   1.342   5.569  0.2274 -0.9719  0.3158
   6923SM  H14T 8990   5.351   1.313   5.519  0.0921  1.4682  0.9332
   6923SM  C15S 8991   5.475   1.144   5.492 -0.3680  0.4116 -0.2719
   6923SM  H15S 8992   5.387   1.077   5.494 -0.2100  0.0902  3.6202
   6923SM  H15T 8993   5.550   1.091   5.554 -0.1053 -0.3316 -1.2105
   6923SM  C16S 8994   5.529   1.157   5.351 -0.1152 -0.4489 -0.1363
   6923SM  H16S 8995   5.611   1.232   5.343 -1.0705  0.5646 -0.7119
   6923SM  H16T 8996   5.465   1.209   5.277  0.9013  4.3106  1.9018
   6923SM  C17S 8997   5.583   1.025   5.299  0.0031  0.1257  0.4069
   6923SM  H17S 8998   5.509   0.942   5.312 -0.5294  0.6121  0.5445
   6923SM  H17T 8999   5.674   1.012   5.361  0.8352 -0.2467 -0.8608
   6923SM  C18S 9000   5.631   1.031   5.153  0.1596 -0.2573  0.5960
   6923SM  H18S 9001   5.698   0.945   5.135  0.6601  0.4920 -1.3528
   6923SM  H18T 9002   5.679   1.129   5.131  0.1815 -0.6118 -1.0838
   6923SM  H18U 9003   5.541   1.034   5.088  0.8185  2.3935 -0.3383
   6923SM   C1F 9004   5.314   2.190   6.749  0.0505 -0.1335  0.3694
   6923SM    OF 9005   5.390   2.211   6.842 -0.0864  0.3023 -0.2088
   6923SM   C2F 9006   5.256   2.308   6.674  0.4371 -0.1513  0.4008
   6923SM   H2F 9007   5.269   2.394   6.742  0.2229  0.3122 -0.1346
   6923SM   H2G 9008   5.146   2.294   6.665  0.2591  1.0965  0.5197
   6923SM   C3F 9009   5.326   2.349   6.542 -0.3263  0.7149  0.2721
   6923SM   H3F 9010   5.329   2.265   6.469  2.5671  0.5479  0.4638
   6923SM   H3G 9011   5.431   2.371   6.568  0.2068 -0.1800 -1.0412
   6923SM   C4F 9012   5.269   2.466   6.470  0.1316 -0.4067  0.7425
   6923SM   H4F 9013   5.282   2.555   6.534 -1.3942 -0.8567  1.7276
   6923SM   H4G 9014   5.159   2.461   6.452  0.2410 -1.4024  0.2688
   6923SM   C5F 9015   5.333   2.493   6.329  0.2380  0.6315  0.7888
   6923SM   H5F 9016   5.316   2.408   6.260 -2.0992  0.1279  1.8858
   6923SM   H5G 9017   5.441   2.517   6.340  0.3437 -0.3902  2.2588
   6923SM   C6F 9018   5.266   2.623   6.272 -0.0241 -0.7413  0.3292
   6923SM   H6F 9019   5.310   2.708   6.329 -0.2310  0.8888 -1.8426
   6923SM   H6G 9020   5.155   2.625   6.286 -0.1612  3.3741 -0.0840
   6923SM   C7F 9021   5.289   2.638   6.120  0.1540 -0.2314  0.3887
   6923SM   H7F 9022   5.392   2.600   6.101 -0.2221 -1.3223  0.4644
   6923SM   H7G 9023   5.290   2.748   6.102  2.8939  0.4479  3.6517
   6923SM   C8F 9024   5.194   2.562   6.023 -0.4528  0.1220  0.3788
   6923SM   H8F 9025   5.099   2.620   6.024  1.2421  3.2895 -2.0637
   6923SM   H8G 9026   5.184   2.459   6.062  0.2248 -0.8310 -1.8248
   6923SM   C9F 9027   5.246   2.559   5.877  0.7090 -0.1701 -0.5065
   6923SM   H9F 9028   5.357   2.552   5.882  0.9147  2.3164 -0.3749
   6923SM   H9G 9029   5.225   2.658   5.832  0.1634  0.1010  0.3145
   6923SM  C10F 9030   5.172   2.446   5.805  0.0474  0.3247  0.2985
   6923SM  H10F 9031   5.077   2.490   5.767 -0.3783  0.1637  1.1468
   6923SM  H10G 9032   5.145   2.374   5.885  1.8128 -1.6012 -0.7644
   6923SM  C11F 9033   5.261   2.391   5.693  0.4441 -0.2068 -0.0165
   6923SM  H11F 9034   5.339   2.337   5.750  1.0211  1.3649  0.7310
   6923SM  H11G 9035   5.312   2.470   5.634  1.8114 -1.6354 -0.8308
   6923SM  C12F 9036   5.193   2.301   5.594  0.5679 -0.5899  0.1133
   6923SM  H12F 9037   5.106   2.342   5.538 -0.0238 -1.6953  0.1947
   6923SM  H12G 9038   5.154   2.213   5.649  1.0014  0.0324  1.4485
   6923SM  C13F 9039   5.289   2.235   5.500 -0.4658  0.4714  0.3466
   6923SM  H13F 9040   5.362   2.176   5.560  0.8619  1.5954 -0.1130
   6923SM  H13G 9041   5.337   2.318   5.444 -1.2590  1.0215  0.4793
   6923SM  C14F 9042   5.233   2.139   5.388  0.7656  0.1333 -0.5303
   6923SM  H14F 9043   5.175   2.177   5.301  0.2377 -0.0813 -0.2758
   6923SM  H14G 9044   5.177   2.058   5.439 -0.7038  1.3994 -0.0680
   6923SM  C15F 9045   5.353   2.072   5.322 -0.5749 -0.2067  0.0393
   6923SM  H15F 9046   5.308   1.983   5.272 -1.2414 -1.2408  2.3734
   6923SM  H15G 9047   5.416   2.042   5.408  0.4726  2.3468  0.2513
   6923SM  C16F 9048   5.445   2.152   5.224  0.2719 -0.0153 -0.4315
   6923SM  H16F 9049   5.477   2.243   5.278 -1.7941  0.9161 -0.6920
   6923SM  H16G 9050   5.378   2.189   5.143  2.2781  0.0395 -2.1674
   6923SM  C17F 9051   5.552   2.067   5.148 -0.5253 -0.0992  0.4779
   6923SM  H17F 9052   5.486   1.998   5.091 -1.4415 -0.7955  2.2949
   6923SM  H17G 9053   5.610   2.000   5.215 -1.0575 -2.0331 -0.8892
   6923SM  C18F 9054   5.651   2.143   5.054  0.0237 -0.4261  0.5174
   6923SM  H18F 9055   5.595   2.201   4.978  1.7134 -1.1801 -1.3799
   6923SM  H18G 9056   5.717   2.072   4.999  0.8352  0.4021  0.4072
   6923SM  C19F 9057   5.752   2.230   5.129  0.2693 -0.1680  0.3138
   6923SM  H19F 9058   5.809   2.180   5.210 -1.7876 -1.0914  1.2675
   6923SM  H19G 9059   5.688   2.307   5.178 -0.9003 -0.6042 -0.4790
   6923SM  C20F 9060   5.852   2.313   5.035  0.0949 -0.1809 -0.2098
   6923SM  H20F 9061   5.792   2.384   4.974 -0.1943  0.2388  0.5524
   6923SM  H20G 9062   5.895   2.240   4.963 -1.4831 -1.3384 -0.0408
   6923SM  C21F 9063   5.961   2.391   5.110  0.0929 -0.1945 -0.9713
   6923SM  H21F 9064   6.013   2.424   5.017 -0.9969 -2.1320 -2.3452
   6923SM  H21G 9065   6.019   2.320   5.174 -2.0708 -1.4388 -0.3069
   6923SM  C22F 9066   5.914   2.511   5.198 -0.3050  0.4586  0.0710
   6923SM  H22F 9067   6.014   2.547   5.232  0.1787 -1.7899  1.1862
   6923SM  H22G 9068   5.861   2.478   5.289  0.5048  1.3459  0.8893
   6923SM  C23F 9069   5.844   2.617   5.115 -0.1224 -0.2472 -0.1611
   6923SM  H23F 9070   5.842   2.714   5.169 -0.2209  0.6933 -1.7852
   6923SM  H23G 9071   5.739   2.584   5.101 -0.9449  1.9060  0.5145
   6923SM  H23H 9072   5.899   2.643   5.022 -3.1013  0.1792 -1.9406
   7023SM     N 9073   5.233   1.149   7.096 -0.2503 -0.0273 -0.1262
   7023SM   C15 9074   5.255   1.000   7.094 -0.3516  0.5374 -0.0419
   7023SM  H15A 9075   5.230   0.946   7.185 -3.0246  1.2648 -0.2627
   7023SM  H15B 9076   5.360   0.981   7.077 -0.7108  0.0189 -1.8893
   7023SM  H15C 9077   5.203   0.962   7.007  0.3036  1.3414 -0.7984
   7023SM   C14 9078   5.338   1.214   7.183 -0.2219  0.5851 -0.7500
   7023SM  H14A 9079   5.336   1.186   7.287 -0.3947 -1.7167 -1.3167
   7023SM  H14B 9080   5.330   1.321   7.171 -0.6658  0.8440  1.4449
   7023SM  H14C 9081   5.437   1.192   7.146  0.8157  2.8890  0.4654
   7023SM   C13 9082   5.255   1.197   6.961  0.3727 -0.4244  0.8245
   7023SM  H13A 9083   5.176   1.162   6.895 -0.3644  0.8549  0.9950
   7023SM  H13B 9084   5.340   1.149   6.915 -2.0630 -2.1101 -2.3179
   7023SM  H13C 9085   5.265   1.305   6.963 -0.2203 -0.3736  1.2561
   7023SM   C12 9086   5.092   1.179   7.146  0.5090  0.7645  0.0855
   7023SM  H12A 9087   5.082   1.284   7.167  0.4896  0.7292  0.2545
   7023SM  H12B 9088   5.076   1.120   7.236  2.1212 -2.2307 -1.4697
   7023SM   C11 9089   4.971   1.148   7.063  0.3451  0.4028 -0.2682
   7023SM  H11A 9090   4.976   1.038   7.047  0.3173  0.1498  1.3303
   7023SM  H11B 9091   4.986   1.193   6.962 -0.0690 -0.1610 -0.5949
   7023SM     P 9092   4.778   1.319   7.083 -0.0722 -0.4676  0.0922
   7023SM   O13 9093   4.637   1.309   7.124  0.0711 -0.4453 -0.0373
   7023SM   O14 9094   4.852   1.430   7.138  0.0384 -0.0041  0.3768
   7023SM   O11 9095   4.790   1.324   6.924  0.4932  0.0267 -0.2848
   7023SM   O12 9096   4.843   1.176   7.123  0.2390  0.2946  0.7546
   7023SM   C1S 9097   4.692   1.249   6.842  0.6912 -0.2152  0.2041
   7023SM   H1S 9098   4.585   1.272   6.856  0.0459 -1.6441 -1.9156
   7023SM   H1T 9099   4.711   1.140   6.844  0.6499 -0.3092 -1.9652
   7023SM    NF 9100   4.626   1.216   6.613 -0.5192 -0.8969 -0.9598
   7023SM   HNF 9101   4.643   1.123   6.582  1.4486 -0.7288 -0.5493
   7023SM   C2S 9102   4.727   1.285   6.693  0.4677 -0.0646  0.0214
   7023SM   H2S 9103   4.709   1.394   6.688  0.4703 -0.1004 -1.1305
   7023SM   C3S 9104   4.878   1.252   6.652  0.7563 -0.0939  0.1041
   7023SM   H3S 9105   4.891   1.143   6.663 -0.6491 -0.2120  0.8368
   7023SM    O3 9106   4.975   1.319   6.730  0.0371  0.1695  0.0759
   7023SM   HO3 9107   4.923   1.334   6.809 -0.3161 -0.4774 -0.0259
   7023SM   C4S 9108   4.900   1.284   6.511 -0.0442  0.2090  0.3091
   7023SM   H4S 9109   4.894   1.391   6.486 -1.6454  0.4371  1.5266
   7023SM   C5S 9110   4.945   1.200   6.413  0.2297  0.3917  0.7506
   7023SM   H5S 9111   4.961   1.098   6.452  1.4153 -1.0656 -3.0444
   7023SM   C6S 9112   4.989   1.238   6.272  0.4660 -0.5242 -0.5997
   7023SM   H6S 9113   5.098   1.219   6.262  0.8995  1.8146 -0.9048
   7023SM   H6T 9114   4.977   1.348   6.259  0.6320 -0.2091  1.5060
   7023SM   C7S 9115   4.917   1.157   6.162  0.2562 -0.1994  0.1660
   7023SM   H7S 9116   4.813   1.194   6.146  0.5745  0.7694  0.2383
   7023SM   H7T 9117   4.915   1.049   6.187  0.5107 -0.2915 -0.2116
   7023SM   C8S 9118   4.994   1.174   6.031  0.4135 -0.5615 -0.6380
   7023SM   H8S 9119   5.093   1.141   6.068 -0.5436 -1.3415  1.3817
   7023SM   H8T 9120   4.991   1.283   6.008 -2.2924 -0.6989 -1.2458
   7023SM   C9S 9121   4.930   1.092   5.921  0.1403 -0.2265 -0.1441
   7023SM   H9S 9122   4.827   1.130   5.907  0.1961 -0.0846 -0.1794
   7023SM   H9T 9123   4.933   0.987   5.958 -1.9131 -0.6429 -1.0328
   7023SM  C10S 9124   5.002   1.115   5.787  0.4004  0.3261  0.3280
   7023SM  H10S 9125   5.104   1.149   5.813  0.0535  1.1295  0.6737
   7023SM  H10T 9126   4.959   1.198   5.728  2.4748 -0.2768 -2.2024
   7023SM  C11S 9127   5.000   0.988   5.704  0.0376 -0.2661  0.1138
   7023SM  H11S 9128   4.896   0.955   5.682 -0.1412  1.0566 -1.1408
   7023SM  H11T 9129   5.046   0.913   5.772  1.5600  0.7494  0.2353
   7023SM  C12S 9130   5.084   0.992   5.575 -0.3650 -0.2637 -1.2549
   7023SM  H12S 9131   5.179   1.019   5.625 -1.7057 -1.7887  2.4007
   7023SM  H12T 9132   5.045   1.077   5.515  0.3510  0.4817 -0.6835
   7023SM  C13S 9133   5.087   0.860   5.501  0.0825 -0.2463 -0.0413
   7023SM  H13S 9134   4.982   0.840   5.471 -0.2730 -0.8725  1.5185
   7023SM  H13T 9135   5.126   0.787   5.575  0.6297 -0.0543 -0.1364
   7023SM  C14S 9136   5.182   0.872   5.379 -0.5627  0.0956  0.0468
   7023SM  H14S 9137   5.289   0.888   5.405 -0.4114 -3.0102  1.8380
   7023SM  H14T 9138   5.147   0.963   5.326 -1.7517 -1.6248 -2.3213
   7023SM  C15S 9139   5.193   0.749   5.288  0.1395 -0.0296 -0.1011
   7023SM  H15S 9140   5.096   0.697   5.277  1.8130 -3.3902 -0.4031
   7023SM  H15T 9141   5.261   0.671   5.329 -1.3565 -1.2896  0.0441
   7023SM  C16S 9142   5.253   0.797   5.156  0.4727 -0.2244 -0.0113
   7023SM  H16S 9143   5.347   0.853   5.174  0.2553  0.0652  0.2386
   7023SM  H16T 9144   5.174   0.853   5.103 -0.9379 -1.7345  0.3992
   7023SM  C17S 9145   5.279   0.669   5.070 -0.1417 -0.2969  0.0855
   7023SM  H17S 9146   5.190   0.610   5.042 -0.0447  0.1181 -1.1555
   7023SM  H17T 9147   5.349   0.599   5.120 -0.2616 -1.2129 -0.9918
   7023SM  C18S 9148   5.349   0.713   4.943  0.6867  0.1967 -0.1171
   7023SM  H18S 9149   5.432   0.782   4.973 -0.9120  1.4859  1.5401
   7023SM  H18T 9150   5.278   0.761   4.873  1.1385  0.2939 -0.5209
   7023SM  H18U 9151   5.396   0.631   4.884  3.1097  2.2629 -1.2757
   7023SM   C1F 9152   4.502   1.260   6.597  0.3104 -0.0741 -0.1329
   7023SM    OF 9153   4.458   1.353   6.668 -0.0736 -0.6449 -0.1238
   7023SM   C2F 9154   4.411   1.192   6.481  0.0162 -0.4132  0.4372
   7023SM   H2F 9155   4.310   1.238   6.485  0.4423  0.4988  1.1888
   7023SM   H2G 9156   4.405   1.084   6.506 -0.8997 -0.3014  0.7670
   7023SM   C3F 9157   4.480   1.212   6.348 -0.1718 -0.1602 -0.3818
   7023SM   H3F 9158   4.419   1.148   6.282  0.2999 -0.7455 -0.2525
   7023SM   H3G 9159   4.582   1.169   6.351 -0.4748 -0.9133  2.6241
   7023SM   C4F 9160   4.488   1.355   6.293  0.6174 -0.4565  0.4024
   7023SM   H4F 9161   4.551   1.420   6.358  0.9508 -0.4674  0.0884
   7023SM   H4G 9162   4.388   1.403   6.297  0.2958 -0.9382 -1.1662
   7023SM   C5F 9163   4.554   1.361   6.153  0.5279  0.4089 -0.0613
   7023SM   H5F 9164   4.657   1.318   6.161  0.1692 -0.1518  2.0991
   7023SM   H5G 9165   4.552   1.464   6.113 -1.2690  0.1994 -0.6030
   7023SM   C6F 9166   4.473   1.275   6.046  0.2535 -0.3798  0.3095
   7023SM   H6F 9167   4.370   1.317   6.051  0.3390 -0.0650 -0.4285
   7023SM   H6G 9168   4.471   1.169   6.078 -1.4633 -0.2926  0.5899
   7023SM   C7F 9169   4.521   1.304   5.902 -0.0768  0.5817 -0.1949
   7023SM   H7F 9170   4.618   1.358   5.909  0.4670 -0.5885  2.0668
   7023SM   H7G 9171   4.445   1.365   5.849  1.0490  0.1948 -2.4067
   7023SM   C8F 9172   4.554   1.184   5.811 -0.4508 -0.4065  0.3842
   7023SM   H8F 9173   4.466   1.116   5.806 -0.4080 -0.4160 -0.4131
   7023SM   H8G 9174   4.642   1.126   5.845  0.6960  1.4514  0.7231
   7023SM   C9F 9175   4.599   1.217   5.659  0.4598 -0.2076  0.4023
   7023SM   H9F 9176   4.693   1.275   5.655  0.7622 -0.7269 -0.2681
   7023SM   H9G 9177   4.518   1.279   5.616 -1.3866 -0.5144  3.1779
   7023SM  C10F 9178   4.613   1.095   5.569  0.4366  0.1656  0.0266
   7023SM  H10F 9179   4.514   1.050   5.548 -0.6305  3.6065 -3.4255
   7023SM  H10G 9180   4.679   1.019   5.614 -0.8050 -1.8626 -1.4128
   7023SM  C11F 9181   4.672   1.127   5.433 -0.4206 -0.5376  0.2141
   7023SM  H11F 9182   4.771   1.173   5.453 -0.0963 -0.1481 -2.0245
   7023SM  H11G 9183   4.605   1.203   5.386 -1.1085 -0.0670  1.8468
   7023SM  C12F 9184   4.689   1.011   5.339 -0.3008 -0.0543  0.4778
   7023SM  H12F 9185   4.588   0.980   5.306 -0.3925  1.2818 -0.5751
   7023SM  H12G 9186   4.738   0.922   5.383  1.0382  0.8182  0.8141
   7023SM  C13F 9187   4.787   1.048   5.217  0.1322  1.0981  0.3973
   7023SM  H13F 9188   4.887   1.076   5.258  0.0813 -0.3215  1.5990
   7023SM  H13G 9189   4.739   1.133   5.165 -0.7785  0.8649  0.8443
   7023SM  C14F 9190   4.820   0.929   5.125 -0.0228  0.5092  0.3050
   7023SM  H14F 9191   4.727   0.878   5.093  1.5016 -1.4667 -1.1882
   7023SM  H14G 9192   4.880   0.856   5.183  0.1277  1.8387  1.9162
   7023SM  C15F 9193   4.895   0.973   5.000  0.2199  0.1301  0.1795
   7023SM  H15F 9194   4.987   1.031   5.022  0.2711 -0.3431  1.2666
   7023SM  H15G 9195   4.835   1.033   4.929 -0.0693 -0.9947 -0.5339
   7023SM  C16F 9196   4.946   0.847   4.935 -0.2384  0.3271 -0.0811
   7023SM  H16F 9197   4.860   0.785   4.902 -0.5954 -0.2124  1.7428
   7023SM  H16G 9198   4.999   0.780   5.006  1.8348 -0.2946 -2.0738
   7023SM  C17F 9199   5.043   0.875   4.819 -0.9989  0.4788  0.4454
   7023SM  H17F 9200   5.080   0.775   4.788 -0.1180  0.6980  0.7497
   7023SM  H17G 9201   5.122   0.941   4.861 -2.7691  2.9316  0.1594
   7023SM  C18F 9202   4.968   0.930   4.698 -0.2931 -0.7531 -0.0878
   7023SM  H18F 9203   4.958   1.039   4.714  1.0109 -0.2249 -2.4491
   7023SM  H18G 9204   4.868   0.883   4.688  0.2930 -2.1082  0.0976
   7023SM  C19F 9205   5.049   0.914   4.569  0.6077 -0.4695  0.1736
   7023SM  H19F 9206   5.069   0.805   4.564  0.9852 -0.4299  0.7580
   7023SM  H19G 9207   5.146   0.966   4.576  1.0588 -0.8043 -2.4426
   7023SM  C20F 9208   4.974   0.967   4.441 -0.7480  0.4398 -0.1804
   7023SM  H20F 9209   4.871   0.931   4.423 -0.4824 -0.2607 -0.3686
   7023SM  H20G 9210   5.032   0.948   4.348 -1.5763 -1.4667 -0.3665
   7023SM  C21F 9211   4.973   1.115   4.447  0.0981 -0.3405  0.4155
   7023SM  H21F 9212   5.079   1.149   4.453  0.1388 -0.2548 -0.5342
   7023SM  H21G 9213   4.913   1.153   4.532  1.1201  1.0474  0.5576
   7023SM  C22F 9214   4.907   1.180   4.328 -0.0597 -0.0392  0.2186
   7023SM  H22F 9215   4.798   1.163   4.333  0.1878 -2.3803 -1.0634
   7023SM  H22G 9216   4.921   1.117   4.238 -0.6257  2.5951 -1.8415
   7023SM  C23F 9217   4.955   1.321   4.311  0.8195  0.3603  0.4231
   7023SM  H23F 9218   5.057   1.329   4.355  0.0951 -1.2607  2.5833
   7023SM  H23G 9219   4.895   1.400   4.362 -0.3811  1.0947 -2.0078
   7023SM  H23H 9220   4.950   1.340   4.202  1.6918 -0.1143  0.2880
   7123SM     N 9221   2.842   0.316   7.335  0.5235  0.1777 -0.3104
   7123SM   C15 9222   2.862   0.172   7.358  0.6132  0.4588  0.8041
   7123SM  H15A 9223   2.806   0.144   7.446 -1.4594  2.7587  0.3298
   7123SM  H15B 9224   2.965   0.148   7.381  0.7333 -1.0866 -1.0224
   7123SM  H15C 9225   2.829   0.122   7.268  0.1925  0.4218  0.9756
   7123SM   C14 9226   2.691   0.355   7.352 -0.4747  1.1463  0.8757
   7123SM  H14A 9227   2.651   0.320   7.447 -0.1312  0.9669  0.9558
   7123SM  H14B 9228   2.638   0.316   7.267  1.2212 -0.3679  0.4514
   7123SM  H14C 9229   2.677   0.462   7.354 -2.6208  0.9465 -0.3066
   7123SM   C13 9230   2.908   0.389   7.442  0.8583 -1.0648  0.2250
   7123SM  H13A 9231   2.896   0.495   7.423 -0.3620 -1.4282 -1.3106
   7123SM  H13B 9232   3.013   0.366   7.440  1.5083  1.4853  0.9699
   7123SM  H13C 9233   2.860   0.368   7.536 -1.0781  1.3657 -0.1007
   7123SM   C12 9234   2.890   0.364   7.203 -0.0423  0.4723  0.8130
   7123SM  H12A 9235   2.873   0.470   7.193 -2.1456  0.1392  0.4308
   7123SM  H12B 9236   2.837   0.322   7.119  0.7410 -2.9592  1.8618
   7123SM   C11 9237   3.038   0.335   7.161  0.5360  0.0171 -0.3034
   7123SM  H11A 9238   3.039   0.361   7.053 -1.9388 -0.7818 -0.5809
   7123SM  H11B 9239   3.051   0.228   7.186 -1.0058 -0.0968  0.0970
   7123SM     P 9240   3.192   0.556   7.171  0.0386 -0.3098 -0.2566
   7123SM   O13 9241   3.071   0.642   7.171  0.5421 -0.0561 -0.0062
   7123SM   O14 9242   3.304   0.600   7.255 -0.0568  0.4251 -0.2479
   7123SM   O11 9243   3.242   0.523   7.025  0.2037  0.4915  0.1060
   7123SM   O12 9244   3.139   0.415   7.231 -0.0182  0.4226  0.2109
   7123SM   C1S 9245   3.355   0.438   7.003  0.3924 -0.3609  0.4513
   7123SM   H1S 9246   3.342   0.331   7.030  3.7884 -0.7755  0.9407
   7123SM   H1T 9247   3.445   0.473   7.059  1.2004  0.3235 -1.2192
   7123SM    NF 9248   3.502   0.348   6.821  0.2273 -0.4153  0.7185
   7123SM   HNF 9249   3.590   0.390   6.798  0.3494 -2.4491 -3.4472
   7123SM   C2S 9250   3.388   0.437   6.852  0.3551 -0.2796  0.9273
   7123SM   H2S 9251   3.294   0.403   6.803  0.8102 -1.2488  0.7032
   7123SM   C3S 9252   3.400   0.585   6.795  0.4629  0.0421  0.2882
   7123SM   H3S 9253   3.476   0.627   6.864 -1.5422 -0.8221  3.2461
   7123SM    O3 9254   3.283   0.666   6.815  0.1816 -0.5827  0.1778
   7123SM   HO3 9255   3.230   0.628   6.885 -0.3312 -2.1277 -1.0173
   7123SM   C4S 9256   3.444   0.578   6.653  0.3575 -0.0285  0.3522
   7123SM   H4S 9257   3.554   0.573   6.642  0.4718 -1.2255  1.7261
   7123SM   C5S 9258   3.359   0.569   6.545  0.3271 -0.2406  0.2375
   7123SM   H5S 9259   3.251   0.560   6.564  0.5175 -0.6760  1.1451
   7123SM   C6S 9260   3.391   0.558   6.396 -0.1483 -0.6285 -0.1763
   7123SM   H6S 9261   3.314   0.614   6.340  1.3775  0.1721 -1.5656
   7123SM   H6T 9262   3.401   0.452   6.363  1.6213  0.4855 -3.7622
   7123SM   C7S 9263   3.524   0.613   6.350  0.3030 -0.0540 -0.2868
   7123SM   H7S 9264   3.603   0.553   6.398  0.0313 -1.4369 -1.4663
   7123SM   H7T 9265   3.532   0.721   6.375 -0.0135 -0.2819  0.8356
   7123SM   C8S 9266   3.560   0.593   6.207 -0.0972 -0.3183 -0.6303
   7123SM   H8S 9267   3.540   0.488   6.176 -0.7973 -0.4184  0.1342
   7123SM   H8T 9268   3.662   0.622   6.173 -0.3109 -0.2101 -1.1873
   7123SM   C9S 9269   3.453   0.659   6.113 -0.3029  0.5549 -0.9123
   7123SM   H9S 9270   3.425   0.756   6.160 -1.8881 -0.4233  0.2545
   7123SM   H9T 9271   3.360   0.601   6.132  0.7815 -0.8939  0.1582
   7123SM  C10S 9272   3.517   0.661   5.975  0.0147 -0.0215 -0.4292
   7123SM  H10S 9273   3.572   0.565   5.968  0.1115  0.0132 -0.1705
   7123SM  H10T 9274   3.592   0.742   5.964 -0.9771  0.6765 -2.7228
   7123SM  C11S 9275   3.419   0.674   5.854 -0.4797 -0.1852 -0.3191
   7123SM  H11S 9276   3.400   0.779   5.821  0.1498  0.3984  1.1050
   7123SM  H11T 9277   3.323   0.625   5.881 -0.8460 -0.4590 -1.9529
   7123SM  C12S 9278   3.476   0.590   5.744 -0.4955 -0.2792  0.0473
   7123SM  H12S 9279   3.484   0.482   5.773  2.3464 -0.1353  0.1415
   7123SM  H12T 9280   3.584   0.613   5.728 -0.6270 -0.6769 -1.5581
   7123SM  C13S 9281   3.396   0.602   5.611 -0.0728  0.0007 -0.2025
   7123SM  H13S 9282   3.414   0.706   5.578 -0.7784  0.1750 -0.0479
   7123SM  H13T 9283   3.287   0.602   5.633  0.1046  1.8554  0.8131
   7123SM  C14S 9284   3.425   0.498   5.499  0.0010 -0.3984 -0.3226
   7123SM  H14S 9285   3.536   0.494   5.487 -0.1028  0.3232 -1.6690
   7123SM  H14T 9286   3.376   0.546   5.412 -0.0504  0.5268  0.2000
   7123SM  C15S 9287   3.380   0.359   5.526 -0.4912  0.0064  0.3456
   7123SM  H15S 9288   3.272   0.372   5.546 -0.7261 -1.4650  0.1499
   7123SM  H15T 9289   3.438   0.314   5.609 -1.4664 -3.4672 -0.6882
   7123SM  C16S 9290   3.386   0.259   5.408  0.0569 -0.2167 -0.1582
   7123SM  H16S 9291   3.324   0.171   5.435 -2.7295  2.2528  2.1971
   7123SM  H16T 9292   3.493   0.237   5.385  0.3006  0.2384  0.4868
   7123SM  C17S 9293   3.334   0.316   5.274 -0.0961  0.6663 -0.0215
   7123SM  H17S 9294   3.377   0.418   5.265  0.2878  1.0649  4.1259
   7123SM  H17T 9295   3.227   0.328   5.298 -0.0195 -2.1171  2.1871
   7123SM  C18S 9296   3.351   0.223   5.153  0.0034 -0.2351  0.1905
   7123SM  H18S 9297   3.299   0.127   5.175 -0.6294 -0.1012 -0.6431
   7123SM  H18T 9298   3.455   0.197   5.125 -0.0576  0.4831 -0.7625
   7123SM  H18U 9299   3.315   0.273   5.060 -0.1645  0.2755  0.5301
   7123SM   C1F 9300   3.499   0.219   6.843  0.0152 -0.4279 -0.5077
   7123SM    OF 9301   3.400   0.159   6.885 -0.0674  0.4117 -0.4825
   7123SM   C2F 9302   3.624   0.136   6.810 -0.1103  0.7120  0.0113
   7123SM   H2F 9303   3.679   0.102   6.901 -0.4647 -0.7141 -0.2833
   7123SM   H2G 9304   3.695   0.204   6.758 -0.2987  0.5035 -0.5276
   7123SM   C3F 9305   3.583   0.025   6.708  0.2613 -0.0494  0.2370
   7123SM   H3F 9306   3.500  -0.032   6.754 -0.4360  1.2326  0.5847
   7123SM   H3G 9307   3.670  -0.044   6.695  0.5760 -0.0750  2.1988
   7123SM   C4F 9308   3.558   0.084   6.562  0.4343 -0.3291  0.1310
   7123SM   H4F 9309   3.471   0.153   6.573  0.8279  0.3673 -1.0037
   7123SM   H4G 9310   3.531  -0.003   6.498  0.3915  0.1028 -0.4465
   7123SM   C5F 9311   3.677   0.149   6.499 -0.2130 -0.1990  0.0020
   7123SM   H5F 9312   3.764   0.090   6.534 -1.3161 -1.6763  0.3669
   7123SM   H5G 9313   3.685   0.254   6.537 -0.0006 -0.0997 -0.3175
   7123SM   C6F 9314   3.669   0.153   6.342 -0.2352  0.2633  0.2981
   7123SM   H6F 9315   3.594   0.225   6.302  1.0123  1.4286 -0.0350
   7123SM   H6G 9316   3.637   0.054   6.303  0.3225  1.0812 -2.4730
   7123SM   C7F 9317   3.807   0.182   6.284 -0.1566 -0.7711  0.3109
   7123SM   H7F 9318   3.870   0.093   6.303  0.7933  0.3482  2.7706
   7123SM   H7G 9319   3.852   0.266   6.342  1.0250 -0.0046 -1.5958
   7123SM   C8F 9320   3.792   0.217   6.131  0.0711  0.4876  0.1610
   7123SM   H8F 9321   3.713   0.290   6.105  0.7611  0.7589 -1.2518
   7123SM   H8G 9322   3.762   0.130   6.068  2.5063 -0.2824 -0.0583
   7123SM   C9F 9323   3.931   0.247   6.073 -0.3351 -0.0313 -0.0584
   7123SM   H9F 9324   4.006   0.174   6.110 -1.1923 -0.7458  0.3002
   7123SM   H9G 9325   3.956   0.350   6.103  0.1849 -0.4372  0.9346
   7123SM  C10F 9326   3.937   0.232   5.919 -0.2472 -0.3128 -0.6295
   7123SM  H10F 9327   3.942   0.125   5.890  0.2716 -0.9823  1.6977
   7123SM  H10G 9328   4.032   0.284   5.895 -1.1746  1.5506 -0.4804
   7123SM  C11F 9329   3.836   0.319   5.849 -0.1707  0.2488  0.5588
   7123SM  H11F 9330   3.822   0.420   5.894  0.0940  1.2102 -1.3917
   7123SM  H11G 9331   3.737   0.270   5.860 -0.0488 -0.5811 -1.6317
   7123SM  C12F 9332   3.863   0.339   5.695  0.0652  0.9395 -0.0737
   7123SM  H12F 9333   3.973   0.351   5.687  0.2706 -0.6154  0.2672
   7123SM  H12G 9334   3.808   0.433   5.671 -0.8548  0.4059 -0.0783
   7123SM  C13F 9335   3.816   0.217   5.609 -0.3820  0.1148 -0.6687
   7123SM  H13F 9336   3.705   0.212   5.618 -0.5914  0.6773 -2.4966
   7123SM  H13G 9337   3.865   0.129   5.654  1.2005  1.1500 -0.2837
   7123SM  C14F 9338   3.857   0.225   5.464 -0.0327  0.4440  0.5778
   7123SM  H14F 9339   3.959   0.268   5.448 -0.2598  0.6088 -0.4945
   7123SM  H14G 9340   3.797   0.303   5.412 -0.9777 -0.0947  0.8458
   7123SM  C15F 9341   3.830   0.086   5.388 -0.0108 -0.2423 -0.1479
   7123SM  H15F 9342   3.725   0.051   5.394  0.2040 -0.6145  2.0568
   7123SM  H15G 9343   3.899   0.011   5.432  0.5048  1.2218  1.6742
   7123SM  C16F 9344   3.871   0.102   5.241 -0.3576 -0.0048  0.2424
   7123SM  H16F 9345   3.980   0.088   5.232 -0.7894 -2.8057 -1.7105
   7123SM  H16G 9346   3.847   0.208   5.215 -1.4481  0.1831  1.8950
   7123SM  C17F 9347   3.795   0.008   5.143 -0.1176 -0.0557  0.5177
   7123SM  H17F 9348   3.831   0.037   5.042 -0.7204  1.2711  0.6653
   7123SM  H17G 9349   3.686   0.028   5.147 -0.2224 -0.4763  0.0060
   7123SM  C18F 9350   3.824  -0.133   5.191  0.0016 -0.6254 -0.4182
   7123SM  H18F 9351   3.746  -0.152   5.269 -0.6708  1.0740 -0.6213
   7123SM  H18G 9352   3.922  -0.138   5.242 -1.9317  0.3884  3.8979
   7123SM  C19F 9353   3.823  -0.237   5.079  0.4972 -0.4585 -0.8850
   7123SM  H19F 9354   3.914  -0.222   5.017  1.2050 -1.8132 -0.2109
   7123SM  H19G 9355   3.732  -0.234   5.017  0.8851  1.0724 -1.4390
   7123SM  C20F 9356   3.839  -0.380   5.142  0.1977 -0.4321 -0.1733
   7123SM  H20F 9357   3.743  -0.390   5.198 -1.1097  0.5644 -2.1414
   7123SM  H20G 9358   3.923  -0.396   5.214  0.3600  3.4416  0.7503
   7123SM  C21F 9359   3.868  -0.488   5.043 -0.5395  0.0848 -0.5044
   7123SM  H21F 9360   3.962  -0.475   4.985 -0.3146  0.0539 -0.1444
   7123SM  H21G 9361   3.777  -0.494   4.978 -2.6533 -1.8446  2.3794
   7123SM  C22F 9362   3.867  -0.634   5.099  0.0459  0.0620 -0.2124
   7123SM  H22F 9363   3.767  -0.662   5.138  0.4894 -0.6176  0.4422
   7123SM  H22G 9364   3.939  -0.631   5.184 -1.8320  1.0060  1.4343
   7123SM  C23F 9365   3.908  -0.735   4.997 -1.4234 -0.1668 -0.3650
   7123SM  H23F 9366   3.903  -0.841   5.031 -2.5959  0.0301  0.1027
   7123SM  H23G 9367   4.018  -0.735   4.982 -1.1699 -0.7796  1.3255
   7123SM  H23H 9368   3.860  -0.736   4.897  2.1998 -0.7892 -2.2969
   7223SM     N 9369   6.424   3.357   7.180 -0.3521  0.2623 -0.1590
   7223SM   C15 9370   6.366   3.493   7.183  0.4313  0.3840  0.9272
   7223SM  H15A 9371   6.444   3.562   7.155  0.3655  0.1431  0.1228
   7223SM  H15B 9372   6.321   3.524   7.276 -1.0385 -0.8796  0.6670
   7223SM  H15C 9373   6.286   3.490   7.111  0.6128 -2.0431  0.7425
   7223SM   C14 9374   6.325   3.262   7.228 -0.5567  0.1662 -0.4379
   7223SM  H14A 9375   6.249   3.251   7.152 -2.0161  2.5643  0.5650
   7223SM  H14B 9376   6.278   3.289   7.322  1.6157  0.0933  0.7302
   7223SM  H14C 9377   6.370   3.164   7.236 -0.0368  0.4513  0.1973
   7223SM   C13 9378   6.478   3.332   7.041  0.5253  0.3817 -0.4298
   7223SM  H13A 9379   6.534   3.239   7.036  3.6234  1.9202  1.8404
   7223SM  H13B 9380   6.548   3.409   7.014  0.9850  1.9073  4.3028
   7223SM  H13C 9381   6.399   3.321   6.968  0.7134 -0.1866 -0.5557
   7223SM   C12 9382   6.540   3.351   7.276  0.1146 -0.0818 -0.1799
   7223SM  H12A 9383   6.497   3.376   7.373 -1.2741 -0.2230 -0.7304
   7223SM  H12B 9384   6.606   3.432   7.250 -0.4691 -0.1710 -2.0581
   7223SM   C11 9385   6.622   3.223   7.280  0.0033  0.0089  0.0082
   7223SM  H11A 9386   6.547   3.141   7.287  0.1775 -0.1729 -0.2450
   7223SM  H11B 9387   6.686   3.227   7.370 -0.4042 -0.1980  0.3097
   7223SM     P 9388   6.830   3.272   7.126  0.1597  0.4730  0.2559
   7223SM   O13 9389   6.810   3.418   7.124 -0.4821  0.5935  0.0311
   7223SM   O14 9390   6.934   3.228   7.221  0.4567 -0.1486 -0.2520
   7223SM   O11 9391   6.874   3.236   6.979 -0.2253 -0.6104  0.2009
   7223SM   O12 9392   6.694   3.199   7.154  0.5230 -0.0908  0.2733
   7223SM   C1S 9393   6.793   3.146   6.901  0.2702 -0.7642  0.0976
   7223SM   H1S 9394   6.684   3.166   6.912  0.3262 -0.8258  0.8158
   7223SM   H1T 9395   6.822   3.041   6.926  1.3748 -1.4265 -3.3518
   7223SM    NF 9396   6.734   3.085   6.670  1.0154  0.3847  0.2373
   7223SM   HNF 9397   6.759   3.003   6.619 -0.5747  0.0645 -0.0864
   7223SM   C2S 9398   6.831   3.155   6.747 -0.0508  0.1954 -0.2721
   7223SM   H2S 9399   6.833   3.264   6.725 -2.5315  0.1961 -0.7830
   7223SM   C3S 9400   6.975   3.103   6.720  0.2503 -0.4015 -0.4396
   7223SM   H3S 9401   6.961   2.994   6.737  2.4771 -0.8461 -1.2043
   7223SM    O3 9402   7.072   3.151   6.815 -0.6678  0.6599  0.0550
   7223SM   HO3 9403   7.028   3.213   6.874  0.0178  0.1463  1.1326
   7223SM   C4S 9404   7.011   3.102   6.574 -0.7293  0.1643  0.0387
   7223SM   H4S 9405   6.991   3.009   6.519  0.1856 -0.0521  0.0626
   7223SM   C5S 9406   7.077   3.190   6.502  0.1755 -0.2130  0.4728
   7223SM   H5S 9407   7.095   3.289   6.546 -0.4173  0.6814 -1.2443
   7223SM   C6S 9408   7.111   3.173   6.355 -0.4011 -0.2329 -0.1459
   7223SM   H6S 9409   7.066   3.078   6.320 -0.6431 -0.2507  0.2067
   7223SM   H6T 9410   7.221   3.165   6.356 -0.5019 -2.0894 -0.1890
   7223SM   C7S 9411   7.069   3.293   6.274  0.0004  0.5551  0.6599
   7223SM   H7S 9412   7.113   3.289   6.172  1.2883 -0.6955  1.2478
   7223SM   H7T 9413   7.123   3.382   6.313 -1.2793  1.0161  1.4455
   7223SM   C8S 9414   6.914   3.304   6.254 -0.2054  0.2327 -0.8583
   7223SM   H8S 9415   6.893   3.396   6.194 -1.0494 -0.8478 -2.2847
   7223SM   H8T 9416   6.863   3.313   6.352  1.2815 -0.1592 -0.0280
   7223SM   C9S 9417   6.834   3.191   6.190 -0.0582 -0.1622  0.3275
   7223SM   H9S 9418   6.870   3.093   6.226  3.5880  0.2014 -1.8633
   7223SM   H9T 9419   6.842   3.184   6.079  0.6858 -2.8134  0.4882
   7223SM  C10S 9420   6.685   3.217   6.218 -0.7481  0.5050  0.1076
   7223SM  H10S 9421   6.670   3.186   6.324 -0.8821 -0.7423 -0.2712
   7223SM  H10T 9422   6.618   3.147   6.164  0.3869  1.3978 -2.6586
   7223SM  C11S 9423   6.639   3.365   6.186  0.5473  0.2326 -0.3434
   7223SM  H11S 9424   6.663   3.389   6.080 -0.2686  0.3707 -0.5063
   7223SM  H11T 9425   6.698   3.432   6.252  1.1470  0.6613 -1.2876
   7223SM  C12S 9426   6.491   3.373   6.202 -0.2543 -0.5064  0.1416
   7223SM  H12S 9427   6.448   3.320   6.289  0.1721  1.1834  1.4338
   7223SM  H12T 9428   6.465   3.316   6.110 -1.3026 -2.7389  1.7263
   7223SM  C13S 9429   6.435   3.517   6.188 -0.2683 -0.1601  0.3292
   7223SM  H13S 9430   6.500   3.580   6.123 -1.6408  0.9109 -0.0813
   7223SM  H13T 9431   6.416   3.565   6.286 -0.1086 -1.9225  1.2633
   7223SM  C14S 9432   6.301   3.513   6.117  0.3402 -0.1029 -0.5253
   7223SM  H14S 9433   6.239   3.460   6.192  1.0796 -0.8283 -0.4067
   7223SM  H14T 9434   6.309   3.452   6.024 -0.1467 -1.7840  0.5057
   7223SM  C15S 9435   6.239   3.652   6.097  0.8520  0.0808  0.2972
   7223SM  H15S 9436   6.287   3.702   6.010  0.7708 -0.0229  0.1933
   7223SM  H15T 9437   6.255   3.716   6.187  2.9239  0.8407 -0.5615
   7223SM  C16S 9438   6.085   3.635   6.070  0.4271  0.2388  0.2708
   7223SM  H16S 9439   6.035   3.592   6.160 -1.3887 -1.5534 -1.4595
   7223SM  H16T 9440   6.080   3.561   5.986  3.2549 -1.5746  1.5478
   7223SM  C17S 9441   6.017   3.769   6.029 -0.4983  0.1819  0.2700
   7223SM  H17S 9442   6.030   3.799   5.922  0.2123 -2.6330 -0.5202
   7223SM  H17T 9443   6.053   3.853   6.091 -0.1899 -0.5394  1.0747
   7223SM  C18S 9444   5.859   3.751   6.056  0.4640  0.3616  0.7030
   7223SM  H18S 9445   5.837   3.728   6.162 -0.2388  0.4517  0.5819
   7223SM  H18T 9446   5.820   3.678   5.982  1.7913  1.0605 -0.7352
   7223SM  H18U 9447   5.813   3.852   6.041 -0.4468  0.0493  1.2971
   7223SM   C1F 9448   6.610   3.134   6.649  0.4111 -0.0265  0.1373
   7223SM    OF 9449   6.575   3.253   6.678  0.2378 -0.3630 -0.3185
   7223SM   C2F 9450   6.522   3.045   6.566  0.5038 -0.7888 -0.0144
   7223SM   H2F 9451   6.565   2.943   6.557  0.6005 -1.0006  2.2455
   7223SM   H2G 9452   6.510   3.091   6.465  0.6965 -3.4365 -1.3063
   7223SM   C3F 9453   6.380   3.040   6.637 -0.5899  0.6746 -0.0741
   7223SM   H3F 9454   6.352   3.141   6.672  0.6595  2.6856 -4.2748
   7223SM   H3G 9455   6.400   2.969   6.720  0.1634  1.5172  0.4854
   7223SM   C4F 9456   6.265   2.986   6.554  0.1493 -0.6771 -0.4205
   7223SM   H4F 9457   6.178   2.954   6.615  0.8530 -1.9408 -0.0319
   7223SM   H4G 9458   6.304   2.885   6.529 -2.2628 -2.2825  1.8114
   7223SM   C5F 9459   6.225   3.063   6.429  0.2096  0.6146 -0.8646
   7223SM   H5F 9460   6.322   3.102   6.390  0.9339  1.9645  2.0660
   7223SM   H5G 9461   6.162   3.150   6.455 -0.9642  0.1231 -1.9205
   7223SM   C6F 9462   6.160   2.980   6.319  0.7090 -0.3529 -0.5964
   7223SM   H6F 9463   6.054   2.956   6.341  0.9544  1.2156  3.2226
   7223SM   H6G 9464   6.215   2.884   6.318 -1.7793 -1.9334  1.1047
   7223SM   C7F 9465   6.167   3.060   6.186  0.0146 -0.3903 -0.1173
   7223SM   H7F 9466   6.274   3.077   6.159  0.0604 -1.8950 -1.0372
   7223SM   H7G 9467   6.111   3.154   6.201 -1.5430 -1.4122  0.7391
   7223SM   C8F 9468   6.109   2.975   6.073  0.0603 -0.1130  0.6680
   7223SM   H8F 9469   6.128   3.015   5.971 -1.2672 -2.5056 -0.6066
   7223SM   H8G 9470   5.999   2.967   6.079 -0.0244 -0.3989 -0.7655
   7223SM   C9F 9471   6.166   2.832   6.056  0.4138  0.5200  0.1449
   7223SM   H9F 9472   6.143   2.772   6.147 -2.0936 -0.2145 -0.9048
   7223SM   H9G 9473   6.277   2.842   6.058  0.2305  2.9445  0.2485
   7223SM  C10F 9474   6.114   2.753   5.933  0.0183 -0.3434 -0.5548
   7223SM  H10F 9475   6.101   2.822   5.847 -0.6750 -1.2210 -1.1647
   7223SM  H10G 9476   6.022   2.696   5.957  0.1612  0.1263  1.2521
   7223SM  C11F 9477   6.213   2.649   5.892  0.8330  0.4738  0.0289
   7223SM  H11F 9478   6.234   2.574   5.972 -0.7516  0.8424  0.8251
   7223SM  H11G 9479   6.313   2.691   5.867  1.5621  0.4586  2.6472
   7223SM  C12F 9480   6.166   2.579   5.767  0.0326  0.4742  0.5357
   7223SM  H12F 9481   6.155   2.653   5.685 -2.0662 -0.8794 -0.4984
   7223SM  H12G 9482   6.063   2.541   5.783  0.1686  0.5617  1.7124
   7223SM  C13F 9483   6.265   2.465   5.725  0.0380 -0.1149 -0.0140
   7223SM  H13F 9484   6.234   2.378   5.785 -0.1259 -0.6359 -0.8348
   7223SM  H13G 9485   6.372   2.485   5.749  0.3657 -0.9792 -0.6897
   7223SM  C14F 9486   6.257   2.430   5.573 -0.3559  0.0194 -1.0014
   7223SM  H14F 9487   6.284   2.514   5.505  1.0342  0.5399  0.1283
   7223SM  H14G 9488   6.153   2.397   5.557 -0.1649 -0.3617 -1.4880
   7223SM  C15F 9489   6.358   2.314   5.531  1.0725 -0.0232  0.0868
   7223SM  H15F 9490   6.323   2.222   5.582 -2.0916 -0.0948 -1.9156
   7223SM  H15G 9491   6.465   2.335   5.554  2.3704 -2.7423 -2.7577
   7223SM  C16F 9492   6.340   2.285   5.386  0.0956  0.5967 -0.4490
   7223SM  H16F 9493   6.236   2.305   5.354  0.2943 -1.1487 -2.3836
   7223SM  H16G 9494   6.381   2.184   5.365  0.9916  1.0780 -1.0529
   7223SM  C17F 9495   6.436   2.381   5.309  0.5695 -0.3851 -0.1268
   7223SM  H17F 9496   6.537   2.382   5.355  1.1175  1.3689 -1.2666
   7223SM  H17G 9497   6.394   2.484   5.310  0.6786 -0.3247 -0.8667
   7223SM  C18F 9498   6.452   2.342   5.162 -0.6889  0.0333  0.0529
   7223SM  H18F 9499   6.488   2.238   5.152 -0.4115  0.0935  0.3957
   7223SM  H18G 9500   6.534   2.399   5.112 -0.3062 -2.2904 -2.1405
   7223SM  C19F 9501   6.321   2.345   5.081 -0.1551  0.6224 -0.4466
   7223SM  H19F 9502   6.265   2.441   5.076 -0.2141  0.6778  0.9140
   7223SM  H19G 9503   6.253   2.282   5.142  0.3768 -1.2763 -1.7169
   7223SM  C20F 9504   6.340   2.282   4.943  0.2160 -0.3599 -0.4173
   7223SM  H20F 9505   6.391   2.185   4.931  0.1442 -0.1825 -2.5906
   7223SM  H20G 9506   6.372   2.361   4.871  0.1310 -0.7654 -0.9076
   7223SM  C21F 9507   6.205   2.240   4.875 -0.7689 -0.2458  0.4476
   7223SM  H21F 9508   6.125   2.313   4.898 -0.7388  0.6798 -2.0118
   7223SM  H21G 9509   6.184   2.133   4.897  0.4728 -0.2315  1.8266
   7223SM  C22F 9510   6.215   2.266   4.721  0.1871  0.0134 -0.5850
   7223SM  H22F 9511   6.305   2.213   4.683  1.0701  0.3765  0.9367
   7223SM  H22G 9512   6.246   2.369   4.692  0.6207  0.1935  0.4730
   7223SM  C23F 9513   6.087   2.214   4.648  0.9823 -0.1103 -0.0106
   7223SM  H23F 9514   6.067   2.107   4.671 -0.0891 -0.0121 -0.4395
   7223SM  H23G 9515   6.090   2.227   4.538  1.4248 -1.5188 -0.1786
   7223SM  H23H 9516   6.007   2.280   4.688 -1.0347 -2.0610 -0.6193
   7323SM     N 9517   4.429   0.893   7.211 -0.3589  0.2084 -0.2434
   7323SM   C15 9518   4.409   0.964   7.347 -0.0748 -0.7484  0.0059
   7323SM  H15A 9519   4.486   0.947   7.420  0.9624  0.3076 -0.7997
   7323SM  H15B 9520   4.311   0.956   7.391  1.0315 -1.7429  2.4922
   7323SM  H15C 9521   4.403   1.070   7.329 -1.3253 -0.6216  1.0362
   7323SM   C14 9522   4.444   0.747   7.236 -0.5108  1.1626  0.1708
   7323SM  H14A 9523   4.357   0.711   7.290 -0.7313  0.2054 -0.7865
   7323SM  H14B 9524   4.535   0.729   7.291 -0.3549 -3.4570 -1.2045
   7323SM  H14C 9525   4.446   0.698   7.140  0.8110 -0.2986  0.9035
   7323SM   C13 9526   4.304   0.916   7.137 -0.1408 -0.0704  0.5076
   7323SM  H13A 9527   4.311   0.873   7.038 -1.5818 -0.9931  0.7752
   7323SM  H13B 9528   4.286   1.020   7.112  2.4809 -0.1132 -1.9856
   7323SM  H13C 9529   4.215   0.881   7.187  1.0586 -0.0698  2.7577
   7323SM   C12 9530   4.547   0.955   7.139 -0.0949 -0.3881  0.2314
   7323SM  H12A 9531   4.631   0.933   7.204 -0.2622 -2.0097 -0.0547
   7323SM  H12B 9532   4.535   1.062   7.128  1.7899  0.0888  2.0902
   7323SM   C11 9533   4.572   0.898   6.999 -0.9303 -0.0264  0.7458
   7323SM  H11A 9534   4.655   0.964   6.964  0.8285 -1.6253  1.6933
   7323SM  H11B 9535   4.485   0.920   6.934 -0.0261 -0.4386 -0.6348
   7323SM     P 9536   4.765   0.721   7.005 -0.2539  0.1676 -0.1312
   7323SM   O13 9537   4.826   0.766   7.132 -0.4919 -0.3906  0.5904
   7323SM   O14 9538   4.779   0.575   6.983  0.5870 -0.6507  0.0203
   7323SM   O11 9539   4.837   0.800   6.893 -0.4858  0.0998 -0.0968
   7323SM   O12 9540   4.621   0.765   6.987 -0.0477  0.7889 -0.7649
   7323SM   C1S 9541   4.820   0.757   6.754 -0.2414 -0.3986  0.0501
   7323SM   H1S 9542   4.713   0.764   6.728  0.1910  0.2333 -1.6708
   7323SM   H1T 9543   4.867   0.658   6.733  2.1824  0.5553  0.5441
   7323SM    NF 9544   4.878   0.826   6.516 -0.3051 -0.5880 -1.0929
   7323SM   HNF 9545   4.925   0.750   6.472  1.9230 -0.5447  0.9934
   7323SM   C2S 9546   4.900   0.844   6.661 -0.4203 -0.6035  0.0259
   7323SM   H2S 9547   4.886   0.948   6.700  2.3949 -0.3077  0.4609
   7323SM   C3S 9548   5.054   0.827   6.688 -0.1479  0.1967 -0.1129
   7323SM   H3S 9549   5.078   0.720   6.667 -2.5065 -0.2420 -0.9320
   7323SM    O3 9550   5.101   0.861   6.823  0.0393 -0.4519 -0.2040
   7323SM   HO3 9551   5.019   0.877   6.871  0.3471  0.8490 -0.0903
   7323SM   C4S 9552   5.136   0.917   6.603  0.0895 -0.0752  0.3222
   7323SM   H4S 9553   5.101   1.022   6.602 -1.4013 -0.5424 -0.7798
   7323SM   C5S 9554   5.238   0.870   6.524  0.9759 -0.3705 -0.1044
   7323SM   H5S 9555   5.263   0.763   6.526  1.7251 -0.2100 -0.5580
   7323SM   C6S 9556   5.310   0.951   6.425 -0.4008 -0.0611  0.2597
   7323SM   H6S 9557   5.420   0.950   6.439 -0.2777 -1.2314 -0.6883
   7323SM   H6T 9558   5.285   1.060   6.426 -0.6280 -0.1063 -0.1175
   7323SM   C7S 9559   5.283   0.897   6.281  0.6272  0.1544 -0.2779
   7323SM   H7S 9560   5.176   0.866   6.276  0.9353 -1.0453  0.3069
   7323SM   H7T 9561   5.340   0.803   6.266  0.6666  0.0394  0.5426
   7323SM   C8S 9562   5.327   1.004   6.174  0.1903  0.3568 -0.0627
   7323SM   H8S 9563   5.437   1.020   6.183  0.5915 -1.2269 -1.5006
   7323SM   H8T 9564   5.276   1.097   6.207  0.3734  0.9214 -1.3464
   7323SM   C9S 9565   5.296   0.955   6.030 -0.3417 -0.0399 -1.0649
   7323SM   H9S 9566   5.311   1.044   5.966  1.9163 -0.4140 -1.1456
   7323SM   H9T 9567   5.190   0.927   6.015  0.0974 -1.2416 -2.0848
   7323SM  C10S 9568   5.400   0.849   5.969  0.1035  0.5039  0.2518
   7323SM  H10S 9569   5.364   0.752   6.007  2.2075  0.2347  1.7517
   7323SM  H10T 9570   5.501   0.861   6.015 -0.0759 -0.7977  1.0022
   7323SM  C11S 9571   5.401   0.851   5.817  0.1206  0.3292  0.4151
   7323SM  H11S 9572   5.442   0.949   5.784  1.9550 -0.5713 -0.0933
   7323SM  H11T 9573   5.301   0.830   5.773  0.8752  0.3708 -1.3994
   7323SM  C12S 9574   5.503   0.742   5.754 -0.7636  0.5723 -0.3838
   7323SM  H12S 9575   5.473   0.642   5.792  0.7403  0.6603  1.1591
   7323SM  H12T 9576   5.600   0.765   5.801 -0.1145 -2.2514 -0.1383
   7323SM  C13S 9577   5.515   0.734   5.600  0.1087 -0.4538 -0.3688
   7323SM  H13S 9578   5.538   0.842   5.586  0.1182  0.2706  3.9395
   7323SM  H13T 9579   5.413   0.718   5.560  0.7943 -0.1482 -2.3464
   7323SM  C14S 9580   5.625   0.646   5.533 -0.3174  0.7222  0.0437
   7323SM  H14S 9581   5.592   0.544   5.561  0.1377  1.2493  2.7831
   7323SM  H14T 9582   5.722   0.663   5.585 -0.0683  2.0430 -0.7752
   7323SM  C15S 9583   5.637   0.666   5.386 -0.7936  0.0703 -0.3645
   7323SM  H15S 9584   5.649   0.776   5.373  1.1806 -0.0291  0.2904
   7323SM  H15T 9585   5.548   0.632   5.330 -1.0294  1.6291 -0.9908
   7323SM  C16S 9586   5.757   0.602   5.311  0.1992  0.8321  0.9508
   7323SM  H16S 9587   5.729   0.496   5.295 -2.6755  1.5385  0.7171
   7323SM  H16T 9588   5.855   0.625   5.357  1.0477  1.7005 -1.1673
   7323SM  C17S 9589   5.775   0.652   5.161  0.6819  0.9152 -0.1476
   7323SM  H17S 9590   5.796   0.760   5.169 -1.0785  1.4090 -1.5869
   7323SM  H17T 9591   5.675   0.633   5.117  0.0941 -1.3116  1.9275
   7323SM  C18S 9592   5.889   0.588   5.080 -0.5334  0.0851  0.2080
   7323SM  H18S 9593   5.895   0.618   4.973 -0.9089 -0.3137  0.0697
   7323SM  H18T 9594   5.881   0.477   5.090 -2.7355  0.4328  4.2496
   7323SM  H18U 9595   5.983   0.628   5.124  0.1294 -0.1143 -0.9735
   7323SM   C1F 9596   4.762   0.866   6.469 -0.0131 -0.5009 -0.0006
   7323SM    OF 9597   4.690   0.947   6.530 -0.3824  0.1047 -0.2764
   7323SM   C2F 9598   4.735   0.802   6.343 -0.5790  0.2085  0.2930
   7323SM   H2F 9599   4.759   0.694   6.344 -2.3340 -0.2382 -0.8549
   7323SM   H2G 9600   4.795   0.847   6.261  0.4723  1.7029  1.8157
   7323SM   C3F 9601   4.586   0.821   6.296  0.0128  0.1370 -0.0838
   7323SM   H3F 9602   4.571   0.930   6.279  0.8789  0.1097 -1.0873
   7323SM   H3G 9603   4.527   0.778   6.380  0.9243  0.3620  0.6849
   7323SM   C4F 9604   4.548   0.732   6.179  0.6955  0.3155  0.2476
   7323SM   H4F 9605   4.437   0.731   6.187  0.4775  0.4729 -2.2064
   7323SM   H4G 9606   4.590   0.629   6.180  1.9750  0.7840 -1.2685
   7323SM   C5F 9607   4.588   0.791   6.038  0.1617  0.3280  0.1763
   7323SM   H5F 9608   4.699   0.796   6.032  0.0859  0.8730 -0.9684
   7323SM   H5G 9609   4.543   0.889   6.013  1.8154  1.2071  0.4744
   7323SM   C6F 9610   4.544   0.696   5.917  0.1581 -0.2296  0.2305
   7323SM   H6F 9611   4.435   0.698   5.895  0.1139  2.4344  0.4122
   7323SM   H6G 9612   4.561   0.593   5.954  0.8650  0.4022  1.7592
   7323SM   C7F 9613   4.614   0.736   5.784  0.1190 -0.0308 -0.5160
   7323SM   H7F 9614   4.722   0.746   5.810  0.9733 -1.1970 -3.1934
   7323SM   H7G 9615   4.587   0.837   5.748  1.4292 -0.0978 -1.7811
   7323SM   C8F 9616   4.612   0.629   5.675  0.6151  0.1833 -0.0104
   7323SM   H8F 9617   4.508   0.601   5.646  0.2362  1.1253  0.4212
   7323SM   H8G 9618   4.654   0.531   5.707 -0.0640  0.4626  1.8057
   7323SM   C9F 9619   4.685   0.677   5.551 -0.1739  0.4796 -0.6678
   7323SM   H9F 9620   4.778   0.732   5.575 -0.6300  1.5674 -1.2639
   7323SM   H9G 9621   4.617   0.753   5.505  1.1858  1.3163 -1.3712
   7323SM  C10F 9622   4.700   0.560   5.452 -0.0873  0.2527 -1.3646
   7323SM  H10F 9623   4.598   0.527   5.425 -0.1504  2.1991 -3.8486
   7323SM  H10G 9624   4.749   0.476   5.507  2.1835  1.8065 -0.8859
   7323SM  C11F 9625   4.785   0.589   5.333  0.2090 -0.1593  0.2460
   7323SM  H11F 9626   4.884   0.629   5.366  0.1054  2.3772 -2.1408
   7323SM  H11G 9627   4.736   0.675   5.283 -2.0609 -1.4250  0.1724
   7323SM  C12F 9628   4.799   0.471   5.237  0.0021  1.1620 -0.0406
   7323SM  H12F 9629   4.703   0.426   5.204 -0.2571  0.4467  1.5673
   7323SM  H12G 9630   4.834   0.390   5.305 -0.5975  2.5194  1.9985
   7323SM  C13F 9631   4.900   0.491   5.126 -0.0594 -0.3842 -0.7102
   7323SM  H13F 9632   4.996   0.519   5.173 -0.0571 -0.4022 -0.7043
   7323SM  H13G 9633   4.867   0.572   5.057  0.4822  1.7352  1.3824
   7323SM  C14F 9634   4.925   0.358   5.052 -0.4820  0.3214 -0.2844
   7323SM  H14F 9635   4.828   0.306   5.065 -0.1331 -0.0296  0.9732
   7323SM  H14G 9636   5.009   0.298   5.091 -0.7163  0.6049  0.6852
   7323SM  C15F 9637   4.963   0.355   4.897 -0.2708 -0.0043  0.0360
   7323SM  H15F 9638   4.879   0.405   4.845 -1.5239 -1.0768  0.9826
   7323SM  H15G 9639   4.959   0.249   4.864 -0.0343  0.0257 -0.0953
   7323SM  C16F 9640   5.097   0.419   4.863 -0.8613  0.4249 -0.3168
   7323SM  H16F 9641   5.167   0.376   4.937 -2.8112 -1.3681  0.5751
   7323SM  H16G 9642   5.093   0.528   4.882  2.2410  0.5780 -0.0125
   7323SM  C17F 9643   5.158   0.371   4.735  0.5505  0.2847 -0.0946
   7323SM  H17F 9644   5.183   0.262   4.735 -0.5303  0.0199 -0.5117
   7323SM  H17G 9645   5.245   0.434   4.709 -0.8919  1.4220 -2.5298
   7323SM  C18F 9646   5.051   0.398   4.621  0.0936  0.2570 -0.3226
   7323SM  H18F 9647   5.033   0.506   4.605 -1.5308 -0.0196 -0.4824
   7323SM  H18G 9648   4.955   0.345   4.640 -0.2313  0.3613 -1.5961
   7323SM  C19F 9649   5.094   0.347   4.485 -0.1795 -0.0469 -0.3156
   7323SM  H19F 9650   5.103   0.237   4.490 -0.0527 -0.0221  4.0384
   7323SM  H19G 9651   5.192   0.397   4.465 -0.7588  0.8791 -0.9391
   7323SM  C20F 9652   5.007   0.380   4.365  0.3617 -0.5066 -0.2828
   7323SM  H20F 9653   4.993   0.488   4.344 -3.5035 -0.6928  0.6209
   7323SM  H20G 9654   4.910   0.326   4.372 -0.7246  1.2347 -1.1270
   7323SM  C21F 9655   5.060   0.322   4.235 -0.0289 -0.7085  0.0060
   7323SM  H21F 9656   5.047   0.212   4.223  0.9574 -0.7310 -1.0024
   7323SM  H21G 9657   5.168   0.343   4.221  0.2933 -2.0683  0.2542
   7323SM  C22F 9658   4.983   0.383   4.114 -0.3601 -0.2615 -0.6528
   7323SM  H22F 9659   4.984   0.493   4.128  1.1218 -0.4385  1.0692
   7323SM  H22G 9660   4.876   0.356   4.114 -0.2067 -0.9247 -1.5652
   7323SM  C23F 9661   5.041   0.338   3.982  0.5910 -0.0657 -0.1732
   7323SM  H23F 9662   5.142   0.381   3.964  0.8584 -0.5195  0.2304
   7323SM  H23G 9663   4.975   0.381   3.903  1.8443  1.4661 -0.4485
   7323SM  H23H 9664   5.065   0.230   3.970  0.3746 -0.4646  2.4217
   7423SM     N 9665   0.524   4.022   7.123  0.2756 -0.4320 -0.6713
   7423SM   C15 9666   0.584   4.001   7.260 -0.5613 -0.3505  0.1573
   7423SM  H15A 9667   0.677   4.054   7.274  0.3442 -1.9241  0.3449
   7423SM  H15B 9668   0.605   3.898   7.285 -0.6980 -0.4472 -0.1142
   7423SM  H15C 9669   0.519   4.038   7.337  1.4098  1.2625  1.1186
   7423SM   C14 9670   0.428   3.916   7.100  0.1233  0.7936 -0.0250
   7423SM  H14A 9671   0.375   3.929   7.007 -0.8938  1.9671  0.6881
   7423SM  H14B 9672   0.353   3.922   7.178 -2.4702 -4.1818 -1.7304
   7423SM  H14C 9673   0.458   3.812   7.108 -1.1625  0.4728  1.0459
   7423SM   C13 9674   0.461   4.154   7.121  0.5019  0.1746  0.4536
   7423SM  H13A 9675   0.400   4.176   7.208  0.3442  0.9920  0.1445
   7423SM  H13B 9676   0.405   4.167   7.029 -1.9404  0.8364  1.9245
   7423SM  H13C 9677   0.540   4.228   7.120  1.6338 -0.9492 -2.4773
   7423SM   C12 9678   0.632   4.008   7.018  0.3241 -0.0846 -0.4494
   7423SM  H12A 9679   0.598   4.053   6.927  1.0009 -0.8786 -1.1160
   7423SM  H12B 9680   0.652   3.902   7.004  1.1010 -0.4109  2.3627
   7423SM   C11 9681   0.767   4.077   7.047 -0.2357 -0.2088  0.2615
   7423SM  H11A 9682   0.828   4.040   6.961 -1.5928  2.2706 -1.9243
   7423SM  H11B 9683   0.810   4.040   7.142  0.2292  0.5496  0.3559
   7423SM     P 9684   0.832   4.312   6.959 -0.7766  0.4366 -0.1932
   7423SM   O13 9685   0.728   4.391   6.888 -0.3856  0.7798  0.3022
   7423SM   O14 9686   0.924   4.385   7.045 -0.4898 -0.4776  0.3611
   7423SM   O11 9687   0.914   4.222   6.859  0.6214  0.6152 -0.3652
   7423SM   O12 9688   0.752   4.212   7.055 -0.0804  0.1566  0.1850
   7423SM   C1S 9689   0.865   4.177   6.732  0.0204 -0.2346 -0.6092
   7423SM   H1S 9690   0.762   4.135   6.741 -0.8813  2.2613  2.5560
   7423SM   H1T 9691   0.921   4.086   6.703 -1.9093 -1.5116 -0.5290
   7423SM    NF 9692   0.837   4.208   6.481 -0.0322 -0.6195 -0.6300
   7423SM   HNF 9693   0.904   4.181   6.412 -0.8540 -0.2069 -1.6101
   7423SM   C2S 9694   0.884   4.263   6.606 -1.0454 -0.9177 -0.0548
   7423SM   H2S 9695   0.822   4.353   6.625  0.6565 -0.2748  3.1463
   7423SM   C3S 9696   1.038   4.319   6.605 -0.2984 -0.1831  0.7855
   7423SM   H3S 9697   1.103   4.229   6.599 -1.1608 -0.8096  0.5874
   7423SM    O3 9698   1.083   4.390   6.724  0.2557  0.3858 -0.2877
   7423SM   HO3 9699   1.027   4.350   6.791  0.3822  1.6713  0.6129
   7423SM   C4S 9700   1.054   4.396   6.473  0.2076 -0.3647 -0.1610
   7423SM   H4S 9701   1.094   4.338   6.389 -0.3470  1.4608 -1.7853
   7423SM   C5S 9702   1.039   4.533   6.467 -0.3560 -0.6129  0.1303
   7423SM   H5S 9703   1.017   4.595   6.555 -1.2861 -0.6773 -0.0473
   7423SM   C6S 9704   1.080   4.610   6.342  0.4171 -0.0974 -0.2503
   7423SM   H6S 9705   1.162   4.684   6.354 -1.1757  1.9617 -1.5573
   7423SM   H6T 9706   0.994   4.667   6.301 -1.0916 -1.9480  0.1733
   7423SM   C7S 9707   1.137   4.534   6.217 -0.4707  0.7313  0.6434
   7423SM   H7S 9708   1.073   4.447   6.190  3.9749 -1.7894 -3.0249
   7423SM   H7T 9709   1.239   4.499   6.241 -0.8295 -1.5403 -0.8680
   7423SM   C8S 9710   1.129   4.624   6.098  0.2942 -0.0408 -0.1072
   7423SM   H8S 9711   1.199   4.708   6.118  0.9027  0.0705 -2.3707
   7423SM   H8T 9712   1.033   4.677   6.082  0.8822  0.8736 -0.6744
   7423SM   C9S 9713   1.166   4.542   5.975 -0.1316 -0.6037  0.3090
   7423SM   H9S 9714   1.082   4.472   5.954 -1.2717  0.6848  0.5116
   7423SM   H9T 9715   1.262   4.489   5.996  1.0771  0.9498 -1.0805
   7423SM  C10S 9716   1.186   4.624   5.845  0.6729  0.1021 -0.0121
   7423SM  H10S 9717   1.271   4.693   5.865 -0.7999  2.4419 -1.3606
   7423SM  H10T 9718   1.087   4.670   5.825  0.1762 -0.5785  0.7979
   7423SM  C11S 9719   1.214   4.546   5.715  0.2733 -0.2785  0.1377
   7423SM  H11S 9720   1.117   4.526   5.664 -0.1645  1.9237  0.0136
   7423SM  H11T 9721   1.259   4.448   5.740 -1.0674 -0.9426  0.0280
   7423SM  C12S 9722   1.291   4.631   5.621 -0.3733  0.3387 -0.0715
   7423SM  H12S 9723   1.276   4.739   5.640 -0.0044  0.0927  1.8224
   7423SM  H12T 9724   1.261   4.606   5.517 -3.3705  2.7764  0.0643
   7423SM  C13S 9725   1.442   4.616   5.645 -0.1836 -0.6283 -0.1867
   7423SM  H13S 9726   1.474   4.520   5.599  0.4817 -0.4255 -0.1503
   7423SM  H13T 9727   1.455   4.620   5.755 -2.8187 -1.0230  0.2081
   7423SM  C14S 9728   1.526   4.740   5.588  0.1671 -0.1799  0.0446
   7423SM  H14S 9729   1.511   4.834   5.646 -0.2584  0.6467 -1.3517
   7423SM  H14T 9730   1.490   4.749   5.484 -0.4105 -0.9465  0.1699
   7423SM  C15S 9731   1.673   4.718   5.578  0.2425  0.5116 -0.0018
   7423SM  H15S 9732   1.686   4.622   5.524 -3.2700 -0.4548  0.6330
   7423SM  H15T 9733   1.724   4.715   5.677  3.1927 -2.2663 -1.4319
   7423SM  C16S 9734   1.748   4.826   5.496  0.3839 -0.2867  0.5740
   7423SM  H16S 9735   1.718   4.928   5.527 -0.4656 -0.4007  0.1434
   7423SM  H16T 9736   1.720   4.808   5.390  0.1418 -0.6979  0.7055
   7423SM  C17S 9737   1.896   4.805   5.501 -0.5023  0.3545 -0.4248
   7423SM  H17S 9738   1.923   4.697   5.496  0.3374  0.3819  2.0676
   7423SM  H17T 9739   1.920   4.834   5.605  1.8159  2.6672 -1.4921
   7423SM  C18S 9740   1.983   4.900   5.420  0.4331 -0.6380  0.4491
   7423SM  H18S 9741   1.936   5.000   5.412  1.3861 -0.1809  0.4479
   7423SM  H18T 9742   2.003   4.865   5.316  0.4427  0.9550 -0.1080
   7423SM  H18U 9743   2.081   4.905   5.472 -0.1833  1.5160  1.5226
   7423SM   C1F 9744   0.713   4.171   6.460  0.9428  0.0945  0.4552
   7423SM    OF 9745   0.624   4.197   6.538 -0.2350 -0.4720  0.3968
   7423SM   C2F 9746   0.695   4.109   6.324 -0.1450 -0.3862 -0.9327
   7423SM   H2F 9747   0.777   4.040   6.292 -1.2334 -1.7360 -0.8797
   7423SM   H2G 9748   0.691   4.195   6.254 -1.5019  0.1566 -0.2247
   7423SM   C3F 9749   0.570   4.022   6.314  0.1379 -0.3240  0.6944
   7423SM   H3F 9750   0.481   4.088   6.302 -0.4178 -0.8071  1.9874
   7423SM   H3G 9751   0.564   3.940   6.388  2.5490 -0.4006  0.8774
   7423SM   C4F 9752   0.569   3.945   6.175 -0.4882  0.1978  0.1412
   7423SM   H4F 9753   0.467   3.906   6.157 -1.3084  1.6454  1.4066
   7423SM   H4G 9754   0.636   3.856   6.174 -0.9713 -0.1761  0.3961
   7423SM   C5F 9755   0.591   4.033   6.052 -0.5458 -0.6744 -0.0272
   7423SM   H5F 9756   0.693   4.073   6.068  0.6155 -2.4491 -2.3429
   7423SM   H5G 9757   0.513   4.108   6.029 -1.2456 -0.6851  2.0706
   7423SM   C6F 9758   0.602   3.955   5.921 -0.5853 -0.1661 -0.1010
   7423SM   H6F 9759   0.518   3.882   5.921 -0.8592  0.1343  0.8095
   7423SM   H6G 9760   0.696   3.896   5.924  0.6963  1.8173  2.3694
   7423SM   C7F 9761   0.589   4.041   5.795  1.0110 -0.3561  0.2286
   7423SM   H7F 9762   0.663   4.123   5.810  0.2903  0.7787 -2.0831
   7423SM   H7G 9763   0.493   4.096   5.802  2.0118  1.4460  0.6618
   7423SM   C8F 9764   0.615   3.966   5.661  0.1389 -0.1007  0.0884
   7423SM   H8F 9765   0.524   3.907   5.636  0.4860 -1.1176  1.1408
   7423SM   H8G 9766   0.705   3.903   5.675  0.3405 -0.5160 -2.5419
   7423SM   C9F 9767   0.634   4.067   5.548 -0.3996  0.0543  0.1573
   7423SM   H9F 9768   0.709   4.146   5.568 -2.2214  2.0928 -0.6641
   7423SM   H9G 9769   0.540   4.120   5.520 -0.5732 -0.4042 -0.1385
   7423SM  C10F 9770   0.679   3.993   5.415  0.1526 -0.2410 -0.1883
   7423SM  H10F 9771   0.612   3.908   5.390  1.9797 -1.9057  0.2978
   7423SM  H10G 9772   0.780   3.955   5.442  1.8612  3.6397 -0.4054
   7423SM  C11F 9773   0.692   4.084   5.291  0.0344  0.4706  0.2668
   7423SM  H11F 9774   0.753   4.032   5.213 -1.3555 -1.5789  0.4605
   7423SM  H11G 9775   0.741   4.175   5.332 -0.3655 -0.0047  1.8868
   7423SM  C12F 9776   0.563   4.128   5.223 -0.2004  0.4740  0.0337
   7423SM  H12F 9777   0.512   4.213   5.273  0.4577  0.2390  1.1372
   7423SM  H12G 9778   0.488   4.047   5.233  1.0396 -0.6583  0.5005
   7423SM  C13F 9779   0.588   4.157   5.076  0.3410 -0.2511 -0.6964
   7423SM  H13F 9780   0.645   4.071   5.035  1.3671  0.8809 -1.7346
   7423SM  H13G 9781   0.648   4.249   5.060  1.1546 -0.7092 -0.2923
   7423SM  C14F 9782   0.455   4.161   5.001  0.3915  0.0368  0.1671
   7423SM  H14F 9783   0.408   4.262   5.001  3.0633  1.3942 -0.8035
   7423SM  H14G 9784   0.386   4.088   5.048  1.3159 -2.0960 -1.6337
   7423SM  C15F 9785   0.465   4.118   4.858 -0.3146  0.3526 -0.6338
   7423SM  H15F 9786   0.507   4.015   4.863  1.0752  0.8915 -0.6239
   7423SM  H15G 9787   0.546   4.175   4.807  0.0554 -0.3119 -0.7985
   7423SM  C16F 9788   0.331   4.137   4.790  0.1425 -0.0580  0.2132
   7423SM  H16F 9789   0.297   4.241   4.809  0.0257 -0.0331 -0.1164
   7423SM  H16G 9790   0.265   4.072   4.852 -0.6723 -0.1863 -0.7559
   7423SM  C17F 9791   0.320   4.083   4.652 -1.1323 -0.1914  0.2783
   7423SM  H17F 9792   0.393   4.001   4.634  2.4440  2.5472  1.3464
   7423SM  H17G 9793   0.361   4.161   4.586 -2.6378  1.1478  0.8475
   7423SM  C18F 9794   0.178   4.057   4.612 -0.5758 -0.2933  0.2643
   7423SM  H18F 9795   0.141   3.983   4.687 -1.9456 -0.3508 -0.4249
   7423SM  H18G 9796   0.176   4.014   4.509  0.2467  1.5050 -0.5402
   7423SM  C19F 9797   0.085   4.181   4.610  0.1158  0.4960  0.3408
   7423SM  H19F 9798   0.126   4.261   4.545 -0.6508  0.7393  0.1426
   7423SM  H19G 9799   0.086   4.233   4.708 -0.7634  1.9319 -0.3831
   7423SM  C20F 9800  -0.064   4.153   4.573 -0.1654  0.3709  0.6448
   7423SM  H20F 9801  -0.110   4.080   4.643  2.1671 -0.4948  1.3818
   7423SM  H20G 9802  -0.059   4.110   4.471 -1.1206  1.1679  0.2474
   7423SM  C21F 9803  -0.147   4.291   4.571  0.2241 -0.0855 -0.5720
   7423SM  H21F 9804  -0.231   4.269   4.502 -0.2732  1.4375 -0.4860
   7423SM  H21G 9805  -0.090   4.374   4.524  0.4209 -0.4032 -0.8992
   7423SM  C22F 9806  -0.215   4.321   4.706 -0.1878  0.5123 -0.2626
   7423SM  H22F 9807  -0.212   4.432   4.716  1.9152  0.4714 -0.0519
   7423SM  H22G 9808  -0.160   4.275   4.791  0.6939  2.2970  0.1929
   7423SM  C23F 9809  -0.359   4.269   4.711 -0.4939  0.3063 -0.2115
   7423SM  H23F 9810  -0.423   4.315   4.789 -3.7638  1.2772 -3.1944
   7423SM  H23G 9811  -0.360   4.159   4.721  2.7515  0.1925 -0.1798
   7423SM  H23H 9812  -0.411   4.307   4.619 -0.4292 -0.0092 -0.3782
   7523SM     N 9813   6.460   7.079   7.471 -0.5844  1.3401  0.0984
   7523SM   C15 9814   6.603   7.064   7.444 -0.8751  0.2519 -0.3908
   7523SM  H15A 9815   6.642   7.132   7.370  2.1208  0.4600  1.2090
   7523SM  H15B 9816   6.628   6.964   7.414 -4.2459 -0.7175 -0.3835
   7523SM  H15C 9817   6.663   7.086   7.532 -1.0659  1.5182 -0.5466
   7523SM   C14 9818   6.417   6.991   7.581 -0.1619  0.3143 -0.6049
   7523SM  H14A 9819   6.425   6.889   7.547  1.6479 -0.0995  0.9022
   7523SM  H14B 9820   6.319   7.004   7.623 -0.0870 -0.7451 -0.0700
   7523SM  H14C 9821   6.486   7.001   7.664 -1.0591 -0.1825  0.2198
   7523SM   C13 9822   6.439   7.212   7.514  0.3261 -0.3867 -0.0882
   7523SM  H13A 9823   6.479   7.285   7.445  1.4361 -0.8566  0.0327
   7523SM  H13B 9824   6.491   7.241   7.604 -1.1383  2.8793 -0.1319
   7523SM  H13C 9825   6.333   7.224   7.531  0.8520  0.6360  3.3705
   7523SM   C12 9826   6.378   7.056   7.345  0.5279 -0.1320  0.5448
   7523SM  H12A 9827   6.383   7.145   7.284 -1.5708 -0.4575 -0.1931
   7523SM  H12B 9828   6.275   7.056   7.379 -0.1300  0.7721 -1.3187
   7523SM   C11 9829   6.395   6.922   7.255  0.0296 -0.5394 -0.1913
   7523SM  H11A 9830   6.500   6.927   7.219 -0.1576 -1.7454 -0.9550
   7523SM  H11B 9831   6.325   6.917   7.169  1.6103 -4.3460 -1.4891
   7523SM     P 9832   6.245   6.742   7.354 -0.1955 -0.5077  0.1551
   7523SM   O13 9833   6.253   6.641   7.460 -0.2640 -0.4653  0.9195
   7523SM   O14 9834   6.151   6.853   7.381 -0.4355 -0.0867 -0.0672
   7523SM   O11 9835   6.220   6.666   7.210 -0.4598  0.3969  0.2954
   7523SM   O12 9836   6.390   6.805   7.336  0.1006  0.4088  0.1239
   7523SM   C1S 9837   6.316   6.558   7.188  0.1517  0.2402  0.1296
   7523SM   H1S 9838   6.329   6.495   7.278  1.5832  1.6813  0.9835
   7523SM   H1T 9839   6.414   6.601   7.159  0.0393  0.2937 -0.1728
   7523SM    NF 9840   6.322   6.343   7.057 -0.5830  0.3381 -0.2200
   7523SM   HNF 9841   6.407   6.321   7.010 -1.1838 -0.7022 -0.8642
   7523SM   C2S 9842   6.269   6.476   7.061 -0.9388  0.0925  0.5130
   7523SM   H2S 9843   6.160   6.465   7.078 -1.5579  1.7745 -1.8713
   7523SM   C3S 9844   6.304   6.561   6.932 -0.2354  0.4104  0.1475
   7523SM   H3S 9845   6.413   6.581   6.932 -0.6131  2.7887  0.2057
   7523SM    O3 9846   6.260   6.702   6.943 -0.5541  0.2980  0.0659
   7523SM   HO3 9847   6.218   6.711   7.029  0.2134  0.5348  0.4220
   7523SM   C4S 9848   6.258   6.511   6.804 -0.0378  0.1080 -0.5248
   7523SM   H4S 9849   6.163   6.455   6.811  0.2068 -0.1306  2.4429
   7523SM   C5S 9850   6.329   6.512   6.697 -0.6165 -0.4759  0.3739
   7523SM   H5S 9851   6.435   6.542   6.703 -0.4696 -0.7431 -0.6662
   7523SM   C6S 9852   6.284   6.467   6.566  0.3727 -0.1339 -0.4256
   7523SM   H6S 9853   6.183   6.421   6.563 -0.3969  1.4231  0.4762
   7523SM   H6T 9854   6.348   6.384   6.530 -1.7871 -2.4745  0.8198
   7523SM   C7S 9855   6.290   6.572   6.451  0.5161 -0.6099  0.0612
   7523SM   H7S 9856   6.215   6.651   6.473 -0.4456 -1.9179  1.7082
   7523SM   H7T 9857   6.258   6.530   6.353 -0.4823 -0.2166  0.2016
   7523SM   C8S 9858   6.425   6.645   6.431 -0.0475  0.6674 -0.0528
   7523SM   H8S 9859   6.497   6.575   6.382 -0.4684 -0.7046  1.2125
   7523SM   H8T 9860   6.457   6.670   6.535 -0.9877 -0.4435  0.5225
   7523SM   C9S 9861   6.406   6.776   6.347  0.5101  0.0304  0.3348
   7523SM   H9S 9862   6.491   6.842   6.372  1.1185 -0.2216 -0.9840
   7523SM   H9T 9863   6.307   6.819   6.375  0.9261  0.1945  1.5892
   7523SM  C10S 9864   6.407   6.750   6.192  0.3281  0.3925 -0.7766
   7523SM  H10S 9865   6.319   6.801   6.147 -1.2085 -0.4314  1.1650
   7523SM  H10T 9866   6.399   6.640   6.181  1.2453  0.3803 -1.4824
   7523SM  C11S 9867   6.531   6.804   6.114 -0.3768  0.3217  0.1342
   7523SM  H11S 9868   6.618   6.751   6.160  0.7573  2.2723  0.3237
   7523SM  H11T 9869   6.540   6.913   6.128 -0.3743  0.0486  2.7708
   7523SM  C12S 9870   6.525   6.769   5.964  0.2410 -0.0616 -0.3015
   7523SM  H12S 9871   6.441   6.815   5.906  0.3564 -0.7632 -1.0488
   7523SM  H12T 9872   6.523   6.660   5.945 -1.0775  0.1067 -1.3017
   7523SM  C13S 9873   6.641   6.821   5.893 -0.6645 -0.1194  0.2659
   7523SM  H13S 9874   6.665   6.763   5.801  2.7103  0.7248  0.4921
   7523SM  H13T 9875   6.728   6.817   5.962 -0.2296  1.9239 -0.0779
   7523SM  C14S 9876   6.629   6.975   5.847  0.3949  0.4553 -0.1373
   7523SM  H14S 9877   6.614   7.033   5.940  2.3198 -0.7789  1.0151
   7523SM  H14T 9878   6.548   6.985   5.772  0.3212 -0.7903 -0.2459
   7523SM  C15S 9879   6.762   7.011   5.781 -0.0189  0.0207 -0.3669
   7523SM  H15S 9880   6.769   6.963   5.681  2.3632  1.1353 -0.7949
   7523SM  H15T 9881   6.845   6.961   5.836 -1.7954 -1.0722  1.4587
   7523SM  C16S 9882   6.787   7.165   5.784  0.3492  0.8116 -0.4020
   7523SM  H16S 9883   6.803   7.203   5.887 -2.4723  1.2766 -0.0616
   7523SM  H16T 9884   6.691   7.209   5.750 -0.5856  0.3459  1.4911
   7523SM  C17S 9885   6.897   7.217   5.696  0.5349  0.3943  0.1033
   7523SM  H17S 9886   6.994   7.174   5.730 -0.1280 -0.9566  0.3396
   7523SM  H17T 9887   6.900   7.328   5.709  1.0742  0.2416  1.3525
   7523SM  C18S 9888   6.871   7.191   5.543 -0.4680 -0.0118 -0.0852
   7523SM  H18S 9889   6.801   7.269   5.505  0.6300  0.7536 -0.5825
   7523SM  H18T 9890   6.810   7.098   5.545  1.0767 -1.0627  1.8153
   7523SM  H18U 9891   6.968   7.181   5.491 -0.4131 -0.1779  0.0500
   7523SM   C1F 9892   6.279   6.250   7.139  0.5582  0.3492 -0.4014
   7523SM    OF 9893   6.184   6.265   7.209  0.0025  0.5276 -0.2760
   7523SM   C2F 9894   6.354   6.118   7.142 -0.8121 -0.1095  0.6543
   7523SM   H2F 9895   6.461   6.140   7.158 -0.9275  0.9959 -0.0038
   7523SM   H2G 9896   6.341   6.087   7.036 -4.3636 -1.2340  1.2851
   7523SM   C3F 9897   6.299   6.005   7.227  0.4986 -0.1452 -0.1955
   7523SM   H3F 9898   6.303   6.035   7.334 -0.6344 -1.8591  0.3553
   7523SM   H3G 9899   6.366   5.918   7.216 -0.3946 -0.6757 -1.6957
   7523SM   C4F 9900   6.159   5.949   7.191  0.3218  0.2669  0.5399
   7523SM   H4F 9901   6.089   6.033   7.170  0.1472 -0.3057 -1.3698
   7523SM   H4G 9902   6.113   5.878   7.263 -1.1224  0.6815  0.0636
   7523SM   C5F 9903   6.168   5.858   7.067  0.6698 -0.6632 -0.4552
   7523SM   H5F 9904   6.240   5.778   7.093  2.5018  1.3679  1.1319
   7523SM   H5G 9905   6.212   5.911   6.980  1.4545 -0.7632 -0.1248
   7523SM   C6F 9906   6.027   5.809   7.027  0.3780  0.3012  0.3974
   7523SM   H6F 9907   5.958   5.894   7.008 -0.8061 -1.1189 -2.1532
   7523SM   H6G 9908   5.971   5.747   7.100  0.1853 -1.0079 -0.8087
   7523SM   C7F 9909   6.029   5.732   6.893 -0.3299 -0.5421  0.4002
   7523SM   H7F 9910   6.108   5.774   6.827 -0.6144 -0.6043  0.0126
   7523SM   H7G 9911   5.927   5.750   6.853 -0.4562 -1.6294  0.2017
   7523SM   C8F 9912   6.070   5.579   6.907 -0.8117  0.2075  0.3215
   7523SM   H8F 9913   5.981   5.531   6.953 -1.1907  0.3883 -0.2146
   7523SM   H8G 9914   6.160   5.577   6.971 -0.1381  1.7997 -0.5135
   7523SM   C9F 9915   6.101   5.510   6.769  0.5228 -0.2109 -0.7079
   7523SM   H9F 9916   6.131   5.405   6.787 -0.9289 -0.5345 -0.0297
   7523SM   H9G 9917   6.189   5.558   6.721  1.6897 -2.4232 -0.9025
   7523SM  C10F 9918   5.984   5.514   6.672  0.0835  0.4349  0.2115
   7523SM  H10F 9919   5.946   5.618   6.662  1.3029  0.8005 -0.9283
   7523SM  H10G 9920   5.910   5.438   6.706  1.3112 -1.6897 -1.6304
   7523SM  C11F 9921   6.014   5.458   6.532  0.0462 -0.3228 -0.9806
   7523SM  H11F 9922   5.958   5.363   6.522 -0.9715 -0.0338  1.2055
   7523SM  H11G 9923   6.120   5.427   6.530  0.2064  0.2356 -1.1856
   7523SM  C12F 9924   5.986   5.559   6.421  0.0016 -0.0142  0.0303
   7523SM  H12F 9925   6.033   5.655   6.451 -2.2084  0.7242  1.3182
   7523SM  H12G 9926   5.878   5.581   6.408  0.0116  0.0705  0.0900
   7523SM  C13F 9927   6.041   5.521   6.285  0.0711  0.4914 -0.0205
   7523SM  H13F 9928   6.012   5.413   6.287 -2.2264  1.0533  0.8450
   7523SM  H13G 9929   6.152   5.527   6.284  0.0479  0.7641 -1.1786
   7523SM  C14F 9930   5.984   5.601   6.169 -0.2891  0.0749  0.6200
   7523SM  H14F 9931   6.007   5.708   6.189 -2.9944  0.8466 -0.0800
   7523SM  H14G 9932   5.876   5.584   6.152  0.1497 -1.4781 -0.7684
   7523SM  C15F 9933   6.056   5.575   6.031  0.0918 -0.7419  0.5045
   7523SM  H15F 9934   6.166   5.563   6.042 -0.0566 -1.6713  1.0910
   7523SM  H15G 9935   6.039   5.666   5.970  1.6268 -0.5132  0.3831
   7523SM  C16F 9936   5.992   5.455   5.952 -0.3370 -0.3289 -0.1577
   7523SM  H16F 9937   5.881   5.447   5.953 -0.2321 -2.7449 -0.6964
   7523SM  H16G 9938   6.039   5.368   6.003  3.4532  1.9983  0.6979
   7523SM  C17F 9939   6.053   5.466   5.809 -0.3986 -0.5999  0.3120
   7523SM  H17F 9940   6.040   5.370   5.756 -0.1198  0.2893 -1.4235
   7523SM  H17G 9941   6.162   5.487   5.805 -0.3628 -0.9155 -0.2985
   7523SM  C18F 9942   5.980   5.563   5.715 -0.6405  0.0578 -0.3500
   7523SM  H18F 9943   6.011   5.668   5.735 -2.0030  0.5552 -0.7253
   7523SM  H18G 9944   5.871   5.555   5.738 -0.6295  2.5153  0.9071
   7523SM  C19F 9945   5.999   5.538   5.570  0.0803 -0.5465  0.0030
   7523SM  H19F 9946   5.981   5.433   5.538 -0.4213 -0.0762 -1.3405
   7523SM  H19G 9947   6.104   5.559   5.539 -0.4142  1.7916 -0.2729
   7523SM  C20F 9948   5.914   5.631   5.490 -0.2903  0.4078 -0.9715
   7523SM  H20F 9949   5.941   5.730   5.533 -1.0205 -0.8929  2.8608
   7523SM  H20G 9950   5.807   5.605   5.505  0.5198 -3.4284 -0.8578
   7523SM  C21F 9951   5.964   5.627   5.343  0.0658  0.2238  0.3535
   7523SM  H21F 9952   6.072   5.651   5.339  0.5856 -1.9722  0.1356
   7523SM  H21G 9953   5.923   5.713   5.285 -0.3115  0.2751  0.6878
   7523SM  C22F 9954   5.949   5.493   5.278  0.2110  0.1181 -0.0243
   7523SM  H22F 9955   5.842   5.462   5.280 -0.7492  2.7416 -2.8143
   7523SM  H22G 9956   6.024   5.421   5.319  1.6573  0.9343 -1.1572
   7523SM  C23F 9957   5.978   5.499   5.125 -0.0739 -0.5682 -0.0773
   7523SM  H23F 9958   6.069   5.555   5.093  0.1812 -0.3313  1.0226
   7523SM  H23G 9959   5.895   5.559   5.081 -1.7379 -1.8897  1.1465
   7523SM  H23H 9960   5.978   5.394   5.088 -0.1333 -0.1962 -1.1861
   7623SM     N 9961   0.092   5.116   7.215 -0.3350  0.2321  0.1516
   7623SM   C15 9962   0.148   5.173   7.092  0.4944 -0.3039 -0.0577
   7623SM  H15A 9963   0.181   5.272   7.122  0.0102  0.1554 -1.0020
   7623SM  H15B 9964   0.069   5.186   7.020  0.6607  1.0765 -0.0238
   7623SM  H15C 9965   0.233   5.115   7.058  1.0642  0.1274  0.5903
   7623SM   C14 9966   0.197   5.118   7.319  0.5492 -0.0146 -0.4429
   7623SM  H14A 9967   0.211   5.222   7.345  0.6377 -0.6619  2.3447
   7623SM  H14B 9968   0.293   5.087   7.280  0.5266  0.5757 -0.9957
   7623SM  H14C 9969   0.174   5.057   7.405 -1.0659  1.7324  0.4385
   7623SM   C13 9970  -0.023   5.189   7.261 -0.0454 -0.3772  0.2129
   7623SM  H13A 9971  -0.102   5.196   7.187 -1.7252 -0.1355  1.9682
   7623SM  H13B 9972   0.010   5.287   7.293  1.0859 -0.2897 -1.1028
   7623SM  H13C 9973  -0.076   5.151   7.347 -0.3231 -1.1664 -0.2949
   7623SM   C12 9974   0.058   4.967   7.195 -0.2680 -0.5185 -0.4059
   7623SM  H12A 9975  -0.015   4.962   7.116 -1.9879 -0.8312  1.1205
   7623SM  H12B 9976   0.021   4.926   7.288  1.5946 -1.1228  0.1149
   7623SM   C11 9977   0.171   4.880   7.138  0.1997 -0.2694  0.5623
   7623SM  H11A 9978   0.270   4.895   7.188 -0.3975  0.3403  1.6152
   7623SM  H11B 9979   0.181   4.898   7.029 -0.8255  0.7284  0.6145
   7623SM     P 9980   0.221   4.626   7.096  0.2491 -0.0167 -0.0987
   7623SM   O13 9981   0.362   4.665   7.098 -0.4563  0.6096 -0.5091
   7623SM   O14 9982   0.186   4.491   7.155  0.0278 -0.4795 -0.1126
   7623SM   O11 9983   0.173   4.640   6.944  0.3065  0.1538  0.6165
   7623SM   O12 9984   0.136   4.739   7.166 -0.7149 -0.6846  0.0960
   7623SM   C1S 9985   0.231   4.538   6.856  0.0159  0.3237 -0.5251
   7623SM   H1S 9986   0.182   4.439   6.860  0.7420 -0.0027  1.4084
   7623SM   H1T 9987   0.339   4.518   6.874 -0.3478  0.3194  1.9095
   7623SM    NF 9988   0.276   4.486   6.628 -0.4409  0.3390  0.3042
   7623SM   HNF 9989   0.361   4.490   6.575 -0.4329 -3.1052 -0.1504
   7623SM   C2S 9990   0.223   4.591   6.712 -0.0227  0.2206  0.2329
   7623SM   H2S 9991   0.117   4.616   6.690  0.7240  1.7772 -1.9429
   7623SM   C3S 9992   0.305   4.725   6.698  0.1664  0.4745  0.0891
   7623SM   H3S 9993   0.408   4.685   6.712 -0.5801 -2.0674 -1.1033
   7623SM    O3 9994   0.286   4.824   6.800 -0.4135 -0.2909  0.4181
   7623SM   HO3 9995   0.237   4.777   6.868  0.1090 -0.7304  0.4968
   7623SM   C4S 9996   0.285   4.789   6.562  0.1339  0.0121  0.4406
   7623SM   H4S 9997   0.370   4.757   6.499  1.0966  1.1324  1.1137
   7623SM   C5S 9998   0.189   4.881   6.525  0.6255  0.4924 -0.0360
   7623SM   H5S 9999   0.113   4.901   6.602  0.7671 -0.9875  0.5297
   7623SM   C6S10000   0.157   4.943   6.392  0.2598  0.0627 -0.1189
   7623SM   H6S10001   0.156   5.054   6.404 -1.0541  0.0666 -0.1972
   7623SM   H6T10002   0.059   4.923   6.345  0.3161  0.4775 -0.4242
   7623SM   C7S10003   0.261   4.915   6.283  0.1824 -0.6173  0.2905
   7623SM   H7S10004   0.257   4.804   6.277 -2.0177 -0.6611  1.6661
   7623SM   H7T10005   0.364   4.929   6.324  0.3236  0.4922 -0.3943
   7623SM   C8S10006   0.235   4.971   6.145  0.1431  0.9446 -0.3805
   7623SM   H8S10007   0.223   5.081   6.147 -2.7960  0.7430  2.1452
   7623SM   H8T10008   0.138   4.934   6.107  1.1681 -0.2159 -1.9726
   7623SM   C9S10009   0.347   4.931   6.056 -0.1657 -0.2379  0.3665
   7623SM   H9S10010   0.335   4.823   6.034  2.2797 -0.5195  0.1063
   7623SM   H9T10011   0.446   4.948   6.105 -0.6709 -0.3786  1.4626
   7623SM  C10S10012   0.338   5.004   5.919 -0.5055  0.0691  0.7467
   7623SM  H10S10013   0.384   5.105   5.926  1.6086 -0.8261  0.3667
   7623SM  H10T10014   0.231   5.020   5.895 -0.0374  2.2250 -0.1131
   7623SM  C11S10015   0.407   4.914   5.814  0.1649  0.4342 -0.3079
   7623SM  H11S10016   0.347   4.823   5.795  3.4935 -2.7216  2.6633
   7623SM  H11T10017   0.497   4.869   5.862 -0.3530  0.5324  0.7906
   7623SM  C12S10018   0.442   4.985   5.684  0.6282  0.1707 -0.6680
   7623SM  H12S10019   0.462   4.906   5.609  2.0977  0.1915 -0.3189
   7623SM  H12T10020   0.537   5.038   5.703  1.0288 -0.4640 -0.8793
   7623SM  C13S10021   0.349   5.083   5.633  0.1376  0.0908 -0.0307
   7623SM  H13S10022   0.310   5.158   5.706 -0.9947 -1.9402  1.5572
   7623SM  H13T10023   0.259   5.021   5.610 -1.3460  2.0754  0.0969
   7623SM  C14S10024   0.407   5.169   5.515  0.1536 -0.5788 -0.8406
   7623SM  H14S10025   0.468   5.250   5.559  0.2512 -1.1639  0.1365
   7623SM  H14T10026   0.320   5.221   5.470  0.3426  1.4499  0.9764
   7623SM  C15S10027   0.461   5.093   5.397 -1.0612  0.0615  0.5540
   7623SM  H15S10028   0.396   5.005   5.377  1.4164 -1.5631 -0.8505
   7623SM  H15T10029   0.560   5.051   5.427 -0.3167  1.4620  0.1269
   7623SM  C16S10030   0.492   5.179   5.275 -0.0537  0.0998 -0.3328
   7623SM  H16S10031   0.566   5.261   5.291  1.5196 -0.9422 -1.8853
   7623SM  H16T10032   0.399   5.231   5.243 -0.1780 -0.0302 -0.1860
   7623SM  C17S10033   0.552   5.103   5.157 -0.1552  0.5005 -0.1257
   7623SM  H17S10034   0.475   5.032   5.121  0.5348 -0.5699  0.4610
   7623SM  H17T10035   0.643   5.042   5.175 -1.0991 -1.0439 -0.4225
   7623SM  C18S10036   0.594   5.202   5.044 -0.4518  0.7948 -0.1164
   7623SM  H18S10037   0.507   5.235   4.984 -1.9915 -0.3554  1.4024
   7623SM  H18T10038   0.669   5.144   4.986  0.7796  0.9962  1.2234
   7623SM  H18U10039   0.650   5.288   5.088  0.2479 -0.7766  2.2196
   7623SM   C1F10040   0.203   4.382   6.604 -0.0007 -0.1988 -0.3250
   7623SM    OF10041   0.082   4.376   6.637 -0.2267 -0.3991  0.3503
   7623SM   C2F10042   0.273   4.274   6.522 -0.4310 -0.5081  0.0589
   7623SM   H2F10043   0.371   4.254   6.570  0.1453  0.4996 -0.6689
   7623SM   H2G10044   0.287   4.309   6.417 -0.8664 -0.7493 -0.0804
   7623SM   C3F10045   0.197   4.142   6.517 -0.5163 -0.4903 -0.0894
   7623SM   H3F10046   0.167   4.101   6.616  0.4797  1.2515  0.9820
   7623SM   H3G10047   0.262   4.063   6.475 -0.1461  0.0894 -0.6193
   7623SM   C4F10048   0.072   4.141   6.421 -0.8396  0.7444  0.5990
   7623SM   H4F10049   0.085   4.188   6.322  0.9549 -1.5506 -0.3523
   7623SM   H4G10050  -0.012   4.197   6.467 -1.5859 -0.6805  1.0214
   7623SM   C5F10051   0.018   4.000   6.406  0.9561  0.2977  0.3917
   7623SM   H5F10052  -0.089   4.005   6.375  1.7324  0.3671 -2.5523
   7623SM   H5G10053   0.033   3.946   6.502 -0.0965  0.4168  0.6320
   7623SM   C6F10054   0.077   3.919   6.285  0.9403 -0.9007  0.1073
   7623SM   H6F10055   0.049   3.813   6.304  2.0073 -1.1093  0.5870
   7623SM   H6G10056   0.188   3.918   6.289  0.9629  0.7865  3.3564
   7623SM   C7F10057   0.023   3.972   6.146  0.3784  0.2306 -0.2827
   7623SM   H7F10058  -0.062   4.040   6.167  1.9605  1.5936  2.1974
   7623SM   H7G10059  -0.017   3.878   6.101  1.0113 -0.1786 -0.0120
   7623SM   C8F10060   0.134   4.036   6.058 -0.3130 -0.1260  0.7014
   7623SM   H8F10061   0.224   3.972   6.049 -0.2015  0.1434 -0.1486
   7623SM   H8G10062   0.163   4.131   6.108  0.7704 -1.3118  2.4521
   7623SM   C9F10063   0.073   4.062   5.923  0.5813  0.1141  0.7843
   7623SM   H9F10064  -0.013   4.133   5.923 -0.3968 -1.0243 -0.3669
   7623SM   H9G10065   0.027   3.970   5.883 -1.1191  1.6839 -1.0854
   7623SM  C10F10066   0.173   4.104   5.815 -0.3153  0.3020  0.9079
   7623SM  H10F10067   0.262   4.037   5.822  0.4758  1.0545 -1.2403
   7623SM  H10G10068   0.223   4.201   5.834  0.9948 -0.0365 -0.5795
   7623SM  C11F10069   0.131   4.130   5.666 -0.2024  0.2093 -0.3767
   7623SM  H11F10070   0.053   4.209   5.662  0.4081  0.7684 -1.5555
   7623SM  H11G10071   0.101   4.034   5.618  0.0981 -0.4846  0.7923
   7623SM  C12F10072   0.245   4.204   5.588  0.0135 -0.1092  0.4353
   7623SM  H12F10073   0.341   4.182   5.639  1.2103  0.1372 -1.6213
   7623SM  H12G10074   0.234   4.312   5.609  0.4156 -0.3417  1.9877
   7623SM  C13F10075   0.250   4.177   5.437 -0.3862  0.1393 -0.2678
   7623SM  H13F10076   0.280   4.072   5.422  0.5758 -0.0735  2.5940
   7623SM  H13G10077   0.325   4.233   5.377 -0.3117  0.9855  0.5789
   7623SM  C14F10078   0.120   4.182   5.360 -1.2420  0.4029 -0.6869
   7623SM  H14F10079   0.073   4.283   5.369 -1.7604  0.0091  1.4993
   7623SM  H14G10080   0.049   4.110   5.406  0.2982 -0.6385  0.1061
   7623SM  C15F10081   0.138   4.144   5.212  0.7081  0.4950 -0.4482
   7623SM  H15F10082   0.180   4.043   5.192  0.2935  0.3660 -0.6780
   7623SM  H15G10083   0.214   4.213   5.171  0.2583 -0.7822 -3.7021
   7623SM  C16F10084   0.014   4.144   5.115  0.0137 -0.0150 -0.3340
   7623SM  H16F10085   0.052   4.092   5.025  0.5416 -1.2589  0.5760
   7623SM  H16G10086  -0.007   4.252   5.102  2.0897  0.4813  0.0804
   7623SM  C17F10087  -0.113   4.081   5.168  0.3662 -0.3848  0.0479
   7623SM  H17F10088  -0.149   4.142   5.254 -1.5011 -2.3843  0.7631
   7623SM  H17G10089  -0.091   3.976   5.196  2.9431  0.1925  0.4563
   7623SM  C18F10090  -0.229   4.087   5.068 -0.6984 -0.5711 -0.0917
   7623SM  H18F10091  -0.195   4.053   4.968 -0.2321 -1.1316  0.2476
   7623SM  H18G10092  -0.284   4.183   5.055  0.3580  0.4394  2.2236
   7623SM  C19F10093  -0.340   3.992   5.118 -0.0209 -0.2362  0.1480
   7623SM  H19F10094  -0.393   4.045   5.200 -1.4213 -0.7175 -0.4042
   7623SM  H19G10095  -0.302   3.898   5.164  0.6899 -0.3259 -0.5967
   7623SM  C20F10096  -0.453   3.958   5.022 -0.1003  0.1903  0.5151
   7623SM  H20F10097  -0.412   3.938   4.921 -0.2553 -2.2948  0.8727
   7623SM  H20G10098  -0.520   4.047   5.020  0.6728  0.7851  0.8506
   7623SM  C21F10099  -0.530   3.829   5.053  0.5228  0.3440 -0.1163
   7623SM  H21F10100  -0.528   3.810   5.162 -0.7182  0.2707 -0.0973
   7623SM  H21G10101  -0.487   3.737   5.007  1.3519  1.4226 -1.5993
   7623SM  C22F10102  -0.682   3.830   5.012  0.3957 -0.6514 -0.3367
   7623SM  H22F10103  -0.722   3.932   4.997  0.0755 -0.7835 -0.3733
   7623SM  H22G10104  -0.741   3.768   5.083  1.3156 -3.0382 -1.5539
   7623SM  C23F10105  -0.696   3.775   4.875  0.7554 -0.1934  0.1433
   7623SM  H23F10106  -0.635   3.837   4.806 -0.3197  1.0642  0.3025
   7623SM  H23G10107  -0.800   3.777   4.837 -0.5305 -2.2662  3.2051
   7623SM  H23H10108  -0.644   3.677   4.864  0.6760 -0.3035  0.7438
   7723SM     N10109   0.725   1.768   7.080  0.4879  0.4712  0.0189
   7723SM   C1510110   0.642   1.661   7.143 -0.6976 -0.0887 -0.2826
   7723SM  H15A10111   0.693   1.570   7.120  1.1592  0.5744  0.9925
   7723SM  H15B10112   0.546   1.649   7.094  0.3780 -3.5313 -1.8360
   7723SM  H15C10113   0.642   1.677   7.250  0.8472 -0.4559 -0.2157
   7723SM   C1410114   0.670   1.899   7.121  1.0422 -0.3394  0.2072
   7723SM  H14A10115   0.576   1.880   7.170  1.7121 -1.2258  1.2218
   7723SM  H14B10116   0.657   1.968   7.039 -0.2309 -1.0027 -0.1886
   7723SM  H14C10117   0.735   1.945   7.193  1.2530  1.7193 -1.2209
   7723SM   C1310118   0.872   1.751   7.109  0.4967  1.0376 -0.0453
   7723SM  H13A10119   0.919   1.660   7.074 -0.0932  0.9356 -0.6021
   7723SM  H13B10120   0.896   1.756   7.214  2.5296  3.8951 -0.5456
   7723SM  H13C10121   0.929   1.830   7.063 -0.9618  1.9599 -0.3482
   7723SM   C1210122   0.706   1.758   6.928  0.0062  0.6346 -0.1428
   7723SM  H12A10123   0.739   1.657   6.907  1.6374  1.1575 -0.1696
   7723SM  H12B10124   0.771   1.830   6.881 -0.8945  2.1934  0.9211
   7723SM   C1110125   0.571   1.768   6.856 -0.2923 -0.5340 -0.0612
   7723SM  H11A10126   0.575   1.783   6.746 -1.3782  1.9474  0.1595
   7723SM  H11B10127   0.530   1.861   6.901  1.8100 -0.6433  2.3082
   7723SM     P10128   0.489   1.524   6.850  0.2062  0.7036 -0.6378
   7723SM   O1310129   0.634   1.482   6.861 -0.1671 -0.4273  0.0136
   7723SM   O1410130   0.385   1.442   6.920 -0.5356 -0.0931 -0.5272
   7723SM   O1110131   0.452   1.530   6.696  0.3138 -0.0020 -0.3940
   7723SM   O1210132   0.480   1.671   6.898  0.1328 -0.1724  0.7390
   7723SM   C1S10133   0.343   1.608   6.645 -0.1300  0.9331 -0.1275
   7723SM   H1S10134   0.355   1.714   6.677 -0.6847  1.2858 -1.0639
   7723SM   H1T10135   0.245   1.582   6.693 -0.9721  2.9489 -0.6530
   7723SM    NF10136   0.233   1.680   6.443 -0.3307 -0.2643 -0.1275
   7723SM   HNF10137   0.139   1.647   6.433  0.0863 -1.9460  0.9859
   7723SM   C2S10138   0.331   1.593   6.494 -0.2807 -0.3799  0.3723
   7723SM   H2S10139   0.427   1.619   6.445 -1.0070 -1.3501 -1.7336
   7723SM   C3S10140   0.291   1.444   6.462  0.3974 -0.4304  0.6119
   7723SM   H3S10141   0.180   1.441   6.465  0.4217 -0.6686  1.5530
   7723SM    O310142   0.333   1.349   6.558  0.3695  0.5487 -0.3556
   7723SM   HO310143   0.364   1.408   6.628 -1.1410  0.7710  0.1709
   7723SM   C4S10144   0.329   1.404   6.317  0.3082  0.1943 -0.6446
   7723SM   H4S10145   0.241   1.402   6.251 -1.3455 -2.1890  1.4357
   7723SM   C5S10146   0.447   1.365   6.261  0.8011 -0.1497  0.3272
   7723SM   H5S10147   0.539   1.355   6.320  1.6268  0.9874 -0.7259
   7723SM   C6S10148   0.477   1.337   6.116  0.1474 -1.1127  0.1687
   7723SM   H6S10149   0.391   1.367   6.052  0.0303 -2.5818 -0.3966
   7723SM   H6T10150   0.501   1.230   6.100  0.0191 -1.0161 -0.6919
   7723SM   C7S10151   0.611   1.400   6.075 -0.5137  0.2258 -0.1699
   7723SM   H7S10152   0.694   1.340   6.118  0.4732  0.5315 -1.5937
   7723SM   H7T10153   0.606   1.505   6.111 -0.0891 -0.1478  1.0162
   7723SM   C8S10154   0.631   1.403   5.923  0.7601 -0.2672  0.3255
   7723SM   H8S10155   0.572   1.487   5.879  1.7098  0.0409 -0.3964
   7723SM   H8T10156   0.597   1.307   5.878  1.9371 -0.4847 -0.1336
   7723SM   C9S10157   0.770   1.441   5.879  0.1952  0.2166  0.4797
   7723SM   H9S10158   0.778   1.435   5.769  2.0223 -0.1741  0.5899
   7723SM   H9T10159   0.836   1.361   5.919 -0.1421  0.2164  1.0458
   7723SM  C10S10160   0.826   1.575   5.916 -0.8395 -0.0413 -0.0974
   7723SM  H10S10161   0.929   1.603   5.884 -1.2667  0.2885 -1.2652
   7723SM  H10T10162   0.836   1.586   6.026  0.6050 -0.1553 -0.1936
   7723SM  C11S10163   0.748   1.695   5.858 -1.0786  0.3483 -0.1695
   7723SM  H11S10164   0.645   1.697   5.900 -1.5917  0.6162 -1.3723
   7723SM  H11T10165   0.750   1.677   5.748  0.0931 -0.1626 -0.0722
   7723SM  C12S10166   0.817   1.830   5.890 -0.6354 -0.5610 -0.3600
   7723SM  H12S10167   0.873   1.822   5.986 -0.5938  2.2870 -0.0323
   7723SM  H12T10168   0.733   1.902   5.904 -0.5142 -0.7375  1.5826
   7723SM  C13S10169   0.910   1.879   5.779  0.0256  0.2941  0.1617
   7723SM  H13S10170   0.858   1.870   5.681  0.3631  0.4447 -0.0337
   7723SM  H13T10171   1.001   1.815   5.772 -0.5215 -0.4188 -0.7479
   7723SM  C14S10172   0.960   2.017   5.794  0.2814 -0.8184  0.7422
   7723SM  H14S10173   1.058   2.028   5.744  0.2510 -0.1190  0.8212
   7723SM  H14T10174   0.993   2.028   5.899  2.2099  1.5610 -0.0252
   7723SM  C15S10175   0.852   2.119   5.754  0.3197  0.9523 -0.3421
   7723SM  H15S10176   0.763   2.097   5.817  1.3823 -2.1937  0.1967
   7723SM  H15T10177   0.824   2.125   5.647 -0.7310  1.5317 -0.0496
   7723SM  C16S10178   0.903   2.258   5.783  0.6421  0.3461  0.2078
   7723SM  H16S10179   0.973   2.289   5.703 -0.9832 -1.0675 -1.8679
   7723SM  H16T10180   0.960   2.256   5.878  0.1257 -0.1880  0.5168
   7723SM  C17S10181   0.795   2.368   5.794 -0.1424 -0.3122  0.1591
   7723SM  H17S10182   0.849   2.452   5.842 -2.2590  0.6112  1.0410
   7723SM  H17T10183   0.712   2.332   5.858  0.5401 -1.6497  0.3521
   7723SM  C18S10184   0.748   2.429   5.655 -0.8349  0.5381 -0.1894
   7723SM  H18S10185   0.788   2.366   5.572  1.1366 -0.3159  1.3276
   7723SM  H18T10186   0.787   2.529   5.625  0.4861 -0.2543 -1.2505
   7723SM  H18U10187   0.638   2.424   5.644 -0.9889  1.7931  0.5680
   7723SM   C1F10188   0.251   1.814   6.434 -0.0330 -0.1414  0.0081
   7723SM    OF10189   0.347   1.864   6.490  0.2954  0.0000 -0.0425
   7723SM   C2F10190   0.143   1.899   6.366  0.4443 -0.0786  0.9662
   7723SM   H2F10191   0.045   1.857   6.397  0.1199  0.2845  0.4594
   7723SM   H2G10192   0.148   1.875   6.257  1.1402  2.7811  0.2819
   7723SM   C3F10193   0.167   2.047   6.376 -0.1793  0.0560  0.5860
   7723SM   H3F10194   0.267   2.073   6.336 -1.5363  2.0279 -1.8921
   7723SM   H3G10195   0.173   2.086   6.479 -2.5543  1.1116  0.3895
   7723SM   C4F10196   0.070   2.143   6.299 -0.2474  0.6570  0.1735
   7723SM   H4F10197  -0.038   2.117   6.301 -0.0393 -0.2306  0.0479
   7723SM   H4G10198   0.099   2.132   6.192 -1.5212 -0.0194 -0.1112
   7723SM   C5F10199   0.085   2.288   6.340  0.1251  0.0304 -0.0761
   7723SM   H5F10200   0.191   2.316   6.319  0.1046 -0.2165 -0.5120
   7723SM   H5G10201   0.064   2.294   6.449 -0.6310 -1.3932 -0.1227
   7723SM   C6F10202  -0.024   2.374   6.280 -0.3958 -0.1270 -0.2332
   7723SM   H6F10203  -0.120   2.327   6.309  0.5219 -2.8318 -1.2690
   7723SM   H6G10204  -0.012   2.367   6.170 -1.6998 -1.3496 -0.3133
   7723SM   C7F10205  -0.025   2.523   6.326 -0.1614 -0.0278  0.1131
   7723SM   H7F10206   0.011   2.534   6.431 -2.5072 -0.0827  0.9749
   7723SM   H7G10207  -0.131   2.555   6.322 -0.4528 -0.9733  0.2171
   7723SM   C8F10208   0.059   2.610   6.231 -0.0723 -0.5278 -0.1532
   7723SM   H8F10209   0.031   2.576   6.129  0.9679 -0.0439 -0.6210
   7723SM   H8G10210   0.168   2.591   6.246  0.6902  2.2456 -1.4382
   7723SM   C9F10211   0.026   2.761   6.254 -0.2699 -0.8890 -0.3383
   7723SM   H9F10212   0.012   2.776   6.363 -2.2243  2.6333 -0.9145
   7723SM   H9G10213  -0.078   2.772   6.215 -0.8677  0.1113  1.4148
   7723SM  C10F10214   0.135   2.862   6.202 -0.2910 -0.0920 -0.1773
   7723SM  H10F10215   0.230   2.846   6.257 -0.6271 -1.1033  0.1453
   7723SM  H10G10216   0.110   2.969   6.215  0.4861  0.2246 -1.1979
   7723SM  C11F10217   0.157   2.845   6.047  0.2155 -0.3727 -0.6160
   7723SM  H11F10218   0.200   2.744   6.027  3.2063  0.5039  0.7746
   7723SM  H11G10219   0.239   2.913   6.016  0.8224 -1.5345 -1.6464
   7723SM  C12F10220   0.035   2.871   5.960 -0.1246  0.4126  0.0975
   7723SM  H12F10221   0.017   2.980   5.955 -0.7954  0.2625 -0.7680
   7723SM  H12G10222  -0.051   2.821   6.009  1.1398 -0.4867  1.5090
   7723SM  C13F10223   0.059   2.816   5.820 -0.1258  0.2670  0.1302
   7723SM  H13F10224   0.042   2.707   5.826  2.6756 -0.2023  1.2231
   7723SM  H13G10225   0.165   2.838   5.793 -0.6143  1.0324 -1.2839
   7723SM  C14F10226  -0.041   2.858   5.711  0.1290 -0.2196  0.2139
   7723SM  H14F10227  -0.053   2.967   5.725  1.9038  0.2504 -1.4485
   7723SM  H14G10228  -0.137   2.805   5.725  0.4370 -0.4960  1.3728
   7723SM  C15F10229   0.020   2.832   5.571  0.1545 -0.6192  0.1826
   7723SM  H15F10230  -0.060   2.854   5.497 -1.2684 -1.9639  1.2534
   7723SM  H15G10231   0.051   2.725   5.566 -0.0361 -0.6187 -2.4236
   7723SM  C16F10232   0.150   2.911   5.544  0.5079 -0.2185  0.5051
   7723SM  H16F10233   0.227   2.852   5.599  0.0614  0.2001  1.6108
   7723SM  H16G10234   0.130   3.009   5.594 -2.6858 -1.0229  0.9969
   7723SM  C17F10235   0.184   2.916   5.398  0.0803  0.1630 -0.0672
   7723SM  H17F10236   0.249   3.005   5.387  0.3826  0.6006  3.9922
   7723SM  H17G10237   0.093   2.936   5.337 -0.7470 -2.1957  0.2875
   7723SM  C18F10238   0.268   2.801   5.335  0.2335  0.3497 -0.9734
   7723SM  H18F10239   0.296   2.830   5.231  2.1843 -0.8066 -0.8180
   7723SM  H18G10240   0.204   2.710   5.329  0.9927 -0.1705 -1.4016
   7723SM  C19F10241   0.402   2.771   5.406 -0.8068 -0.5408 -0.2244
   7723SM  H19F10242   0.401   2.682   5.472 -0.1270 -1.5390 -1.5117
   7723SM  H19G10243   0.433   2.862   5.461 -1.3479  0.2649 -1.2181
   7723SM  C20F10244   0.512   2.739   5.305  0.4320  0.6809 -0.2120
   7723SM  H20F10245   0.521   2.822   5.231  1.9770 -0.5964 -1.5438
   7723SM  H20G10246   0.481   2.643   5.261 -1.2099  0.5668  1.1095
   7723SM  C21F10247   0.639   2.723   5.381 -0.2639  0.0730  0.2327
   7723SM  H21F10248   0.626   2.660   5.472  0.3126 -1.9300 -1.0002
   7723SM  H21G10249   0.675   2.823   5.413  1.8031 -0.6437  0.3165
   7723SM  C22F10250   0.743   2.667   5.285 -0.0980  0.3707  0.4262
   7723SM  H22F10251   0.734   2.744   5.205  0.5041  0.3700  0.3483
   7723SM  H22G10252   0.714   2.572   5.236 -1.5153 -0.0845  2.0740
   7723SM  C23F10253   0.893   2.666   5.330 -0.4122 -0.7279  0.1378
   7723SM  H23F10254   0.912   2.596   5.415  0.4123  0.4210  0.9358
   7723SM  H23G10255   0.942   2.760   5.362 -0.6229  1.2672 -4.6160
   7723SM  H23H10256   0.955   2.632   5.244  0.4738  2.7042 -0.7167
   7823SM     N10257   1.513   7.140   7.413  0.7883  0.3539 -0.4797
   7823SM   C1510258   1.400   7.048   7.452  0.4458 -0.2789 -0.5829
   7823SM  H15A10259   1.310   7.070   7.398 -0.0996 -0.3342  0.2875
   7823SM  H15B10260   1.376   7.064   7.556  1.0163 -0.0689 -0.4813
   7823SM  H15C10261   1.439   6.947   7.444  2.3589  0.4476 -0.9910
   7823SM   C1410262   1.480   7.279   7.450  0.1834 -0.0982 -0.5375
   7823SM  H14A10263   1.413   7.319   7.375 -0.1480 -0.1489 -0.2741
   7823SM  H14B10264   1.574   7.330   7.461 -0.3695  1.0578 -1.0336
   7823SM  H14C10265   1.425   7.283   7.543 -0.0326 -0.7812 -0.6259
   7823SM   C1310266   1.640   7.099   7.490 -0.3874 -0.1642 -0.2832
   7823SM  H13A10267   1.721   7.166   7.464 -1.1672  1.2527  0.7368
   7823SM  H13B10268   1.677   7.001   7.468  1.2935  0.4037 -0.1352
   7823SM  H13C10269   1.621   7.103   7.597 -2.5254  1.1604 -0.6515
   7823SM   C1210270   1.547   7.129   7.262 -0.0172 -0.0351  0.4481
   7823SM  H12A10271   1.461   7.170   7.211  0.3749 -0.4267 -0.5390
   7823SM  H12B10272   1.566   7.024   7.246  0.7144 -0.0695  1.4027
   7823SM   C1110273   1.670   7.200   7.195  0.6502 -0.7977 -0.5329
   7823SM  H11A10274   1.656   7.173   7.088  0.6946  0.6566 -0.9385
   7823SM  H11B10275   1.766   7.171   7.244  0.1219  1.8113  2.3754
   7823SM     P10276   1.561   7.442   7.138  0.7770  0.5171 -0.0228
   7823SM   O1310277   1.447   7.491   7.224 -0.4403 -0.2545  0.2156
   7823SM   O1410278   1.639   7.546   7.071 -0.5022 -0.6063 -0.5465
   7823SM   O1110279   1.517   7.345   7.022  0.5492 -0.0879  0.7116
   7823SM   O1210280   1.661   7.342   7.216 -0.4673 -0.4739 -0.1979
   7823SM   C1S10281   1.394   7.295   6.986  0.2363 -0.5246 -0.5614
   7823SM   H1S10282   1.316   7.369   7.016  1.5043  0.6073  0.0492
   7823SM   H1T10283   1.377   7.205   7.049  0.7057 -1.6658 -2.0212
   7823SM    NF10284   1.251   7.206   6.805 -0.1754  0.0162 -0.9612
   7823SM   HNF10285   1.255   7.108   6.790  3.1785 -0.0767 -0.2121
   7823SM   C2S10286   1.380   7.261   6.839 -0.2866 -0.1480  0.7150
   7823SM   H2S10287   1.386   7.356   6.781  0.5130 -2.2420 -3.0079
   7823SM   C3S10288   1.491   7.170   6.787  0.0666 -0.2988  0.2141
   7823SM   H3S10289   1.486   7.066   6.826  0.7273 -0.6309 -0.5385
   7823SM    O310290   1.624   7.206   6.821 -0.8219 -0.0132  0.4342
   7823SM   HO310291   1.611   7.290   6.867 -3.0610  0.5288 -1.0197
   7823SM   C4S10292   1.487   7.157   6.643 -0.2752  0.1706 -0.0743
   7823SM   H4S10293   1.483   7.252   6.588 -0.7211  0.3730  0.3033
   7823SM   C5S10294   1.471   7.038   6.570  0.7131 -0.4172 -0.1731
   7823SM   H5S10295   1.452   6.943   6.622 -1.0115 -0.1350 -0.2099
   7823SM   C6S10296   1.452   7.027   6.422  0.6323  0.3992 -0.0050
   7823SM   H6S10297   1.380   6.947   6.395  0.3931  1.0493 -1.3946
   7823SM   H6T10298   1.541   6.985   6.371  0.1159 -0.5453 -0.1462
   7823SM   C7S10299   1.422   7.161   6.343  0.1826 -0.0086  0.2520
   7823SM   H7S10300   1.521   7.210   6.351  0.6416 -1.0089  0.9435
   7823SM   H7T10301   1.342   7.213   6.399  0.0207 -1.3493  1.3235
   7823SM   C8S10302   1.382   7.129   6.196 -0.8201 -0.1639 -0.3839
   7823SM   H8S10303   1.280   7.085   6.184 -0.6202 -0.2434 -1.9556
   7823SM   H8T10304   1.452   7.051   6.161  1.9137  0.8189  2.4587
   7823SM   C9S10305   1.384   7.248   6.099  0.2844 -0.3422  0.4987
   7823SM   H9S10306   1.488   7.286   6.090  1.0947 -2.3699  0.6958
   7823SM   H9T10307   1.319   7.327   6.140 -1.3714 -1.7385  0.6761
   7823SM  C10S10308   1.329   7.220   5.959  0.3602  0.0325 -0.4487
   7823SM  H10S10309   1.229   7.173   5.966  0.0830  0.8998  2.8771
   7823SM  H10T10310   1.400   7.152   5.905  0.6948  1.2325 -1.5657
   7823SM  C11S10311   1.317   7.348   5.875  0.9369 -0.5093 -0.0618
   7823SM  H11S10312   1.404   7.417   5.875  1.5229 -1.1923  1.6831
   7823SM  H11T10313   1.233   7.401   5.924  0.3640 -0.8361 -0.6709
   7823SM  C12S10314   1.289   7.316   5.728 -0.4433 -0.0128  0.6031
   7823SM  H12S10315   1.187   7.272   5.730  0.4688 -2.2576  0.2249
   7823SM  H12T10316   1.357   7.233   5.700  0.1591  0.6968 -0.0750
   7823SM  C13S10317   1.290   7.426   5.619  0.0158 -0.9095 -0.2934
   7823SM  H13S10318   1.395   7.447   5.589 -0.4416  0.9384 -0.7288
   7823SM  H13T10319   1.243   7.517   5.661 -3.6049 -2.2130 -1.1732
   7823SM  C14S10320   1.205   7.394   5.493  0.1044  0.3154  0.0111
   7823SM  H14S10321   1.122   7.324   5.516 -1.7467  1.4073 -2.8171
   7823SM  H14T10322   1.269   7.333   5.427 -1.9830 -3.4491  1.1967
   7823SM  C15S10323   1.155   7.520   5.420  0.3549  0.0817 -0.4340
   7823SM  H15S10324   1.233   7.599   5.420  0.9493 -0.4970 -0.7227
   7823SM  H15T10325   1.069   7.559   5.478 -0.0551 -0.1113 -0.9120
   7823SM  C16S10326   1.111   7.481   5.282  0.2966 -0.0802 -0.3071
   7823SM  H16S10327   1.067   7.379   5.288  1.6825 -0.6607  0.8344
   7823SM  H16T10328   1.204   7.466   5.224 -0.0566  1.6358 -1.3616
   7823SM  C17S10329   1.018   7.582   5.206  0.6725  0.1582  0.3573
   7823SM  H17S10330   1.079   7.675   5.211  0.6385  0.3563 -1.8432
   7823SM  H17T10331   0.923   7.613   5.254  0.2791 -0.6567  0.1009
   7823SM  C18S10332   0.979   7.544   5.062  0.3160  0.6697 -0.2046
   7823SM  H18S10333   0.909   7.459   5.056 -0.1012  1.0730 -1.1669
   7823SM  H18T10334   1.072   7.517   5.007 -0.1610 -1.8924  0.1555
   7823SM  H18U10335   0.929   7.631   5.014  1.5620  2.0727  0.9464
   7823SM   C1F10336   1.135   7.276   6.818 -0.0832  0.2714  0.3829
   7823SM    OF10337   1.134   7.393   6.855 -0.6757  0.3372  0.4911
   7823SM   C2F10338   1.008   7.201   6.797 -0.1422  0.1702 -0.2651
   7823SM   H2F10339   0.951   7.211   6.892  0.8774  0.4936  0.3213
   7823SM   H2G10340   1.022   7.093   6.772 -0.6070  0.1890 -0.6290
   7823SM   C3F10341   0.924   7.258   6.685 -0.3680  0.7365  0.2545
   7823SM   H3F10342   0.910   7.367   6.704  1.2027  1.3054 -1.5949
   7823SM   H3G10343   0.829   7.200   6.681 -1.3427  2.2375  0.6269
   7823SM   C4F10344   0.984   7.225   6.544  0.4072 -0.3461  0.1451
   7823SM   H4F10345   0.977   7.117   6.516  0.9928 -0.6145  0.9879
   7823SM   H4G10346   1.092   7.250   6.541  0.3035  0.1365 -3.1762
   7823SM   C5F10347   0.903   7.300   6.432 -0.0964 -0.9216  0.8005
   7823SM   H5F10348   0.914   7.410   6.444  0.8312 -0.6273 -1.9837
   7823SM   H5G10349   0.796   7.278   6.455 -0.6029  1.4801  1.0240
   7823SM   C6F10350   0.946   7.251   6.297  0.5694 -0.2894 -0.2494
   7823SM   H6F10351   0.959   7.141   6.307 -1.2051 -0.4362  0.8740
   7823SM   H6G10352   1.045   7.296   6.272  0.8336 -1.2997 -1.1180
   7823SM   C7F10353   0.856   7.281   6.178 -0.1941 -0.2285 -0.0313
   7823SM   H7F10354   0.867   7.385   6.140  1.0770 -0.9659 -1.8471
   7823SM   H7G10355   0.749   7.255   6.193 -0.6283  1.7079  0.6137
   7823SM   C8F10356   0.907   7.199   6.051 -0.4763  0.0213 -0.5060
   7823SM   H8F10357   0.893   7.094   6.083  1.0337  0.2707  1.1471
   7823SM   H8G10358   1.014   7.226   6.039 -0.6099  0.6042 -0.4268
   7823SM   C9F10359   0.826   7.228   5.924  0.5169 -0.2823 -0.1807
   7823SM   H9F10360   0.828   7.337   5.901 -0.9585 -0.7376 -2.9266
   7823SM   H9G10361   0.718   7.210   5.941  0.1524  2.9027  1.7866
   7823SM  C10F10362   0.871   7.151   5.799  0.4756 -0.9457  0.1412
   7823SM  H10F10363   0.857   7.042   5.815  0.7071 -0.6794  2.7024
   7823SM  H10G10364   0.980   7.173   5.792 -0.0960  2.1289 -0.3083
   7823SM  C11F10365   0.803   7.209   5.672  0.2349  0.6680 -0.0572
   7823SM  H11F10366   0.796   7.320   5.681 -2.3091  0.6572 -1.0875
   7823SM  H11G10367   0.695   7.184   5.677 -0.0351  1.0918 -2.6930
   7823SM  C12F10368   0.867   7.162   5.541 -0.2827  0.3164 -0.1603
   7823SM  H12F10369   0.840   7.055   5.530 -0.6803 -0.1539  3.8136
   7823SM  H12G10370   0.977   7.167   5.556 -0.1581  0.5981 -1.0846
   7823SM  C13F10371   0.853   7.257   5.426  0.4167  0.1108  0.4987
   7823SM  H13F10372   0.916   7.229   5.339 -1.5128 -2.9498 -0.0365
   7823SM  H13G10373   0.892   7.353   5.466  1.3765  0.6843 -1.6794
   7823SM  C14F10374   0.708   7.276   5.394  0.0382  0.6040 -1.3727
   7823SM  H14F10375   0.650   7.296   5.487  1.6543  2.9661 -0.7935
   7823SM  H14G10376   0.674   7.179   5.351  2.5206 -1.0850  0.2033
   7823SM  C15F10377   0.697   7.393   5.297 -0.1948 -0.6496  0.0687
   7823SM  H15F10378   0.763   7.376   5.210  2.3853  1.4392  1.4944
   7823SM  H15G10379   0.737   7.484   5.348 -1.2950 -1.1278  1.9090
   7823SM  C16F10380   0.555   7.422   5.257 -0.5820  0.0253  0.2527
   7823SM  H16F10381   0.510   7.503   5.319 -0.1968 -0.5877  1.3455
   7823SM  H16G10382   0.490   7.335   5.279 -1.1727  0.4225  0.1378
   7823SM  C17F10383   0.547   7.467   5.105  0.0075  0.2159  0.6339
   7823SM  H17F10384   0.604   7.393   5.044 -1.0674 -0.4739  0.4230
   7823SM  H17G10385   0.583   7.571   5.093 -0.3527  0.2699 -0.0944
   7823SM  C18F10386   0.406   7.469   5.036 -0.2287 -0.4322 -0.4829
   7823SM  H18F10387   0.335   7.536   5.090  0.0818 -0.7201  0.2984
   7823SM  H18G10388   0.363   7.368   5.052  0.0942 -0.3250  1.2388
   7823SM  C19F10389   0.417   7.524   4.895  0.7125  0.6298 -0.2094
   7823SM  H19F10390   0.320   7.512   4.842 -2.0366  0.7236  4.2798
   7823SM  H19G10391   0.492   7.464   4.838  1.2556 -0.5938  1.6954
   7823SM  C20F10392   0.443   7.672   4.887 -0.0068 -0.4887 -0.1191
   7823SM  H20F10393   0.457   7.710   4.783  1.2374  2.1571  0.9346
   7823SM  H20G10394   0.538   7.685   4.943  0.0581 -0.2329 -0.2884
   7823SM  C21F10395   0.340   7.763   4.946 -0.0635 -0.1403 -0.1519
   7823SM  H21F10396   0.348   7.766   5.056 -0.8788 -0.1537 -0.0838
   7823SM  H21G10397   0.236   7.726   4.932 -1.3030  3.7784 -3.3311
   7823SM  C22F10398   0.339   7.909   4.890 -0.9961 -0.0521  0.1375
   7823SM  H22F10399   0.370   7.908   4.784 -2.5011  3.1673 -0.4530
   7823SM  H22G10400   0.426   7.960   4.937 -0.5651 -0.4616 -0.2161
   7823SM  C23F10401   0.214   8.000   4.914 -0.4282  0.4141 -0.3265
   7823SM  H23F10402   0.258   8.098   4.884 -0.3543 -0.0554 -1.8496
   7823SM  H23G10403   0.200   8.001   5.024  0.0879  0.7698 -0.2589
   7823SM  H23H10404   0.122   7.973   4.858 -0.8186  1.5987 -0.2952
   7923SM     N10405   6.070   7.622   7.249 -0.8686 -0.0476 -0.2475
   7923SM   C1510406   6.146   7.567   7.364 -0.0387 -1.1255  0.4248
   7923SM  H15A10407   6.103   7.470   7.384 -1.2179 -1.0425 -1.4562
   7923SM  H15B10408   6.137   7.634   7.448  0.3535 -1.3581  0.6509
   7923SM  H15C10409   6.249   7.551   7.338  0.6214  3.6421 -0.8996
   7923SM   C1410410   5.932   7.621   7.296 -0.3128 -0.3611 -0.1517
   7923SM  H14A10411   5.904   7.519   7.318  1.5926 -0.8630  0.0918
   7923SM  H14B10412   5.866   7.672   7.227 -0.0498  0.3358  0.1018
   7923SM  H14C10413   5.921   7.665   7.394 -0.7070 -1.3928  0.2799
   7923SM   C1310414   6.120   7.761   7.235 -0.4343  0.4734 -0.0663
   7923SM  H13A10415   6.220   7.780   7.198  0.4869 -0.1431  1.9657
   7923SM  H13B10416   6.106   7.815   7.327 -1.2452  1.7992 -0.9285
   7923SM  H13C10417   6.044   7.811   7.177 -1.6479  1.8159  2.5040
   7923SM   C1210418   6.093   7.536   7.124  0.0953  0.6709  0.0284
   7923SM  H12A10419   6.017   7.560   7.051  0.5011  0.3533 -0.5104
   7923SM  H12B10420   6.087   7.431   7.151  2.3185  0.5944  0.3970
   7923SM   C1110421   6.225   7.540   7.035  0.4185 -0.9858  0.0585
   7923SM  H11A10422   6.253   7.646   7.017  0.1023 -1.2176 -2.2014
   7923SM  H11B10423   6.211   7.500   6.932 -0.4451  2.6986 -1.4289
   7923SM     P10424   6.373   7.332   7.092  0.1197 -0.0528 -0.1572
   7923SM   O1310425   6.486   7.321   7.183 -0.2791 -0.5970  0.1654
   7923SM   O1410426   6.259   7.238   7.126  0.4247 -0.4509 -0.6224
   7923SM   O1110427   6.406   7.309   6.939  0.2204  0.3741  0.3220
   7923SM   O1210428   6.334   7.481   7.097 -0.1192 -0.7797 -0.9719
   7923SM   C1S10429   6.493   7.409   6.875  0.0256 -0.0066  0.4780
   7923SM   H1S10430   6.581   7.442   6.935  2.0007  0.3131 -2.3880
   7923SM   H1T10431   6.444   7.507   6.855  2.3274  0.9418 -1.0521
   7923SM    NF10432   6.616   7.458   6.653 -0.7881 -0.3480 -0.0274
   7923SM   HNF10433   6.554   7.471   6.575 -0.7846 -0.3363 -0.0280
   7923SM   C2S10434   6.564   7.357   6.744 -0.2454  0.1543  0.5625
   7923SM   H2S10435   6.657   7.312   6.784 -0.0968  0.0096  0.0489
   7923SM   C3S10436   6.488   7.250   6.677  0.3868  0.0326 -0.6599
   7923SM   H3S10437   6.383   7.274   6.650  0.2915  0.8771  0.3703
   7923SM    O310438   6.472   7.130   6.751 -0.2213  0.0747 -0.2289
   7923SM   HO310439   6.496   7.163   6.838 -1.5220 -0.6757  0.4372
   7923SM   C4S10440   6.569   7.198   6.565  0.5416  0.0105 -0.6403
   7923SM   H4S10441   6.666   7.159   6.599 -0.6165 -0.8076  1.9733
   7923SM   C5S10442   6.532   7.197   6.434  0.1703  0.6681 -0.3724
   7923SM   H5S10443   6.440   7.240   6.393  2.2456  3.0894 -2.9211
   7923SM   C6S10444   6.639   7.169   6.335  0.2594 -0.7104 -0.3824
   7923SM   H6S10445   6.601   7.086   6.272 -1.9724 -0.9872  1.2025
   7923SM   H6T10446   6.735   7.133   6.376  0.4660 -1.3516 -1.4111
   7923SM   C7S10447   6.673   7.303   6.268  0.2558 -0.0450  0.8671
   7923SM   H7S10448   6.769   7.299   6.213  0.5005 -1.4161  1.3490
   7923SM   H7T10449   6.699   7.377   6.347 -0.6157  1.8361 -0.5476
   7923SM   C8S10450   6.570   7.376   6.179 -0.0372  0.6481  0.2104
   7923SM   H8S10451   6.470   7.371   6.228  0.5835  0.7603  1.5547
   7923SM   H8T10452   6.573   7.321   6.083  0.1390  0.6270  0.2269
   7923SM   C9S10453   6.607   7.519   6.152  0.2458 -0.7212  1.0119
   7923SM   H9S10454   6.712   7.521   6.115 -0.3576  1.9116 -0.8083
   7923SM   H9T10455   6.596   7.583   6.243  3.1855  1.4583  0.0060
   7923SM  C10S10456   6.529   7.575   6.028  0.2208  0.0452  0.2223
   7923SM  H10S10457   6.538   7.506   5.940  1.2782  1.3316 -0.7129
   7923SM  H10T10458   6.570   7.675   6.005  0.8493 -0.8905 -3.4787
   7923SM  C11S10459   6.378   7.586   6.057 -0.1750 -0.3755  0.1137
   7923SM  H11S10460   6.356   7.598   6.165 -1.8286  0.4121 -0.2844
   7923SM  H11T10461   6.336   7.485   6.037 -1.7876 -0.5779  3.7105
   7923SM  C12S10462   6.301   7.691   5.968 -0.0724  0.5885 -0.4317
   7923SM  H12S10463   6.192   7.670   5.959 -0.7529  3.4325  0.1535
   7923SM  H12T10464   6.350   7.682   5.869  2.1161  1.3518  0.5230
   7923SM  C13S10465   6.321   7.833   6.028  0.4811 -0.0633  0.1460
   7923SM  H13S10466   6.383   7.827   6.121 -0.5984 -2.4890  0.7739
   7923SM  H13T10467   6.219   7.872   6.049  0.0770 -0.8119 -0.3950
   7923SM  C14S10468   6.378   7.938   5.923  0.1150  0.3416 -0.4729
   7923SM  H14S10469   6.321   7.925   5.829  1.2673 -1.3623 -0.9896
   7923SM  H14T10470   6.483   7.907   5.905 -0.1434  0.9376 -3.4600
   7923SM  C15S10471   6.359   8.087   5.950  0.1826  0.3892 -0.0726
   7923SM  H15S10472   6.417   8.118   6.039 -0.0661 -1.4679  0.7932
   7923SM  H15T10473   6.251   8.102   5.970  0.1394  3.1242 -1.8693
   7923SM  C16S10474   6.402   8.174   5.831  0.0837  0.1116  0.2939
   7923SM  H16S10475   6.347   8.269   5.846  1.4670  0.7125  1.8598
   7923SM  H16T10476   6.361   8.137   5.735 -0.6844  3.1335 -0.6674
   7923SM  C17S10477   6.551   8.209   5.828  0.1078  1.0884 -0.0461
   7923SM  H17S10478   6.609   8.122   5.791  0.6071  2.0619 -1.6254
   7923SM  H17T10479   6.593   8.236   5.927  0.6792 -1.5069  0.5132
   7923SM  C18S10480   6.584   8.323   5.732  0.2223  0.5556 -0.2212
   7923SM  H18S10481   6.682   8.374   5.729 -0.8253  2.6217 -1.0475
   7923SM  H18T10482   6.523   8.412   5.756  0.6298  1.0629 -1.0352
   7923SM  H18U10483   6.570   8.287   5.628  0.2358 -0.4485  0.1108
   7923SM   C1F10484   6.709   7.549   6.680  0.0800  0.5144  0.3091
   7923SM    OF10485   6.775   7.556   6.785  0.3906  0.4609 -0.2196
   7923SM   C2F10486   6.726   7.665   6.579 -0.0036  0.8017 -1.1718
   7923SM   H2F10487   6.729   7.754   6.646 -3.1434 -0.0389  0.2705
   7923SM   H2G10488   6.635   7.667   6.515 -1.3033 -0.5029  0.5500
   7923SM   C3F10489   6.857   7.646   6.506 -0.0142  0.5264  0.4000
   7923SM   H3F10490   6.843   7.562   6.436 -0.4977 -0.3177  1.4733
   7923SM   H3G10491   6.939   7.614   6.574 -1.5939 -0.6480  1.8707
   7923SM   C4F10492   6.911   7.766   6.426  0.0233 -0.5769 -0.2403
   7923SM   H4F10493   7.010   7.733   6.389  0.9668  1.8198 -0.0617
   7923SM   H4G10494   6.925   7.851   6.497  0.3595  0.0168 -0.9975
   7923SM   C5F10495   6.821   7.800   6.306 -0.0942 -0.8417  0.6717
   7923SM   H5F10496   6.720   7.839   6.331 -0.2914 -0.2134 -0.9343
   7923SM   H5G10497   6.799   7.706   6.251  0.6874 -0.4021 -0.4505
   7923SM   C6F10498   6.874   7.904   6.204 -0.5420  0.4918  0.2906
   7923SM   H6F10499   6.972   7.860   6.174 -1.6741 -2.4342  0.5542
   7923SM   H6G10500   6.883   7.998   6.262  0.0267 -0.5411  1.9518
   7923SM   C7F10501   6.784   7.912   6.080 -0.3584  0.3042  0.1532
   7923SM   H7F10502   6.679   7.929   6.112 -1.2617  0.8748 -2.8345
   7923SM   H7G10503   6.785   7.818   6.021 -0.3816  1.4697 -1.7737
   7923SM   C8F10504   6.828   8.033   5.988 -1.0693 -0.5783 -0.8237
   7923SM   H8F10505   6.801   8.129   6.037 -0.8878 -0.9587  0.0408
   7923SM   H8G10506   6.775   8.034   5.890 -1.5359 -2.2435 -0.6172
   7923SM   C9F10507   6.970   8.017   5.934  0.5132 -0.3151 -0.6299
   7923SM   H9F10508   6.970   7.913   5.896 -1.3010  0.3003 -2.5042
   7923SM   H9G10509   7.035   8.027   6.023  1.1980  0.2175 -1.1757
   7923SM  C10F10510   7.006   8.113   5.822 -0.0486  0.3048 -0.1612
   7923SM  H10F10511   7.116   8.103   5.812 -0.0604 -0.8724  0.7797
   7923SM  H10G10512   6.981   8.218   5.850  0.7213  1.2328 -2.5950
   7923SM  C11F10513   6.945   8.100   5.678  0.3334  0.4689  0.1364
   7923SM  H11F10514   6.837   8.121   5.668  0.8872  3.6070 -0.3252
   7923SM  H11G10515   6.968   8.008   5.620 -3.4101  0.0491 -0.9126
   7923SM  C12F10516   7.019   8.210   5.599  0.0670 -0.6504  0.1584
   7923SM  H12F10517   7.127   8.200   5.624 -0.1894 -1.4198  0.9866
   7923SM  H12G10518   6.989   8.309   5.640 -1.4597 -0.5468 -1.0951
   7923SM  C13F10519   6.989   8.210   5.449  0.2661 -0.4152 -0.5272
   7923SM  H13F10520   6.878   8.213   5.443  0.1199 -0.7111  1.4463
   7923SM  H13G10521   7.028   8.112   5.416 -0.4540 -1.0560  0.4924
   7923SM  C14F10522   7.065   8.326   5.368  0.4587  0.1769  0.0342
   7923SM  H14F10523   7.002   8.413   5.396  1.5955  1.1197 -0.2662
   7923SM  H14G10524   7.054   8.302   5.260 -2.7497 -1.1628  0.5421
   7923SM  C15F10525   7.218   8.349   5.396  0.0363 -0.1596  0.7497
   7923SM  H15F10526   7.278   8.256   5.392 -0.4835 -0.4339 -1.3235
   7923SM  H15G10527   7.224   8.387   5.501 -0.2091  1.4140  0.2219
   7923SM  C16F10528   7.261   8.464   5.302 -0.1052 -0.5040  0.2646
   7923SM  H16F10529   7.184   8.543   5.310  0.5785  0.2180 -0.0981
   7923SM  H16G10530   7.262   8.436   5.195  1.4717 -1.8535  0.5866
   7923SM  C17F10531   7.388   8.525   5.338 -0.1056  0.2095  0.2945
   7923SM  H17F10532   7.471   8.452   5.326 -0.6706 -0.2629 -0.9206
   7923SM  H17G10533   7.378   8.558   5.443 -0.6655  3.9756 -0.7904
   7923SM  C18F10534   7.405   8.652   5.249 -0.2279 -0.6880  0.2810
   7923SM  H18F10535   7.315   8.715   5.269  0.1854  0.6204 -1.7169
   7923SM  H18G10536   7.417   8.632   5.141 -1.2890  1.2119 -0.2404
   7923SM  C19F10537   7.520   8.739   5.300  0.1410 -0.3906  0.1239
   7923SM  H19F10538   7.609   8.676   5.319 -0.2458 -0.8151  0.5511
   7923SM  H19G10539   7.508   8.767   5.407 -0.5237 -0.3341  0.0436
   7923SM  C20F10540   7.547   8.872   5.228 -0.4652 -1.0228  1.1098
   7923SM  H20F10541   7.606   8.935   5.298 -1.4373  0.7135  0.4352
   7923SM  H20G10542   7.450   8.927   5.228  0.4713  0.7513 -1.1040
   7923SM  C21F10543   7.624   8.878   5.097 -0.5173  0.8096  0.5115
   7923SM  H21F10544   7.623   8.980   5.052 -2.6608  0.3978 -0.4916
   7923SM  H21G10545   7.572   8.823   5.016 -3.2515  2.4640  1.0046
   7923SM  C22F10546   7.766   8.828   5.105  0.4083  0.3205  0.6579
   7923SM  H22F10547   7.773   8.724   5.144 -2.2205  0.3422  1.3809
   7923SM  H22G10548   7.824   8.891   5.176  0.5249  0.2910  0.5906
   7923SM  C23F10549   7.830   8.833   4.968 -0.3956  0.4299 -0.1796
   7923SM  H23F10550   7.828   8.937   4.928 -0.2250  0.7485  0.6164
   7923SM  H23G10551   7.778   8.764   4.899  0.9520 -0.1557 -0.6418
   7923SM  H23H10552   7.937   8.803   4.975 -1.0870 -2.0268  0.9909
   8023SM     N10553   0.632   0.439   7.374 -0.8261 -0.5242  0.3103
   8023SM   C1510554   0.677   0.548   7.474  0.9571 -0.6159  0.1099
   8023SM  H15A10555   0.752   0.521   7.546 -1.0852 -1.6347  1.9474
   8023SM  H15B10556   0.596   0.579   7.538  0.4779 -0.6015 -0.4933
   8023SM  H15C10557   0.704   0.640   7.423 -0.2703  0.1896  0.8479
   8023SM   C1410558   0.518   0.507   7.300 -1.2710 -0.1398 -0.0939
   8023SM  H14A10559   0.560   0.583   7.234  0.1660 -1.0829 -0.3171
   8023SM  H14B10560   0.460   0.567   7.368  2.2841  2.8307  0.6956
   8023SM  H14C10561   0.456   0.433   7.251  0.3965 -2.8074  1.5859
   8023SM   C1310562   0.745   0.417   7.279  0.0803 -0.6614  0.3255
   8023SM  H13A10563   0.745   0.504   7.215 -2.1531  0.2151  1.4322
   8023SM  H13B10564   0.724   0.335   7.211  1.0560 -1.1843  0.6332
   8023SM  H13C10565   0.838   0.394   7.329  0.6142  1.0160  0.1811
   8023SM   C1210566   0.595   0.313   7.454  0.1980 -1.0552  0.8369
   8023SM  H12A10567   0.505   0.339   7.509  1.0047  2.6450  0.6402
   8023SM  H12B10568   0.673   0.293   7.526  2.7093 -0.1657 -1.4495
   8023SM   C1110569   0.573   0.186   7.370 -0.1109  0.0614 -0.6914
   8023SM  H11A10570   0.664   0.137   7.331 -0.3831  0.8211 -2.3660
   8023SM  H11B10571   0.502   0.208   7.288 -1.6557 -3.9349 -0.6133
   8023SM     P10572   0.437  -0.033   7.418 -0.1619  0.6759  0.1316
   8023SM   O1310573   0.502  -0.150   7.483 -0.4394 -0.3102  0.2520
   8023SM   O1410574   0.290  -0.021   7.439  0.4579 -0.3478  0.8703
   8023SM   O1110575   0.462  -0.055   7.260  0.8216  0.3227  0.0926
   8023SM   O1210576   0.509   0.103   7.462 -0.1049 -0.1756 -0.1633
   8023SM   C1S10577   0.374   0.006   7.166  0.0096  0.2355 -0.3438
   8023SM   H1S10578   0.408   0.109   7.140  2.2633 -0.8918 -2.1998
   8023SM   H1T10579   0.270  -0.004   7.204  0.3216  0.7492  0.6799
   8023SM    NF10580   0.292  -0.010   6.932 -0.4028  0.6309 -0.2342
   8023SM   HNF10581   0.219  -0.070   6.898  0.5954 -1.6566  1.4026
   8023SM   C2S10582   0.382  -0.076   7.031  0.1665  0.1211  0.5648
   8023SM   H2S10583   0.485  -0.061   6.990  0.2120  1.4584  1.0881
   8023SM   C3S10584   0.358  -0.234   7.045 -0.2623 -0.5153 -0.3629
   8023SM   H3S10585   0.252  -0.256   7.069 -0.1181  0.0563  0.9060
   8023SM    O310586   0.434  -0.295   7.154  0.0448  0.0171 -0.2727
   8023SM   HO310587   0.460  -0.211   7.194 -0.7275  0.5667 -0.8985
   8023SM   C4S10588   0.392  -0.301   6.917 -0.1970  0.2641  0.1157
   8023SM   H4S10589   0.305  -0.330   6.857  0.1297  1.2048 -0.8494
   8023SM   C5S10590   0.505  -0.360   6.879  0.0270 -0.0805 -0.0094
   8023SM   H5S10591   0.586  -0.371   6.953 -0.5355  1.3007  0.8351
   8023SM   C6S10592   0.545  -0.426   6.748 -0.2368 -0.0609  0.3841
   8023SM   H6S10593   0.585  -0.528   6.767 -2.7325 -0.8579  1.8066
   8023SM   H6T10594   0.625  -0.364   6.702 -1.4816  0.6206 -0.9337
   8023SM   C7S10595   0.427  -0.442   6.657 -0.1464  0.0421  0.1205
   8023SM   H7S10596   0.371  -0.347   6.645  0.5473  0.5329  0.6556
   8023SM   H7T10597   0.355  -0.512   6.705  1.1125 -0.5585  1.2127
   8023SM   C8S10598   0.448  -0.494   6.512  0.3359  0.8425 -0.5601
   8023SM   H8S10599   0.517  -0.440   6.444  2.3789 -0.4311  0.4051
   8023SM   H8T10600   0.351  -0.491   6.459  0.3456  1.8817 -0.5385
   8023SM   C9S10601   0.497  -0.638   6.509  0.0308  0.1594 -0.7212
   8023SM   H9S10602   0.416  -0.702   6.552  1.9852 -0.8353  1.6955
   8023SM   H9T10603   0.585  -0.650   6.575 -0.2568 -3.5842 -0.7867
   8023SM  C10S10604   0.548  -0.688   6.377  0.0337 -0.7858 -0.5841
   8023SM  H10S10605   0.579  -0.795   6.380  0.5834 -0.6917 -1.9563
   8023SM  H10T10606   0.646  -0.643   6.352  1.2115 -0.9687  3.1591
   8023SM  C11S10607   0.440  -0.686   6.268  0.1852 -0.3301  0.2454
   8023SM  H11S10608   0.413  -0.579   6.254 -0.2244 -0.0549  2.7146
   8023SM  H11T10609   0.354  -0.749   6.299  0.6560 -0.8903  0.4239
   8023SM  C12S10610   0.505  -0.747   6.135 -0.0814  0.1049  0.4872
   8023SM  H12S10611   0.553  -0.844   6.160  2.0068  1.4902  2.2258
   8023SM  H12T10612   0.582  -0.673   6.103 -1.4603  1.0961 -0.7114
   8023SM  C13S10613   0.398  -0.752   6.029  0.0197  0.3767  0.3620
   8023SM  H13S10614   0.369  -0.645   6.025 -1.0725  0.2141  2.4560
   8023SM  H13T10615   0.309  -0.810   6.062 -0.1123  0.1953 -0.3051
   8023SM  C14S10616   0.453  -0.817   5.900  0.9018 -0.8949  0.2098
   8023SM  H14S10617   0.473  -0.924   5.922  0.7120 -0.7555  1.0834
   8023SM  H14T10618   0.544  -0.765   5.864  0.5034  2.2803  3.3092
   8023SM  C15S10619   0.343  -0.806   5.789  0.0188 -0.5015 -0.4007
   8023SM  H15S10620   0.247  -0.815   5.844  0.5805  3.7828  1.7719
   8023SM  H15T10621   0.364  -0.889   5.719  0.7361 -0.8400  0.2031
   8023SM  C16S10622   0.352  -0.675   5.717  0.0953 -1.4804 -0.3797
   8023SM  H16S10623   0.355  -0.595   5.794 -1.3535 -1.9093  0.1516
   8023SM  H16T10624   0.257  -0.662   5.661  0.5968 -1.3950 -1.2317
   8023SM  C17S10625   0.471  -0.669   5.624 -0.2845 -0.8580 -0.4104
   8023SM  H17S10626   0.570  -0.698   5.664  0.1824  0.4509 -0.5992
   8023SM  H17T10627   0.488  -0.570   5.577 -0.5406 -1.1108 -1.0558
   8023SM  C18S10628   0.457  -0.764   5.496  0.9459 -0.2838 -0.1919
   8023SM  H18S10629   0.388  -0.709   5.429 -1.1436 -0.5034  1.6879
   8023SM  H18T10630   0.414  -0.862   5.524  2.4501 -0.8321  0.3188
   8023SM  H18U10631   0.562  -0.774   5.460  0.1308 -0.3532 -2.7212
   8023SM   C1F10632   0.309   0.112   6.886  0.4526 -0.3783  0.0146
   8023SM    OF10633   0.417   0.169   6.900 -1.3657 -0.7057  0.1319
   8023SM   C2F10634   0.194   0.181   6.825 -0.4459  0.1940 -0.2663
   8023SM   H2F10635   0.172   0.273   6.883 -1.9267  0.0105 -0.4888
   8023SM   H2G10636   0.110   0.111   6.842  2.5799 -3.3692  1.3392
   8023SM   C3F10637   0.219   0.218   6.680 -0.2732 -0.0229  0.2584
   8023SM   H3F10638   0.120   0.229   6.631  0.0774 -2.1227 -1.0431
   8023SM   H3G10639   0.276   0.143   6.621 -1.2803 -1.3427  0.8978
   8023SM   C4F10640   0.299   0.347   6.663  0.1980  0.2361  0.2702
   8023SM   H4F10641   0.386   0.348   6.732 -1.3773  0.1495  2.3487
   8023SM   H4G10642   0.240   0.437   6.692  2.3925  2.2290 -0.9792
   8023SM   C5F10643   0.331   0.359   6.520 -0.6773  0.3818  0.6470
   8023SM   H5F10644   0.361   0.260   6.479 -1.2476 -0.4306  2.1357
   8023SM   H5G10645   0.414   0.433   6.523 -0.7135  0.4056  1.3223
   8023SM   C6F10646   0.223   0.421   6.428 -0.3399 -0.1945  0.0385
   8023SM   H6F10647   0.283   0.465   6.346  1.3206 -1.5323  0.4722
   8023SM   H6G10648   0.169   0.497   6.489 -0.8837 -0.4111 -0.1670
   8023SM   C7F10649   0.125   0.320   6.358 -0.2207 -0.1093 -0.3214
   8023SM   H7F10650   0.058   0.259   6.422 -1.1294  0.8663 -0.3131
   8023SM   H7G10651   0.197   0.254   6.305 -0.0964  0.4114 -0.8119
   8023SM   C8F10652   0.043   0.381   6.244 -0.2960 -0.7047  0.6848
   8023SM   H8F10653  -0.039   0.445   6.283  0.8353  0.9758  0.3879
   8023SM   H8G10654  -0.010   0.303   6.184 -0.5949  0.1544 -0.1964
   8023SM   C9F10655   0.119   0.473   6.140  0.2199  0.5967  0.1419
   8023SM   H9F10656   0.171   0.558   6.190  0.2369  0.7069 -0.0613
   8023SM   H9G10657   0.044   0.525   6.076  3.7278  1.6516 -3.5481
   8023SM  C10F10658   0.220   0.391   6.048 -0.0335 -0.6418 -0.9420
   8023SM  H10F10659   0.158   0.314   5.999 -0.8402 -0.7356  0.1833
   8023SM  H10G10660   0.304   0.350   6.109  0.2740  1.3019  0.0317
   8023SM  C11F10661   0.287   0.488   5.950 -0.0198  0.4135  0.3921
   8023SM  H11F10662   0.370   0.545   5.996  1.2560  1.3958 -2.8243
   8023SM  H11G10663   0.218   0.569   5.918  1.3910  0.9321 -1.5546
   8023SM  C12F10664   0.332   0.428   5.810 -0.0689  0.1235 -0.1704
   8023SM  H12F10665   0.238   0.433   5.751  0.1349  1.7563 -0.4275
   8023SM  H12G10666   0.373   0.328   5.835  0.6502  0.1253 -1.3036
   8023SM  C13F10667   0.438   0.506   5.744 -0.1680  0.2614 -0.1505
   8023SM  H13F10668   0.465   0.463   5.645  1.3613  1.0083 -0.0756
   8023SM  H13G10669   0.530   0.502   5.805 -1.9688  0.7088  2.7701
   8023SM  C14F10670   0.403   0.653   5.722 -0.0393 -0.4014  0.2367
   8023SM  H14F10671   0.405   0.703   5.822  1.2516  0.4180 -0.1647
   8023SM  H14G10672   0.300   0.656   5.682  0.1158 -0.5125 -0.1691
   8023SM  C15F10673   0.490   0.731   5.623 -0.5225 -0.1999 -0.4817
   8023SM  H15F10674   0.598   0.709   5.634  0.1637  0.9438 -3.9681
   8023SM  H15G10675   0.468   0.840   5.622  2.7404  0.5375 -1.0588
   8023SM  C16F10676   0.456   0.686   5.476 -0.0233  0.0029 -0.1996
   8023SM  H16F10677   0.353   0.719   5.451  0.5000  1.0728 -1.0003
   8023SM  H16G10678   0.451   0.575   5.478 -0.2050  0.0161  0.0755
   8023SM  C17F10679   0.551   0.725   5.371 -0.0172  0.3860 -0.5151
   8023SM  H17F10680   0.648   0.675   5.389 -1.0705 -1.8286 -0.6110
   8023SM  H17G10681   0.574   0.833   5.381  0.6332  0.1244  1.3763
   8023SM  C18F10682   0.493   0.696   5.227 -0.1094 -0.7699  0.7830
   8023SM  H18F10683   0.413   0.770   5.203  2.0560  0.8573 -2.0483
   8023SM  H18G10684   0.450   0.593   5.236  0.4027 -1.0509  0.0813
   8023SM  C19F10685   0.590   0.686   5.104 -0.3179 -0.0567 -0.0557
   8023SM  H19F10686   0.525   0.651   5.021 -0.9395 -0.8072  0.7212
   8023SM  H19G10687   0.679   0.622   5.117  0.5593  1.0579 -0.4133
   8023SM  C20F10688   0.648   0.823   5.070  0.1486  0.2669  0.2437
   8023SM  H20F10689   0.585   0.911   5.095  0.0316  0.9773 -2.2686
   8023SM  H20G10690   0.650   0.835   4.959 -1.1773  1.1434  0.2956
   8023SM  C21F10691   0.784   0.839   5.141 -0.3297 -0.0538 -0.6090
   8023SM  H21F10692   0.852   0.759   5.106  0.6639  0.2370  0.5710
   8023SM  H21G10693   0.773   0.826   5.251 -3.3185 -1.6642 -0.9979
   8023SM  C22F10694   0.853   0.976   5.117  0.1883 -0.1849 -0.0865
   8023SM  H22F10695   0.961   0.974   5.142  0.4108  2.9265 -0.4179
   8023SM  H22G10696   0.807   1.048   5.188  0.1155  0.3915 -0.7130
   8023SM  C23F10697   0.832   1.037   4.977 -0.3579  0.6245 -0.4679
   8023SM  H23F10698   0.725   1.062   4.961 -0.0256  2.7198  0.2607
   8023SM  H23G10699   0.862   0.958   4.906  1.7247  0.8673  0.0520
   8023SM  H23H10700   0.895   1.126   4.955 -2.0170  1.7798 -0.7452
   8123SM     N10701   3.977   4.677   2.737 -0.0684  0.2423  0.5077
   8123SM   C1510702   4.088   4.718   2.657 -0.2734 -0.4395 -0.3802
   8123SM  H15A10703   4.079   4.821   2.627  1.3841  0.0121  0.5460
   8123SM  H15B10704   4.102   4.661   2.567  0.6449  2.2505 -2.0255
   8123SM  H15C10705   4.180   4.713   2.713 -0.1167 -2.9576 -0.7410
   8123SM   C1410706   3.947   4.772   2.842  0.1897 -0.0703 -0.9367
   8123SM  H14A10707   4.013   4.775   2.927 -0.0246  1.9620 -0.7913
   8123SM  H14B10708   3.856   4.748   2.895  0.7765  0.2072  0.2325
   8123SM  H14C10709   3.932   4.870   2.799  0.0447  0.2464 -0.1757
   8123SM   C1310710   3.857   4.683   2.644  0.4872  0.0064 -0.0381
   8123SM  H13A10711   3.764   4.651   2.689 -1.0648  2.1633 -1.5197
   8123SM  H13B10712   3.885   4.617   2.563  0.9591 -0.5124  0.5341
   8123SM  H13C10713   3.839   4.786   2.616 -1.2750 -0.1623  0.3638
   8123SM   C1210714   4.006   4.543   2.807 -0.1977 -0.0212  0.3684
   8123SM  H12A10715   4.083   4.557   2.881 -1.7913  2.4066  1.6775
   8123SM  H12B10716   4.049   4.477   2.733  0.2140 -1.4120  1.7948
   8123SM   C1110717   3.890   4.474   2.883 -0.3622  0.9397 -0.0107
   8123SM  H11A10718   3.812   4.469   2.805 -1.7105 -0.5993  1.3526
   8123SM  H11B10719   3.854   4.530   2.972  0.2879 -1.7592  2.0793
   8123SM     P10720   3.983   4.299   3.066 -0.0446  0.1388  0.2372
   8123SM   O1310721   3.968   4.154   3.083 -0.1561  0.8321 -0.2171
   8123SM   O1410722   4.119   4.344   3.100 -0.0388  0.8176  0.9582
   8123SM   O1110723   3.874   4.370   3.160 -0.0986 -0.0781 -0.1501
   8123SM   O1210724   3.943   4.344   2.920 -0.0120  0.3395 -0.1282
   8123SM   C1S10725   3.857   4.320   3.294 -0.1726 -0.3283 -0.1409
   8123SM   H1S10726   3.870   4.210   3.303 -1.9296 -0.4940  0.8092
   8123SM   H1T10727   3.755   4.342   3.333 -0.0392  2.2455 -1.0205
   8123SM    NF10728   3.955   4.305   3.525 -0.0895 -0.1388 -0.2060
   8123SM   HNF10729   3.915   4.360   3.599  2.0395 -0.1946  1.0613
   8123SM   C2S10730   3.964   4.377   3.395  0.4070  0.6931  0.1957
   8123SM   H2S10731   4.065   4.355   3.354 -0.4240 -0.6956 -1.2062
   8123SM   C3S10732   3.959   4.533   3.411 -0.1780 -0.1981 -0.1069
   8123SM   H3S10733   3.867   4.564   3.466  0.1291 -1.0403  0.8985
   8123SM    O310734   3.953   4.603   3.288 -0.0737  0.7186  0.2456
   8123SM   HO310735   3.946   4.530   3.227  2.1438 -0.3015  1.0960
   8123SM   C4S10736   4.079   4.582   3.490  0.6762 -0.0884  0.2260
   8123SM   H4S10737   4.176   4.568   3.439  1.0745 -1.4734  1.3074
   8123SM   C5S10738   4.083   4.649   3.604  0.2145 -0.5825 -0.1221
   8123SM   H5S10739   3.992   4.672   3.661  0.0366  1.4926 -1.1548
   8123SM   C6S10740   4.214   4.683   3.675 -0.2511  0.2911  0.4753
   8123SM   H6S10741   4.226   4.793   3.660 -3.0237  0.6493  0.3314
   8123SM   H6T10742   4.305   4.638   3.630 -0.4502  1.7921 -1.6095
   8123SM   C7S10743   4.218   4.656   3.822  0.5292  0.3757 -0.1360
   8123SM   H7S10744   4.142   4.719   3.874 -1.7062 -0.7813 -1.8266
   8123SM   H7T10745   4.321   4.674   3.859  0.3764  0.1230  0.4274
   8123SM   C8S10746   4.189   4.502   3.863 -0.4542 -0.8450  0.1641
   8123SM   H8S10747   4.260   4.440   3.805  0.3426  1.5838 -1.6321
   8123SM   H8T10748   4.082   4.500   3.833  0.0401 -1.5243 -1.7287
   8123SM   C9S10749   4.208   4.470   4.020  0.1620  0.2142  0.1596
   8123SM   H9S10750   4.129   4.527   4.073 -0.9485 -1.8854  0.8936
   8123SM   H9T10751   4.304   4.503   4.064 -0.2859  0.0756  1.2620
   8123SM  C10S10752   4.199   4.322   4.054 -0.4558  0.3383 -0.0303
   8123SM  H10S10753   4.103   4.283   4.013 -1.4483  0.6322  1.8517
   8123SM  H10T10754   4.187   4.310   4.164 -0.1333  0.8201  0.0616
   8123SM  C11S10755   4.322   4.238   4.016  0.1801  0.1640  1.0942
   8123SM  H11S10756   4.411   4.254   4.081  0.8024  0.3837  0.2210
   8123SM  H11T10757   4.358   4.250   3.911 -1.1564 -0.4546  0.5433
   8123SM  C12S10758   4.305   4.086   4.036  0.0616 -0.1358  0.1943
   8123SM  H12S10759   4.403   4.037   4.020  1.1645  1.8692  0.4035
   8123SM  H12T10760   4.233   4.033   3.970 -0.1751  2.0839 -1.4536
   8123SM  C13S10761   4.276   4.058   4.180  0.4659 -0.5242  0.2309
   8123SM  H13S10762   4.170   4.087   4.200 -0.8831 -1.8494 -3.9179
   8123SM  H13T10763   4.347   4.113   4.246  2.5762 -2.7094 -0.1085
   8123SM  C14S10764   4.287   3.904   4.210  0.0173 -0.4439  0.0221
   8123SM  H14S10765   4.231   3.880   4.303  1.2527 -1.9315  0.4259
   8123SM  H14T10766   4.394   3.882   4.230  0.0320 -1.2284 -0.8896
   8123SM  C15S10767   4.233   3.806   4.105 -0.0740 -0.2798  0.3415
   8123SM  H15S10768   4.256   3.701   4.134  1.4534  0.0618  0.4727
   8123SM  H15T10769   4.299   3.804   4.015  0.8387 -3.6448  0.9177
   8123SM  C16S10770   4.085   3.826   4.074  0.4530  0.1226  0.3638
   8123SM  H16S10771   4.066   3.924   4.024  1.5418 -0.0264 -0.3842
   8123SM  H16T10772   4.027   3.825   4.168  2.7190 -0.6427  1.8320
   8123SM  C17S10773   4.016   3.726   3.984  0.1137 -0.1772 -1.3009
   8123SM  H17S10774   4.038   3.620   4.009 -1.3853 -0.7661 -2.3897
   8123SM  H17T10775   4.057   3.737   3.881  0.3780  2.2505 -0.9951
   8123SM  C18S10776   3.861   3.746   3.965  0.5022  0.1166 -0.0029
   8123SM  H18S10777   3.816   3.651   3.929  0.1323  1.9110 -5.0872
   8123SM  H18T10778   3.838   3.830   3.896  0.7605 -1.2224 -1.7808
   8123SM  H18U10779   3.819   3.773   4.065  2.3682  0.9887  0.5999
   8123SM   C1F10780   3.997   4.180   3.544  0.6509 -0.1790  0.0457
   8123SM    OF10781   4.040   4.115   3.449 -0.5481 -0.0094 -0.6790
   8123SM   C2F10782   3.982   4.125   3.678  0.2391 -0.2342  0.2635
   8123SM   H2F10783   3.880   4.088   3.701  0.9342 -1.4268  1.6012
   8123SM   H2G10784   4.011   4.192   3.762  0.7523 -2.0308  1.5660
   8123SM   C3F10785   4.076   4.006   3.693 -0.2066  0.6906 -0.6658
   8123SM   H3F10786   4.036   3.923   3.631  0.4615 -0.3862  0.3196
   8123SM   H3G10787   4.073   3.966   3.796 -1.1811  0.0751 -0.9153
   8123SM   C4F10788   4.228   4.028   3.668  0.0561 -0.5968 -0.5867
   8123SM   H4F10789   4.265   4.098   3.746 -0.1486 -1.1294 -0.0033
   8123SM   H4G10790   4.250   4.067   3.566  1.8361 -0.7132 -0.2754
   8123SM   C5F10791   4.291   3.895   3.686 -0.6286 -0.5402  0.0828
   8123SM   H5F10792   4.245   3.821   3.617 -2.2240 -0.9690  1.5592
   8123SM   H5G10793   4.280   3.844   3.784  0.9331 -1.6440 -0.2758
   8123SM   C6F10794   4.447   3.908   3.665 -0.5225 -0.1265  0.7918
   8123SM   H6F10795   4.495   3.950   3.756 -0.7104  0.1066  0.7840
   8123SM   H6G10796   4.471   3.983   3.586  2.8111 -0.8094  0.9677
   8123SM   C7F10797   4.515   3.770   3.643 -0.5713  0.4259  0.0511
   8123SM   H7F10798   4.619   3.789   3.608 -0.5513  3.6195  1.4885
   8123SM   H7G10799   4.466   3.724   3.554 -1.3044  1.4558 -0.0937
   8123SM   C8F10800   4.522   3.669   3.768  0.5593 -0.2654  0.7142
   8123SM   H8F10801   4.591   3.586   3.740  0.2026 -0.0812 -0.8391
   8123SM   H8G10802   4.425   3.616   3.777 -0.2661  1.0663 -0.0859
   8123SM   C9F10803   4.576   3.722   3.899 -0.4863  0.2327 -0.3808
   8123SM   H9F10804   4.535   3.821   3.931 -0.6465 -0.2603  1.0162
   8123SM   H9G10805   4.682   3.752   3.884 -1.3609  2.2606 -3.2730
   8123SM  C10F10806   4.551   3.629   4.015 -0.4882 -0.3872 -0.1300
   8123SM  H10F10807   4.571   3.524   3.984  0.9115 -0.2128  0.0940
   8123SM  H10G10808   4.442   3.612   4.023 -0.9233  2.0195 -0.2811
   8123SM  C11F10809   4.612   3.689   4.143 -0.2458 -0.0527  0.3697
   8123SM  H11F10810   4.568   3.790   4.157  1.2154  0.8683 -1.2697
   8123SM  H11G10811   4.718   3.710   4.116 -0.5186 -1.4434 -1.9859
   8123SM  C12F10812   4.573   3.606   4.261 -0.2788 -0.0825  0.1049
   8123SM  H12F10813   4.601   3.504   4.226 -2.3715 -0.8988  0.6108
   8123SM  H12G10814   4.466   3.614   4.291  0.7511  0.9904  4.2353
   8123SM  C13F10815   4.653   3.653   4.381  0.0003 -0.2161 -0.3439
   8123SM  H13F10816   4.603   3.746   4.417 -0.8824 -1.4771  1.8806
   8123SM  H13G10817   4.755   3.679   4.346  0.1851 -2.0440 -1.2661
   8123SM  C14F10818   4.665   3.549   4.495  1.0312  0.0572  0.3251
   8123SM  H14F10819   4.691   3.447   4.459 -2.0240 -0.8815  0.4761
   8123SM  H14G10820   4.561   3.555   4.534  1.0336  2.4297  0.1310
   8123SM  C15F10821   4.761   3.584   4.608 -0.3662  0.0019 -0.4556
   8123SM  H15F10822   4.721   3.676   4.656 -0.3743  0.2572 -0.9478
   8123SM  H15G10823   4.855   3.620   4.561 -0.3908 -1.5848 -1.8358
   8123SM  C16F10824   4.773   3.492   4.729 -0.5372  0.6334  0.1607
   8123SM  H16F10825   4.674   3.458   4.765  0.4659 -1.8006  0.8120
   8123SM  H16G10826   4.821   3.532   4.821  0.5167 -3.3505  1.5462
   8123SM  C17F10827   4.840   3.356   4.687 -0.1738 -0.4463  0.9024
   8123SM  H17F10828   4.926   3.371   4.619  0.5185 -1.4087  1.5490
   8123SM  H17G10829   4.759   3.303   4.632 -1.5853  1.4283  1.0548
   8123SM  C18F10830   4.892   3.275   4.806 -0.7640 -0.4148  0.1710
   8123SM  H18F10831   4.978   3.333   4.847 -1.9656 -0.4497  3.0150
   8123SM  H18G10832   4.931   3.178   4.770 -0.7457 -0.5477  0.5396
   8123SM  C19F10833   4.790   3.247   4.920  0.1549 -0.0156  0.3340
   8123SM  H19F10834   4.705   3.184   4.884  1.7658 -2.1668  0.0929
   8123SM  H19G10835   4.748   3.342   4.959  1.6052  0.7000  0.2134
   8123SM  C20F10836   4.846   3.181   5.043 -0.3653 -0.7087  1.2640
   8123SM  H20F10837   4.885   3.079   5.020 -1.7858 -1.1364  0.5869
   8123SM  H20G10838   4.766   3.175   5.120 -0.7288  0.4709  1.0000
   8123SM  C21F10839   4.964   3.253   5.111 -0.2021 -0.4162  0.7078
   8123SM  H21F10840   5.050   3.237   5.042 -1.0653 -1.0851 -0.2565
   8123SM  H21G10841   5.005   3.207   5.203  0.5864  2.2991  1.8139
   8123SM  C22F10842   4.945   3.408   5.121  0.4458  0.3343 -0.1093
   8123SM  H22F10843   4.869   3.422   5.201  0.2467  0.8585 -0.3904
   8123SM  H22G10844   4.913   3.453   5.025  1.7017 -3.2505 -2.4088
   8123SM  C23F10845   5.068   3.480   5.173  0.1604 -0.5667 -0.4819
   8123SM  H23F10846   5.071   3.590   5.156 -0.1494 -0.6306 -0.9691
   8123SM  H23G10847   5.161   3.430   5.137 -0.4073 -2.4487  0.5587
   8123SM  H23H10848   5.051   3.477   5.282 -1.8506  1.8678 -0.6314
   8223SM     N10849   5.654   4.907   2.598  0.1362 -0.7265  0.1681
   8223SM   C1510850   5.715   4.771   2.583 -0.2417  0.5698 -0.6343
   8223SM  H15A10851   5.637   4.697   2.595  0.7135 -0.5581 -1.2052
   8223SM  H15B10852   5.793   4.756   2.655 -0.8163  0.5531 -0.0008
   8223SM  H15C10853   5.756   4.765   2.483 -0.3082  1.0997 -0.6975
   8223SM   C1410854   5.752   5.016   2.553  0.3622  0.3855 -0.0264
   8223SM  H14A10855   5.703   5.112   2.560  0.1688  0.2698  0.1848
   8223SM  H14B10856   5.787   4.984   2.456  1.5304 -1.6537  1.0088
   8223SM  H14C10857   5.841   5.006   2.614  1.1150 -1.1226 -1.2868
   8223SM   C1310858   5.541   4.922   2.497 -0.8881 -1.0201  0.2217
   8223SM  H13A10859   5.463   4.851   2.520  0.7758 -3.4726 -1.1654
   8223SM  H13B10860   5.580   4.897   2.399 -2.0596 -0.8349 -0.3134
   8223SM  H13C10861   5.508   5.024   2.484  0.7019 -0.3021  1.4164
   8223SM   C1210862   5.604   4.926   2.741  0.3698  0.8746  0.0212
   8223SM  H12A10863   5.554   5.020   2.758  0.9540  1.3457 -0.8147
   8223SM  H12B10864   5.690   4.925   2.807  0.1392  0.8276  0.3195
   8223SM   C1110865   5.503   4.828   2.805  0.8933  0.2306  0.0324
   8223SM  H11A10866   5.501   4.857   2.912  1.8763 -0.2388  0.1823
   8223SM  H11B10867   5.552   4.729   2.797 -1.2395 -0.9849  1.1411
   8223SM     P10868   5.257   4.917   2.775  0.1635 -0.4795 -0.1583
   8223SM   O1310869   5.257   5.024   2.672 -0.2049 -0.2582  0.3531
   8223SM   O1410870   5.129   4.838   2.791  0.1458 -0.1015  0.5091
   8223SM   O1110871   5.287   4.974   2.925  0.2965  0.0846  0.4599
   8223SM   O1210872   5.379   4.819   2.742 -0.3778 -0.0146 -0.5474
   8223SM   C1S10873   5.258   4.884   3.035 -0.1515 -0.0837 -0.2435
   8223SM   H1S10874   5.280   4.778   3.012 -0.0523  0.1249 -1.1108
   8223SM   H1T10875   5.150   4.890   3.064 -0.1574 -1.9201  0.2636
   8223SM    NF10876   5.320   4.813   3.264  0.0557 -0.3757  0.7155
   8223SM   HNF10877   5.265   4.846   3.340 -1.1778 -0.4706 -0.1092
   8223SM   C2S10878   5.337   4.917   3.166 -0.1889  0.5983  0.3724
   8223SM   H2S10879   5.447   4.917   3.148 -0.4210  1.2172 -1.2295
   8223SM   C3S10880   5.293   5.052   3.213  0.1391 -0.6999 -1.0059
   8223SM   H3S10881   5.187   5.051   3.247  0.8679  0.4734  1.6156
   8223SM    O310882   5.283   5.150   3.110 -0.4385 -0.0581 -0.1135
   8223SM   HO310883   5.288   5.101   3.027  1.7812  0.6719 -0.4680
   8223SM   C4S10884   5.370   5.100   3.337 -0.2815  1.0705 -0.3808
   8223SM   H4S10885   5.315   5.078   3.430 -0.0786 -0.9387 -0.6813
   8223SM   C5S10886   5.484   5.177   3.348 -0.0705 -1.1289  0.0455
   8223SM   H5S10887   5.533   5.199   3.252 -0.3509 -1.2949 -0.1376
   8223SM   C6S10888   5.564   5.213   3.473 -0.1557 -0.6038  0.2801
   8223SM   H6S10889   5.653   5.275   3.450 -0.3407 -1.1929 -2.4203
   8223SM   H6T10890   5.602   5.117   3.514 -0.7458 -1.4900 -1.1550
   8223SM   C7S10891   5.469   5.278   3.574  0.3624 -0.3203 -0.2685
   8223SM   H7S10892   5.389   5.215   3.619 -0.5582  0.8476 -0.2285
   8223SM   H7T10893   5.411   5.365   3.538  2.2482  0.5892 -1.2959
   8223SM   C8S10894   5.542   5.317   3.706 -0.7944  0.5502  0.3379
   8223SM   H8S10895   5.628   5.386   3.695 -1.2284  1.0524  0.0646
   8223SM   H8T10896   5.593   5.225   3.742 -3.1784 -0.6949  0.7211
   8223SM   C9S10897   5.451   5.360   3.816 -0.3525 -0.4848  0.3662
   8223SM   H9S10898   5.372   5.283   3.825 -1.3724  0.5559  0.6177
   8223SM   H9T10899   5.388   5.448   3.788 -1.4642 -1.7574 -1.3789
   8223SM  C10S10900   5.526   5.373   3.949  0.4157 -0.3166 -0.8227
   8223SM  H10S10901   5.618   5.435   3.945 -0.0503  0.7752  2.2849
   8223SM  H10T10902   5.556   5.272   3.984  1.0453  0.7621  2.0799
   8223SM  C11S10903   5.439   5.423   4.073  0.2320  0.5553  0.4822
   8223SM  H11S10904   5.378   5.515   4.056 -3.1469 -1.5941 -0.1710
   8223SM  H11T10905   5.514   5.432   4.154  0.8948  0.1914 -0.0799
   8223SM  C12S10906   5.328   5.318   4.109 -0.5200 -0.1450  0.5746
   8223SM  H12S10907   5.376   5.230   4.158 -0.0153 -0.4093 -0.3640
   8223SM  H12T10908   5.281   5.271   4.020 -0.8046 -1.9193  1.6113
   8223SM  C13S10909   5.216   5.386   4.191 -0.2132  0.7241  0.1227
   8223SM  H13S10910   5.260   5.458   4.263  0.4237 -1.4808  2.0952
   8223SM  H13T10911   5.184   5.296   4.249  1.9896  1.5454  2.8817
   8223SM  C14S10912   5.104   5.434   4.107 -0.4918 -0.4455  0.2712
   8223SM  H14S10913   5.076   5.379   4.015 -1.8726  2.5108 -1.2408
   8223SM  H14T10914   5.132   5.538   4.077  2.1806 -1.1294  0.1387
   8223SM  C15S10915   4.974   5.455   4.182  0.1272  0.0822  0.2450
   8223SM  H15S10916   4.930   5.358   4.214 -0.5391  0.1399 -0.4803
   8223SM  H15T10917   4.900   5.491   4.107  2.2667 -1.2990 -2.7771
   8223SM  C16S10918   4.979   5.549   4.305  0.2123 -0.8200  0.1912
   8223SM  H16S10919   5.020   5.645   4.264  0.7191 -0.0717  2.3083
   8223SM  H16T10920   5.062   5.532   4.377  0.3862  2.6741  1.0302
   8223SM  C17S10921   4.846   5.566   4.380  0.5508 -1.0200  0.6002
   8223SM  H17S10922   4.827   5.480   4.449 -0.4043 -0.1190  1.4882
   8223SM  H17T10923   4.772   5.561   4.298 -0.3374 -0.6773  1.3590
   8223SM  C18S10924   4.842   5.702   4.448 -0.4262  0.0100 -0.1376
   8223SM  H18S10925   4.760   5.705   4.523 -0.0111  3.7876  0.3881
   8223SM  H18T10926   4.819   5.789   4.382 -2.3734 -0.4122 -0.0858
   8223SM  H18U10927   4.935   5.725   4.504 -0.5187 -1.5608  0.7111
   8223SM   C1F10928   5.383   4.700   3.264  0.2254 -0.8741  0.5874
   8223SM    OF10929   5.475   4.682   3.183  0.4935 -0.5195  0.5364
   8223SM   C2F10930   5.333   4.592   3.352 -0.1412 -0.0933  0.2967
   8223SM   H2F10931   5.299   4.507   3.289 -0.1537  0.7977 -0.9382
   8223SM   H2G10932   5.249   4.623   3.418  0.7180  1.0913  0.8672
   8223SM   C3F10933   5.445   4.533   3.448  1.0746  0.2332 -0.5650
   8223SM   H3F10934   5.490   4.607   3.518  0.5939 -1.0798  1.1964
   8223SM   H3G10935   5.520   4.507   3.370  1.0121  0.1515 -0.5984
   8223SM   C4F10936   5.387   4.414   3.530 -0.0322  0.7688  0.1000
   8223SM   H4F10937   5.366   4.327   3.464  0.9364  1.1775 -0.7693
   8223SM   H4G10938   5.296   4.448   3.585  0.1932  0.9464  0.3616
   8223SM   C5F10939   5.492   4.359   3.635 -0.2489  0.8024  0.6990
   8223SM   H5F10940   5.502   4.428   3.721 -0.2524  2.1962 -0.3867
   8223SM   H5G10941   5.595   4.364   3.593 -0.5084  1.6794  0.1533
   8223SM   C6F10942   5.458   4.218   3.683  0.3578 -0.0364 -0.0159
   8223SM   H6F10943   5.486   4.146   3.603 -0.0388  0.0624 -0.2415
   8223SM   H6G10944   5.349   4.196   3.686  0.2525  0.3704 -0.7408
   8223SM   C7F10945   5.513   4.171   3.821  0.2991 -0.4108  0.0364
   8223SM   H7F10946   5.622   4.193   3.823  0.1852  0.0753  1.4855
   8223SM   H7G10947   5.515   4.061   3.837  2.2481 -0.1402  2.0261
   8223SM   C8F10948   5.435   4.244   3.937 -0.9039 -1.0223 -0.4783
   8223SM   H8F10949   5.337   4.203   3.969 -1.7340  1.5265  0.5477
   8223SM   H8G10950   5.413   4.347   3.900  0.3568 -1.2716 -2.0511
   8223SM   C9F10951   5.511   4.260   4.074 -0.1860  0.7684 -0.4573
   8223SM   H9F10952   5.606   4.318   4.076  0.4276 -0.2078 -0.0151
   8223SM   H9G10953   5.544   4.159   4.109 -2.3333  0.2035  0.0656
   8223SM  C10F10954   5.415   4.316   4.179 -0.9962 -0.1052  0.1048
   8223SM  H10F10955   5.323   4.255   4.167  0.5999 -2.3041 -1.9689
   8223SM  H10G10956   5.396   4.423   4.159 -0.1958  0.0589  0.2163
   8223SM  C11F10957   5.456   4.296   4.327 -0.9956  0.6461 -0.7088
   8223SM  H11F10958   5.549   4.356   4.339 -2.4080  2.7190  0.4991
   8223SM  H11G10959   5.492   4.192   4.340 -0.1873  1.2039  2.2381
   8223SM  C12F10960   5.361   4.332   4.437 -0.0581  0.1403 -0.0809
   8223SM  H12F10961   5.267   4.283   4.403 -0.5411  1.2399 -0.4050
   8223SM  H12G10962   5.341   4.442   4.440  1.3032  0.3963  0.5743
   8223SM  C13F10963   5.401   4.281   4.575 -0.1553  0.0051 -0.4099
   8223SM  H13F10964   5.406   4.170   4.579 -1.1387 -0.1173 -1.7797
   8223SM  H13G10965   5.309   4.304   4.632 -2.4795 -1.5473 -3.2452
   8223SM  C14F10966   5.528   4.350   4.625  0.0422 -0.0947  0.1896
   8223SM  H14F10967   5.522   4.454   4.588 -1.3193  0.0054  0.6434
   8223SM  H14G10968   5.616   4.302   4.576  0.7154  1.2857 -0.0013
   8223SM  C15F10969   5.550   4.345   4.775  0.1357 -0.0888  0.3594
   8223SM  H15F10970   5.520   4.243   4.807 -0.5437  0.1795  0.6056
   8223SM  H15G10971   5.469   4.411   4.814 -0.7130  1.0437 -3.0277
   8223SM  C16F10972   5.693   4.380   4.820 -0.1895 -0.7078  0.2231
   8223SM  H16F10973   5.712   4.485   4.786 -0.6043 -0.0655  1.8869
   8223SM  H16G10974   5.764   4.307   4.775  0.8026  0.0622  0.5045
   8223SM  C17F10975   5.713   4.384   4.968 -0.1304 -0.4527 -0.5292
   8223SM  H17F10976   5.689   4.286   5.013 -2.5050 -0.4280 -1.5910
   8223SM  H17G10977   5.637   4.451   5.014  0.8715 -1.1903  2.4111
   8223SM  C18F10978   5.860   4.423   5.007 -0.0372  0.2088  0.6806
   8223SM  H18F10979   5.879   4.530   4.981  0.3680  0.6416  2.5775
   8223SM  H18G10980   5.925   4.360   4.943  0.2857  1.3013 -0.0911
   8223SM  C19F10981   5.886   4.391   5.153  0.1410  0.5981 -0.1533
   8223SM  H19F10982   5.982   4.439   5.182  0.5402 -0.8072  0.9578
   8223SM  H19G10983   5.895   4.282   5.171 -0.0601  0.3609 -1.4040
   8223SM  C20F10984   5.788   4.450   5.266 -0.0743 -0.1474  0.4058
   8223SM  H20F10985   5.851   4.426   5.354 -0.1836 -1.0857  0.2361
   8223SM  H20G10986   5.706   4.375   5.260  0.6013 -0.8081 -4.8510
   8223SM  C21F10987   5.770   4.594   5.257 -0.8071 -0.0374 -0.2235
   8223SM  H21F10988   5.736   4.627   5.156  0.9023 -2.6692 -1.7911
   8223SM  H21G10989   5.866   4.650   5.262 -1.5416  1.5642 -2.2735
   8223SM  C22F10990   5.685   4.660   5.360 -0.7619  0.5463  0.0130
   8223SM  H22F10991   5.715   4.765   5.375 -2.8069  1.5148 -2.0762
   8223SM  H22G10992   5.708   4.606   5.454 -0.1715 -0.3654 -0.6286
   8223SM  C23F10993   5.534   4.652   5.332 -0.2149 -0.2492  0.6223
   8223SM  H23F10994   5.489   4.551   5.338 -1.4476  0.1630 -1.0037
   8223SM  H23G10995   5.511   4.672   5.225  0.4997 -5.1185 -0.6690
   8223SM  H23H10996   5.465   4.717   5.390  0.0138  0.8631 -0.3199
   8323SM     N10997   5.350   3.961   2.834  0.1609  0.8769 -0.9669
   8323SM   C1510998   5.210   3.915   2.881  0.1625 -0.3723 -0.6455
   8323SM  H15A10999   5.180   3.826   2.828  1.4350 -0.4045 -1.3380
   8323SM  H15B11000   5.137   3.987   2.848 -0.6815 -1.1587 -0.5606
   8323SM  H15C11001   5.195   3.910   2.988 -2.7056  1.4982 -0.8425
   8323SM   C1411002   5.358   3.976   2.691  0.4605  0.1724 -0.3969
   8323SM  H14A11003   5.319   3.885   2.648 -0.1825 -0.9010  2.2428
   8323SM  H14B11004   5.459   3.988   2.654  0.3024 -0.5241 -1.0892
   8323SM  H14C11005   5.315   4.063   2.643  2.5223  0.7645 -1.2883
   8323SM   C1311006   5.384   4.086   2.905 -0.1354 -0.8549 -0.0365
   8323SM  H13A11007   5.394   4.076   3.012  1.6979  1.6653  0.1474
   8323SM  H13B11008   5.309   4.163   2.891  0.9564  0.5098  1.1833
   8323SM  H13C11009   5.479   4.122   2.866 -1.0043  0.3490 -1.1410
   8323SM   C1211010   5.456   3.860   2.877 -0.6031  0.5230  0.2467
   8323SM  H12A11011   5.412   3.762   2.870  2.1114 -0.6730 -2.2184
   8323SM  H12B11012   5.479   3.852   2.983  0.0549 -1.8921 -0.0202
   8323SM   C1111013   5.586   3.851   2.788 -0.0255  0.2868 -0.3872
   8323SM  H11A11014   5.564   3.835   2.680 -0.5723 -1.0750 -0.0943
   8323SM  H11B11015   5.644   3.764   2.827 -2.2265 -0.5821  1.1542
   8323SM     P11016   5.769   4.013   2.894  0.2392 -0.3545  0.4648
   8323SM   O1311017   5.896   4.033   2.824 -0.6071 -0.3778  0.6098
   8323SM   O1411018   5.720   4.127   2.971 -0.0360  0.1028 -0.2282
   8323SM   O1111019   5.785   3.874   2.985  0.3932 -0.3378  0.1745
   8323SM   O1211020   5.660   3.971   2.790 -0.4527 -0.5220  0.3047
   8323SM   C1S11021   5.876   3.894   3.100  0.7513  0.0015 -0.2854
   8323SM   H1S11022   5.951   3.976   3.096  1.2980 -0.4563  0.1889
   8323SM   H1T11023   5.925   3.795   3.120  2.8742  0.7519 -1.4207
   8323SM    NF11024   5.868   3.942   3.348 -0.2108  0.5568  0.4279
   8323SM   HNF11025   5.891   3.864   3.407  2.3529 -0.5707 -1.8478
   8323SM   C2S11026   5.787   3.920   3.230 -0.2840 -0.1263  0.6235
   8323SM   H2S11027   5.720   4.007   3.216  0.1276  0.1369  0.2482
   8323SM   C3S11028   5.693   3.791   3.247 -0.2703 -0.2289 -0.6408
   8323SM   H3S11029   5.749   3.703   3.287 -0.8098 -1.8550 -3.2009
   8323SM    O311030   5.626   3.738   3.134  0.0153 -0.4902  0.4082
   8323SM   HO311031   5.677   3.777   3.062 -0.0410 -1.8098 -0.3743
   8323SM   C4S11032   5.597   3.809   3.361 -1.1957 -0.3478  0.2615
   8323SM   H4S11033   5.631   3.761   3.454 -0.8803 -1.2852 -0.3114
   8323SM   C5S11034   5.473   3.859   3.362  0.5439  0.1388 -0.1961
   8323SM   H5S11035   5.432   3.908   3.272  0.4311  0.3601 -0.0272
   8323SM   C6S11036   5.390   3.865   3.495 -0.6006 -0.3317 -0.0770
   8323SM   H6S11037   5.305   3.795   3.486 -1.6996  1.0324 -0.7286
   8323SM   H6T11038   5.342   3.965   3.503 -1.4304 -0.4960 -2.3414
   8323SM   C7S11039   5.462   3.835   3.626 -0.2004 -0.3316 -0.8230
   8323SM   H7S11040   5.548   3.905   3.634 -0.8015  0.4917 -1.2995
   8323SM   H7T11041   5.496   3.730   3.623  1.9424  0.3321 -3.4581
   8323SM   C8S11042   5.367   3.849   3.748  0.3702 -0.2510 -0.5387
   8323SM   H8S11043   5.274   3.796   3.718 -0.6569  0.3067  1.5212
   8323SM   H8T11044   5.337   3.954   3.761 -0.6814 -0.3093 -2.2411
   8323SM   C9S11045   5.424   3.800   3.878 -0.3965  0.6759  0.1451
   8323SM   H9S11046   5.520   3.851   3.903 -0.3157  0.0422  1.1802
   8323SM   H9T11047   5.446   3.692   3.880 -1.2395  0.4956  0.3159
   8323SM  C10S11048   5.335   3.828   4.004  0.3674  0.1522 -0.1911
   8323SM  H10S11049   5.231   3.793   3.987  0.9805 -1.7281 -0.3080
   8323SM  H10T11050   5.326   3.937   4.018 -2.2728 -0.1926  1.3455
   8323SM  C11S11051   5.382   3.778   4.141 -0.1642  0.0339  0.3001
   8323SM  H11S11052   5.380   3.667   4.151  0.0645  0.1193  1.5208
   8323SM  H11T11053   5.305   3.799   4.218  1.0213  1.1166  1.2390
   8323SM  C12S11054   5.516   3.837   4.182  0.0578  0.7242  0.4633
   8323SM  H12S11055   5.526   3.943   4.152  3.4126  0.2687 -0.4642
   8323SM  H12T11056   5.598   3.792   4.122 -0.5978  0.0884  0.0344
   8323SM  C13S11057   5.527   3.828   4.336 -0.2261  0.3814  0.3374
   8323SM  H13S11058   5.533   3.724   4.373 -1.0111  0.2531  0.1193
   8323SM  H13T11059   5.434   3.873   4.375 -0.0772  2.9470 -1.9402
   8323SM  C14S11060   5.648   3.907   4.397 -0.3793 -0.4494  0.0244
   8323SM  H14S11061   5.641   4.018   4.386  1.9020 -0.2791 -0.2002
   8323SM  H14T11062   5.738   3.875   4.340 -0.6065 -0.1439 -0.5148
   8323SM  C15S11063   5.659   3.865   4.543 -0.1280 -0.2068  0.0479
   8323SM  H15S11064   5.679   3.757   4.559  0.3740 -0.1719 -0.3140
   8323SM  H15T11065   5.558   3.875   4.589  0.2801  1.1708  0.7211
   8323SM  C16S11066   5.763   3.950   4.630 -0.1521 -0.7442  0.0832
   8323SM  H16S11067   5.740   4.058   4.615  2.2425 -0.3613 -1.3643
   8323SM  H16T11068   5.868   3.933   4.598  0.6640  1.1574  1.5317
   8323SM  C17S11069   5.754   3.910   4.781  0.7345  0.0265  1.2779
   8323SM  H17S11070   5.745   3.800   4.793  1.5745 -0.0838  1.0147
   8323SM  H17T11071   5.662   3.955   4.824 -1.3092  0.1589 -2.7238
   8323SM  C18S11072   5.878   3.948   4.854  0.4479 -0.2910 -0.3774
   8323SM  H18S11073   5.867   3.936   4.964  0.4183  0.4088 -0.3031
   8323SM  H18T11074   5.928   4.042   4.824 -1.8766  1.5475  1.1884
   8323SM  H18U11075   5.953   3.870   4.829  1.4418  0.0303  1.4655
   8323SM   C1F11076   5.927   4.059   3.374 -0.6873 -0.2440  0.1339
   8323SM    OF11077   5.907   4.161   3.304  0.0310  0.3330  0.0142
   8323SM   C2F11078   6.017   4.065   3.497  0.0018 -0.4925  0.3658
   8323SM   H2F11079   6.099   4.137   3.479 -1.8276  1.3700 -0.9867
   8323SM   H2G11080   6.057   3.964   3.521  2.0622  0.2508  0.2181
   8323SM   C3F11081   5.939   4.110   3.625 -0.1532  0.5933  0.1122
   8323SM   H3F11082   5.854   4.040   3.638  0.8629 -0.5585  0.8595
   8323SM   H3G11083   5.901   4.214   3.628 -0.7182  0.4579 -1.4751
   8323SM   C4F11084   6.007   4.099   3.764 -0.6555 -0.7278  0.2043
   8323SM   H4F11085   6.104   4.153   3.773 -1.2845  0.6242 -0.7886
   8323SM   H4G11086   6.035   3.992   3.759  0.8451 -0.3181 -2.2756
   8323SM   C5F11087   5.916   4.137   3.879 -0.0777 -0.1661  0.8957
   8323SM   H5F11088   5.839   4.058   3.875 -0.3297  0.0529  1.3291
   8323SM   H5G11089   5.861   4.230   3.854 -1.8544 -0.9932  1.5372
   8323SM   C6F11090   5.983   4.125   4.016 -0.2122 -0.4328 -0.2471
   8323SM   H6F11091   6.041   4.218   4.035  0.9647 -1.3244  0.6797
   8323SM   H6G11092   6.040   4.029   4.017  0.7014  0.0946  0.9559
   8323SM   C7F11093   5.883   4.109   4.127 -0.8805 -0.0236 -0.2931
   8323SM   H7F11094   5.824   4.014   4.122 -0.6253 -0.1205 -2.7157
   8323SM   H7G11095   5.799   4.179   4.104 -0.7393  0.9079  1.7750
   8323SM   C8F11096   5.935   4.119   4.274 -0.2957 -0.8347  1.0006
   8323SM   H8F11097   6.006   4.036   4.296  2.0715  1.1637  1.4138
   8323SM   H8G11098   5.847   4.104   4.340 -1.6761  2.2114  0.0124
   8323SM   C9F11099   6.012   4.247   4.322 -0.8123 -0.3630 -0.8877
   8323SM   H9F11100   6.088   4.285   4.251 -1.2385 -0.3129 -1.3253
   8323SM   H9G11101   6.077   4.215   4.406 -0.3961  0.4385 -0.8988
   8323SM  C10F11102   5.912   4.359   4.364  0.4505  0.7256  0.1628
   8323SM  H10F11103   5.826   4.321   4.423 -0.2252 -0.4498 -1.4967
   8323SM  H10G11104   5.866   4.394   4.269 -0.5754 -0.5812  0.1558
   8323SM  C11F11105   5.970   4.473   4.443 -0.8631 -0.9688  0.4617
   8323SM  H11F11106   6.047   4.527   4.384 -0.4075  0.0128  1.8979
   8323SM  H11G11107   6.008   4.438   4.542  0.0404  0.3586  0.6073
   8323SM  C12F11108   5.871   4.579   4.488 -0.0609 -0.1143 -0.1436
   8323SM  H12F11109   5.924   4.666   4.531 -0.8177 -1.0271  2.8885
   8323SM  H12G11110   5.807   4.541   4.570 -1.6122  0.8203 -0.8757
   8323SM  C13F11111   5.791   4.636   4.374  0.0245 -0.6286 -0.2065
   8323SM  H13F11112   5.730   4.565   4.316 -1.7605  0.3417  0.3930
   8323SM  H13G11113   5.872   4.681   4.312 -2.0342 -1.3531 -3.6913
   8323SM  C14F11114   5.705   4.745   4.427  0.0678 -0.8659 -0.7021
   8323SM  H14F11115   5.765   4.813   4.492 -0.6663 -0.8062 -0.0598
   8323SM  H14G11116   5.638   4.701   4.505 -0.1293  1.5758  0.6231
   8323SM  C15F11117   5.621   4.815   4.314 -0.8680  0.0520  0.5498
   8323SM  H15F11118   5.563   4.898   4.361 -1.5522  0.1437 -0.4337
   8323SM  H15G11119   5.562   4.735   4.265  0.4372  0.1589 -1.3006
   8323SM  C16F11120   5.710   4.868   4.202  0.2519 -0.3437 -0.8087
   8323SM  H16F11121   5.756   4.777   4.157 -2.1203 -2.6146  1.0561
   8323SM  H16G11122   5.780   4.934   4.257 -1.4514  0.8204  0.0628
   8323SM  C17F11123   5.647   4.957   4.091 -0.2893  0.1706  0.3449
   8323SM  H17F11124   5.580   5.031   4.141  0.8915 -0.1598  2.5101
   8323SM  H17G11125   5.586   4.887   4.030 -1.2241  0.7573  0.5752
   8323SM  C18F11126   5.754   5.020   4.002  0.0467 -0.2641  0.3780
   8323SM  H18F11127   5.809   5.104   4.048 -0.9773  0.3899  0.4550
   8323SM  H18G11128   5.704   5.065   3.913  1.3650  1.9423  0.6831
   8323SM  C19F11129   5.848   4.924   3.941 -1.0639 -0.5874  0.3350
   8323SM  H19F11130   5.805   4.822   3.934  0.9133 -1.4256 -0.5555
   8323SM  H19G11131   5.945   4.930   3.995  1.1792  0.4835 -3.4373
   8323SM  C20F11132   5.888   4.960   3.788  0.8075  1.1907 -0.5181
   8323SM  H20F11133   5.986   4.909   3.778  1.1580  1.7186  0.1796
   8323SM  H20G11134   5.904   5.069   3.771  0.5343  1.2365 -0.4905
   8323SM  C21F11135   5.800   4.894   3.681  0.1501 -0.5074  0.7509
   8323SM  H21F11136   5.700   4.941   3.690  0.7062  0.4160  2.6400
   8323SM  H21G11137   5.801   4.790   3.718  2.4026 -1.4870 -1.6852
   8323SM  C22F11138   5.858   4.907   3.537  0.4113  0.1494  0.2595
   8323SM  H22F11139   5.963   4.871   3.536 -0.3650 -2.3500 -1.5852
   8323SM  H22G11140   5.863   5.016   3.516 -1.3033  0.3199  0.6477
   8323SM  C23F11141   5.774   4.820   3.443  0.6728 -0.4817  0.4214
   8323SM  H23F11142   5.667   4.848   3.447  0.2559 -1.8988 -0.3606
   8323SM  H23G11143   5.800   4.713   3.459 -2.3334 -1.3357  0.2002
   8323SM  H23H11144   5.813   4.850   3.343 -1.5236  0.2976 -0.2480
   8423SM     N11145   4.813   3.332   2.742 -0.3133 -0.0797 -0.4456
   8423SM   C1511146   4.875   3.372   2.871  0.2306  0.5013 -0.0029
   8423SM  H15A11147   4.805   3.434   2.926 -0.3184 -1.4255  1.6045
   8423SM  H15B11148   4.958   3.440   2.855  0.1343  0.7775  0.6456
   8423SM  H15C11149   4.909   3.293   2.937  0.6032  0.0671 -0.7045
   8423SM   C1411150   4.772   3.455   2.666  0.5966 -0.2851 -0.1828
   8423SM  H14A11151   4.732   3.423   2.571 -0.4339  2.1486 -0.6568
   8423SM  H14B11152   4.856   3.520   2.645 -0.4376  1.4335  0.7779
   8423SM  H14C11153   4.695   3.516   2.711 -0.1454 -2.0435  1.0151
   8423SM   C1311154   4.916   3.269   2.662  0.3736 -0.2270  0.7807
   8423SM  H13A11155   4.999   3.338   2.663  0.7394 -0.4617 -2.1245
   8423SM  H13B11156   4.891   3.268   2.557  0.3639 -0.8415  0.7840
   8423SM  H13C11157   4.932   3.167   2.693 -0.8439 -1.3371 -1.9026
   8423SM   C1211158   4.695   3.240   2.764 -0.0140  0.6021 -0.4580
   8423SM  H12A11159   4.661   3.211   2.666 -1.2693  0.2910  0.0426
   8423SM  H12B11160   4.605   3.288   2.800 -0.8706  1.0831 -3.0051
   8423SM   C1111161   4.730   3.111   2.843 -0.4929  0.3579 -0.2728
   8423SM  H11A11162   4.632   3.061   2.853  0.1866 -1.0375 -0.4375
   8423SM  H11B11163   4.766   3.136   2.945 -1.3364 -1.1713  0.4246
   8423SM     P11164   4.797   2.908   2.687  0.1089  0.2124  0.2397
   8423SM   O1311165   4.677   2.935   2.600  0.6734  0.2232  0.4555
   8423SM   O1411166   4.917   2.875   2.607 -0.3265 -0.0954  0.0890
   8423SM   O1111167   4.758   2.787   2.789 -0.4111 -0.0291  0.1688
   8423SM   O1211168   4.826   3.031   2.777 -0.4604 -0.1799  0.0513
   8423SM   C1S11169   4.866   2.736   2.870 -0.5927 -0.1816  0.0169
   8423SM   H1S11170   4.969   2.754   2.832 -0.8407  0.9555 -0.1466
   8423SM   H1T11171   4.859   2.625   2.867  0.7024 -0.2883  0.5106
   8423SM    NF11172   4.984   2.737   3.083 -0.8423  0.2345  0.0434
   8423SM   HNF11173   4.973   2.663   3.149  1.8305  2.3823  3.1960
   8423SM   C2S11174   4.867   2.785   3.019  0.8508  0.0276  0.2953
   8423SM   H2S11175   4.860   2.896   3.009 -2.1457 -0.1474 -0.6402
   8423SM   C3S11176   4.731   2.736   3.083 -0.4084 -0.1386  0.2642
   8423SM   H3S11177   4.732   2.625   3.083 -0.5822 -0.1403  0.7081
   8423SM    O311178   4.610   2.776   3.012 -0.6203 -0.4269 -0.1572
   8423SM   HO311179   4.641   2.814   2.929  0.3486 -1.2355 -0.1957
   8423SM   C4S11180   4.717   2.784   3.230  0.3359  0.1314  0.5954
   8423SM   H4S11181   4.732   2.703   3.303 -0.7089 -1.3251 -0.7609
   8423SM   C5S11182   4.684   2.908   3.269 -0.1402 -0.0276  0.8441
   8423SM   H5S11183   4.661   2.980   3.189  1.0852  0.4887  0.9494
   8423SM   C6S11184   4.657   2.948   3.413  0.5396  0.6224  0.3209
   8423SM   H6S11185   4.555   2.992   3.416  0.3761  0.3249 -0.6006
   8423SM   H6T11186   4.732   3.022   3.448  0.9490 -0.8141  2.6724
   8423SM   C7S11187   4.651   2.828   3.510  0.5302 -0.3632  0.1268
   8423SM   H7S11188   4.752   2.782   3.504 -0.0108 -1.4181 -2.7583
   8423SM   H7T11189   4.595   2.740   3.473  0.3134  0.1836 -0.8911
   8423SM   C8S11190   4.610   2.869   3.649  0.5821  0.5140  0.6096
   8423SM   H8S11191   4.556   2.789   3.702  1.3955  0.0082  0.6905
   8423SM   H8T11192   4.541   2.956   3.645  1.4178  1.1463 -1.8514
   8423SM   C9S11193   4.734   2.897   3.747  0.0774  0.0322 -0.0264
   8423SM   H9S11194   4.781   2.990   3.708  0.9310 -0.9706 -1.4638
   8423SM   H9T11195   4.812   2.819   3.742  0.8932  0.7827  0.7415
   8423SM  C10S11196   4.691   2.912   3.895 -0.4173  0.3429  0.1490
   8423SM  H10S11197   4.611   2.838   3.915 -2.2527  1.2278 -3.1625
   8423SM  H10T11198   4.643   3.012   3.898  0.0925  0.7814 -2.9960
   8423SM  C11S11199   4.803   2.890   4.002 -0.5544 -0.4293  0.1073
   8423SM  H11S11200   4.894   2.945   3.972 -1.3755  0.5505 -0.6675
   8423SM  H11T11201   4.831   2.782   3.995  1.6814  0.1713 -1.0139
   8423SM  C12S11202   4.765   2.914   4.148  0.5256 -0.9912  0.3743
   8423SM  H12S11203   4.666   2.868   4.164 -0.1308 -0.6504 -2.2018
   8423SM  H12T11204   4.751   3.023   4.163 -0.1578 -0.7450 -1.6673
   8423SM  C13S11205   4.874   2.874   4.251  0.2532  0.8854  0.7470
   8423SM  H13S11206   4.974   2.913   4.223  0.2817  0.0023 -0.4635
   8423SM  H13T11207   4.870   2.764   4.236  3.8296  0.6974  0.2216
   8423SM  C14S11208   4.853   2.909   4.399  0.0530  0.1030  0.2699
   8423SM  H14S11209   4.746   2.894   4.423  0.0324  1.1853  0.9476
   8423SM  H14T11210   4.862   3.019   4.416 -1.9679  0.4503 -0.6332
   8423SM  C15S11211   4.941   2.827   4.492  0.4131  0.0337 -0.1101
   8423SM  H15S11212   5.046   2.847   4.461  0.1507  1.1836 -0.2882
   8423SM  H15T11213   4.929   2.719   4.468 -1.4243  0.2714 -0.3885
   8423SM  C16S11214   4.899   2.856   4.633  0.0968 -0.6523 -0.5186
   8423SM  H16S11215   4.795   2.823   4.654  0.1881 -1.0896 -0.7322
   8423SM  H16T11216   4.900   2.966   4.647  0.4349 -0.5626 -1.1915
   8423SM  C17S11217   4.993   2.788   4.731  0.5233  0.0638  0.4492
   8423SM  H17S11218   5.096   2.826   4.717  0.4241 -0.5026 -2.5368
   8423SM  H17T11219   5.003   2.684   4.693  1.3094  0.2537  0.1162
   8423SM  C18S11220   4.948   2.771   4.879  0.5645 -0.4519 -0.5685
   8423SM  H18S11221   4.997   2.693   4.942  0.7535 -0.5636 -0.8530
   8423SM  H18T11222   4.837   2.776   4.881  0.5269 -1.1748  0.5219
   8423SM  H18U11223   4.973   2.868   4.925 -1.2508  0.0875 -0.6475
   8423SM   C1F11224   5.103   2.804   3.071 -0.6228  0.4441  0.1756
   8423SM    OF11225   5.119   2.901   3.002 -1.0712 -0.1565  0.3300
   8423SM   C2F11226   5.212   2.757   3.152 -0.0137  0.7078 -0.1785
   8423SM   H2F11227   5.294   2.724   3.084 -0.5545 -0.5762 -0.2468
   8423SM   H2G11228   5.188   2.667   3.213  1.4541  0.0442 -0.5268
   8423SM   C3F11229   5.259   2.869   3.252  0.4960 -0.0822 -0.5756
   8423SM   H3F11230   5.290   2.960   3.196 -1.0493  0.2618 -0.9115
   8423SM   H3G11231   5.344   2.834   3.314 -1.4369  1.8398  3.4732
   8423SM   C4F11232   5.146   2.890   3.359  0.2481 -0.2706 -0.1039
   8423SM   H4F11233   5.085   2.800   3.383 -0.0334  0.2604  1.2545
   8423SM   H4G11234   5.069   2.955   3.314  1.8087  1.3336 -0.5768
   8423SM   C5F11235   5.193   2.945   3.499  0.7092 -0.0005 -0.0157
   8423SM   H5F11236   5.228   3.049   3.486 -0.9102  0.6984  0.8111
   8423SM   H5G11237   5.267   2.874   3.541 -2.3816 -4.0768 -0.7941
   8423SM   C6F11238   5.071   2.953   3.595 -0.0973  0.5995 -0.9460
   8423SM   H6F11239   5.031   2.851   3.617  1.5317  0.2054  0.4441
   8423SM   H6G11240   4.983   3.012   3.564  1.4417  3.1747 -0.6481
   8423SM   C7F11241   5.122   3.006   3.735 -0.8401  0.4708  0.3891
   8423SM   H7F11242   5.027   3.031   3.787 -1.8388  0.7617 -1.4893
   8423SM   H7G11243   5.172   3.104   3.720 -0.8767  0.3980 -0.2233
   8423SM   C8F11244   5.202   2.921   3.828 -0.1023  0.4515 -0.1803
   8423SM   H8F11245   5.297   2.893   3.780 -1.6157 -3.6324 -1.2010
   8423SM   H8G11246   5.148   2.826   3.851  1.7758 -0.7224 -0.4657
   8423SM   C9F11247   5.229   3.000   3.960 -0.0960 -0.5565 -0.0347
   8423SM   H9F11248   5.137   3.052   3.995 -0.5043 -0.9892 -0.4468
   8423SM   H9G11249   5.306   3.080   3.956  0.8838 -1.5041 -0.4241
   8423SM  C10F11250   5.266   2.909   4.077 -0.1913  0.3715 -0.6783
   8423SM  H10F11251   5.368   2.869   4.057 -0.7823 -0.0545 -3.1073
   8423SM  H10G11252   5.195   2.827   4.100  0.9996 -0.4301  0.3237
   8423SM  C11F11253   5.262   2.991   4.204  0.6022 -0.2747 -1.0632
   8423SM  H11F11254   5.163   3.040   4.215  0.5907  0.2992 -3.2897
   8423SM  H11G11255   5.328   3.081   4.201 -3.4050  3.2026  1.8881
   8423SM  C12F11256   5.285   2.913   4.335  0.2711 -0.2802 -0.3259
   8423SM  H12F11257   5.383   2.867   4.313 -0.6375 -2.3824 -0.1685
   8423SM  H12G11258   5.211   2.831   4.346  0.5257 -0.2336  2.4894
   8423SM  C13F11259   5.284   3.009   4.455 -0.2387 -0.1078 -0.7033
   8423SM  H13F11260   5.183   3.049   4.475 -1.0577 -2.8883  1.3043
   8423SM  H13G11261   5.353   3.095   4.438 -0.9651  0.4048 -1.0946
   8423SM  C14F11262   5.325   2.935   4.578 -0.3572 -0.1917 -0.3988
   8423SM  H14F11263   5.429   2.896   4.576 -0.6445 -0.9647 -1.3823
   8423SM  H14G11264   5.255   2.850   4.585 -1.5009  0.8547  1.7350
   8423SM  C15F11265   5.309   3.036   4.690 -0.0703 -0.3097  0.1011
   8423SM  H15F11266   5.201   3.060   4.702  0.1716  1.3291 -0.6674
   8423SM  H15G11267   5.362   3.131   4.668  0.5623 -1.0687 -1.7957
   8423SM  C16F11268   5.362   2.986   4.823 -0.1132  0.3818  0.3569
   8423SM  H16F11269   5.473   2.983   4.822 -0.1270 -2.2980  0.7690
   8423SM  H16G11270   5.328   2.881   4.834  2.4176 -0.6377 -0.8791
   8423SM  C17F11271   5.311   3.069   4.943 -0.4157  0.0174  0.2146
   8423SM  H17F11272   5.339   3.022   5.040 -0.3353  0.5036  0.4323
   8423SM  H17G11273   5.201   3.081   4.938 -0.6575 -1.4238  1.5383
   8423SM  C18F11274   5.355   3.215   4.941 -0.8182 -0.7435 -0.5899
   8423SM  H18F11275   5.297   3.272   5.017  1.0058 -0.1341  0.4007
   8423SM  H18G11276   5.329   3.259   4.843  0.6399 -1.8430 -1.5040
   8423SM  C19F11277   5.502   3.244   4.958  0.0023 -0.2558  0.5716
   8423SM  H19F11278   5.569   3.212   4.875  1.3840 -0.1104  1.5783
   8423SM  H19G11279   5.538   3.193   5.050  0.3407 -0.8611  0.1093
   8423SM  C20F11280   5.529   3.396   4.986  0.5697  0.7779  0.1917
   8423SM  H20F11281   5.461   3.437   5.063  0.5167  1.5968 -0.2783
   8423SM  H20G11282   5.498   3.450   4.894 -2.6061  0.2815  0.8640
   8423SM  C21F11283   5.676   3.430   5.022 -0.1798 -0.3031  0.3111
   8423SM  H21F11284   5.712   3.365   5.104 -0.5795  0.9876  1.5405
   8423SM  H21G11285   5.674   3.530   5.069  2.2490 -0.8066  1.6109
   8423SM  C22F11286   5.759   3.435   4.898 -0.9557  0.9873 -0.1276
   8423SM  H22F11287   5.729   3.527   4.843 -0.7590 -0.4042 -2.7214
   8423SM  H22G11288   5.735   3.351   4.830  0.4228 -1.1162  1.8602
   8423SM  C23F11289   5.915   3.439   4.916 -0.8432 -0.3542 -0.6227
   8423SM  H23F11290   5.951   3.435   4.811 -0.3934  1.7261 -0.5791
   8423SM  H23G11291   5.950   3.346   4.966  0.2928 -0.6553 -1.9207
   8423SM  H23H11292   5.954   3.532   4.961  1.7628 -1.6944  0.0942
   8523SM     N11293   6.841   3.551   3.181  0.5217 -0.2019 -0.0414
   8523SM   C1511294   6.887   3.454   3.074 -0.1100  0.3233  0.1228
   8523SM  H15A11295   6.819   3.371   3.068 -1.4745  1.4703 -0.9695
   8523SM  H15B11296   6.988   3.425   3.098  0.4014  2.6090  1.0025
   8523SM  H15C11297   6.901   3.500   2.977 -1.0055 -1.4346 -0.8761
   8523SM   C1411298   6.807   3.489   3.312 -0.1379  0.3845  0.0845
   8523SM  H14A11299   6.796   3.559   3.394 -0.2591 -0.5668  0.9009
   8523SM  H14B11300   6.878   3.417   3.349  0.0920  0.7689  0.4015
   8523SM  H14C11301   6.717   3.431   3.298  0.2546 -0.5675  1.3379
   8523SM   C1311302   6.946   3.649   3.209 -0.2545  0.9714  0.0164
   8523SM  H13A11303   6.909   3.711   3.290 -1.5161  0.3936 -0.1007
   8523SM  H13B11304   6.969   3.706   3.120  4.2040  1.2257  1.0706
   8523SM  H13C11305   7.044   3.605   3.222 -0.6012 -0.2211 -1.2247
   8523SM   C1211306   6.714   3.629   3.147  0.0379 -0.4571  0.5040
   8523SM  H12A11307   6.697   3.698   3.228  1.0714 -0.4383  0.7237
   8523SM  H12B11308   6.630   3.564   3.130  0.5806 -0.4249 -2.8866
   8523SM   C1111309   6.710   3.720   3.026  0.5862  0.6011 -0.2666
   8523SM  H11A11310   6.609   3.766   3.030 -1.1510 -2.9281  1.9137
   8523SM  H11B11311   6.713   3.668   2.928 -0.0040 -0.3794  0.2157
   8523SM     P11312   6.789   3.972   3.009  0.4024 -0.1905 -0.6274
   8523SM   O1311313   6.922   4.039   3.014  0.7209 -0.5308  0.3077
   8523SM   O1411314   6.699   3.992   2.892  0.1783  0.7478  0.5434
   8523SM   O1111315   6.708   3.997   3.150 -0.1604 -0.3645 -0.0282
   8523SM   O1211316   6.817   3.818   3.014 -0.5544 -0.5086 -0.1179
   8523SM   C1S11317   6.788   4.009   3.271 -0.7669 -1.0829  0.6671
   8523SM   H1S11318   6.848   4.103   3.267 -0.4289 -1.2610  1.3370
   8523SM   H1T11319   6.867   3.931   3.283 -0.3204 -1.4154 -3.3107
   8523SM    NF11320   6.785   4.006   3.518  0.0958 -0.0121 -0.0491
   8523SM   HNF11321   6.782   3.919   3.566  3.8364 -1.3081 -1.7422
   8523SM   C2S11322   6.701   4.001   3.396 -0.9151 -0.8075  0.3599
   8523SM   H2S11323   6.638   4.092   3.388 -1.5866 -1.3374 -0.6502
   8523SM   C3S11324   6.608   3.883   3.399  0.3176  0.6675 -0.1126
   8523SM   H3S11325   6.666   3.787   3.399 -0.9066 -0.1019 -1.0970
   8523SM    O311326   6.524   3.857   3.285 -0.5279 -0.6741  0.7295
   8523SM   HO311327   6.559   3.917   3.219 -2.2510  0.6605  0.9622
   8523SM   C4S11328   6.526   3.881   3.526  0.0571 -0.1613  0.1074
   8523SM   H4S11329   6.568   3.831   3.615 -1.2984 -1.6042 -0.0248
   8523SM   C5S11330   6.404   3.950   3.541 -0.2493  0.9190  0.0557
   8523SM   H5S11331   6.359   3.995   3.451 -0.8956  0.3688  0.0888
   8523SM   C6S11332   6.335   3.974   3.670 -0.4738 -0.1781  0.0994
   8523SM   H6S11333   6.235   3.926   3.671  0.3627 -1.9763  0.5201
   8523SM   H6T11334   6.326   4.084   3.683 -0.5005 -0.3780  2.1501
   8523SM   C7S11335   6.393   3.906   3.795  0.7199 -0.4990 -0.4668
   8523SM   H7S11336   6.494   3.945   3.821  0.6205 -1.5019  1.6764
   8523SM   H7T11337   6.386   3.796   3.808  0.8044 -0.3619  0.9281
   8523SM   C8S11338   6.311   3.949   3.917 -0.3279 -0.0528 -0.1461
   8523SM   H8S11339   6.201   3.933   3.916 -0.1520 -1.7976  1.7115
   8523SM   H8T11340   6.328   4.059   3.924 -0.1962 -0.1444  1.1271
   8523SM   C9S11341   6.366   3.887   4.047 -0.0136 -0.7150  0.3104
   8523SM   H9S11342   6.476   3.897   4.031 -0.4409  2.0751 -1.6454
   8523SM   H9T11343   6.332   3.781   4.044 -1.2341 -0.3168 -0.8925
   8523SM  C10S11344   6.331   3.953   4.178 -0.2893  0.6761  0.0019
   8523SM  H10S11345   6.221   3.948   4.190 -0.0654 -0.6132  1.9639
   8523SM  H10T11346   6.360   4.060   4.164  2.6406  0.0642  0.6686
   8523SM  C11S11347   6.401   3.894   4.300  0.0333 -0.9204 -0.3198
   8523SM  H11S11348   6.511   3.900   4.285  0.0896  0.2667  0.4488
   8523SM  H11T11349   6.390   3.784   4.304  1.4983 -1.0732  0.5535
   8523SM  C12S11350   6.363   3.963   4.433  0.2104 -0.2092 -1.1303
   8523SM  H12S11351   6.408   3.913   4.522 -0.8645  2.3477  0.9619
   8523SM  H12T11352   6.258   3.934   4.453  0.5840 -1.1290 -0.4329
   8523SM  C13S11353   6.372   4.114   4.441  0.5838 -0.2286  0.6323
   8523SM  H13S11354   6.300   4.147   4.363  1.6432 -0.3588 -0.4323
   8523SM  H13T11355   6.466   4.135   4.387  0.0787 -1.1671 -0.6462
   8523SM  C14S11356   6.355   4.187   4.575 -0.3674 -0.0564  0.4623
   8523SM  H14S11357   6.451   4.179   4.632 -0.9482  1.1343  1.6472
   8523SM  H14T11358   6.284   4.125   4.634 -1.1536 -0.7296 -1.1296
   8523SM  C15S11359   6.286   4.326   4.568 -0.2350  0.2160  0.3504
   8523SM  H15S11360   6.180   4.307   4.544 -0.8688  3.2241  0.4057
   8523SM  H15T11361   6.338   4.397   4.499  2.1817 -0.3420  1.4791
   8523SM  C16S11362   6.283   4.389   4.704  0.0903  0.4458  0.7115
   8523SM  H16S11363   6.228   4.482   4.681 -1.3579 -0.6400 -0.4370
   8523SM  H16T11364   6.385   4.414   4.741 -0.1797  0.2571  1.6023
   8523SM  C17S11365   6.212   4.307   4.814  0.2543 -0.4393 -0.5100
   8523SM  H17S11366   6.267   4.212   4.830 -1.1718 -0.8667  2.2900
   8523SM  H17T11367   6.103   4.291   4.802 -0.1759 -0.4655  2.7748
   8523SM  C18S11368   6.231   4.386   4.949  0.6402 -0.1697 -0.5060
   8523SM  H18S11369   6.181   4.485   4.944  0.5807  0.0200  2.3059
   8523SM  H18T11370   6.342   4.393   4.959  0.7178 -0.1598 -1.3246
   8523SM  H18U11371   6.185   4.328   5.032  0.7869  0.9514  0.3810
   8523SM   C1F11372   6.862   4.111   3.547  0.1025 -0.2339 -0.0803
   8523SM    OF11373   6.855   4.212   3.483 -0.1889 -0.5205  0.2737
   8523SM   C2F11374   6.943   4.099   3.671 -0.2642  0.8201 -0.3145
   8523SM   H2F11375   7.042   4.146   3.658  0.6568 -0.2542  2.1268
   8523SM   H2G11376   6.961   3.991   3.688  3.2841  1.4153  0.3767
   8523SM   C3F11377   6.879   4.151   3.806 -0.9659  0.5557  0.6125
   8523SM   H3F11378   6.784   4.096   3.824 -1.3676  0.6773 -1.0067
   8523SM   H3G11379   6.859   4.257   3.781  0.0511  0.3087 -1.4968
   8523SM   C4F11380   6.984   4.129   3.918  1.0210 -0.0330 -0.0299
   8523SM   H4F11381   7.071   4.198   3.911  2.4769 -1.9434 -2.5433
   8523SM   H4G11382   7.023   4.025   3.918 -0.3982 -0.5923  1.5810
   8523SM   C5F11383   6.919   4.166   4.054 -0.7831  0.1984  0.1734
   8523SM   H5F11384   6.818   4.121   4.070 -0.7171 -0.1554 -0.3797
   8523SM   H5G11385   6.901   4.275   4.062 -1.6696 -0.0422  2.0686
   8523SM   C6F11386   7.007   4.124   4.176  0.3807 -0.2178 -0.6462
   8523SM   H6F11387   7.106   4.174   4.175  0.8455 -0.8474  2.3166
   8523SM   H6G11388   7.032   4.015   4.176  2.6006  0.2391 -0.4777
   8523SM   C7F11389   6.932   4.153   4.305 -0.1650 -0.0053  0.4020
   8523SM   H7F11390   6.858   4.073   4.324  0.5900 -1.1122 -1.1534
   8523SM   H7G11391   6.874   4.247   4.292  0.7261  0.3403 -1.3593
   8523SM   C8F11392   7.019   4.172   4.433 -0.5111 -0.1934 -0.4196
   8523SM   H8F11393   7.097   4.247   4.409 -0.9749  0.6545  0.6567
   8523SM   H8G11394   7.069   4.078   4.467  1.7344  0.1086 -2.5480
   8523SM   C9F11395   6.943   4.237   4.556 -0.0154 -0.0634  0.2990
   8523SM   H9F11396   6.921   4.344   4.536  2.2656  0.7957  1.9669
   8523SM   H9G11397   7.018   4.231   4.637  0.4484 -0.1093 -0.1254
   8523SM  C10F11398   6.814   4.158   4.579  0.0837 -0.1959 -0.1907
   8523SM  H10F11399   6.837   4.050   4.565  0.0753 -0.0060 -1.8725
   8523SM  H10G11400   6.737   4.185   4.504 -0.6108  1.3254  0.9973
   8523SM  C11F11401   6.761   4.183   4.718  0.0664  0.3784  0.0156
   8523SM  H11F11402   6.832   4.146   4.795 -1.0422 -0.0059  0.9022
   8523SM  H11G11403   6.668   4.127   4.744 -0.0453  1.0937  1.3050
   8523SM  C12F11404   6.717   4.330   4.736  0.2226 -0.1045 -0.3300
   8523SM  H12F11405   6.626   4.354   4.678 -0.4407 -0.2534  0.6319
   8523SM  H12G11406   6.796   4.399   4.700 -0.5618 -0.5840 -3.1986
   8523SM  C13F11407   6.685   4.371   4.877 -0.2873 -0.1298  0.5771
   8523SM  H13F11408   6.634   4.469   4.869  1.3095  0.5973 -1.6685
   8523SM  H13G11409   6.785   4.387   4.921 -0.0893  1.3045 -0.3364
   8523SM  C14F11410   6.604   4.274   4.964 -0.2708 -0.3799 -0.4362
   8523SM  H14F11411   6.661   4.180   4.977  2.7297  1.5070  1.4617
   8523SM  H14G11412   6.517   4.260   4.897 -0.2821  3.8916 -1.5971
   8523SM  C15F11413   6.565   4.315   5.107  0.0469  0.4221  0.1483
   8523SM  H15F11414   6.509   4.235   5.161  1.1955  0.1824  1.0127
   8523SM  H15G11415   6.489   4.396   5.104  0.3899  0.7242 -0.6330
   8523SM  C16F11416   6.678   4.359   5.198  1.4053 -0.2280 -0.0225
   8523SM  H16F11417   6.762   4.402   5.140  0.5486  0.4789 -0.7744
   8523SM  H16G11418   6.718   4.275   5.259  1.6172 -0.8671 -1.0143
   8523SM  C17F11419   6.630   4.485   5.280 -1.0055  0.4185 -0.0746
   8523SM  H17F11420   6.543   4.453   5.342 -1.6620  0.3798 -0.9975
   8523SM  H17G11421   6.592   4.570   5.220 -1.9700  0.1601  0.1480
   8523SM  C18F11422   6.738   4.525   5.387  0.5235  0.4738  0.3438
   8523SM  H18F11423   6.825   4.571   5.337  1.8515 -1.7048  0.5126
   8523SM  H18G11424   6.771   4.429   5.433 -0.2467  0.3458  0.6585
   8523SM  C19F11425   6.693   4.602   5.511  0.4714 -0.1573  0.0757
   8523SM  H19F11426   6.609   4.556   5.567  0.5230 -0.6247 -0.2222
   8523SM  H19G11427   6.660   4.703   5.479  0.3108 -1.1595 -3.2910
   8523SM  C20F11428   6.816   4.604   5.606  1.2985  0.2001 -0.3509
   8523SM  H20F11429   6.911   4.623   5.551  1.1956 -3.0099 -1.8196
   8523SM  H20G11430   6.825   4.498   5.636 -0.2577 -0.1412 -0.9903
   8523SM  C21F11431   6.799   4.703   5.728 -0.0719 -0.4469  0.0599
   8523SM  H21F11432   6.747   4.796   5.697  3.8065  1.8420 -0.3292
   8523SM  H21G11433   6.900   4.738   5.760 -0.3520  0.7773 -0.3325
   8523SM  C22F11434   6.740   4.628   5.854 -0.7077 -0.0066 -0.4232
   8523SM  H22F11435   6.798   4.537   5.881  0.4731  1.2028  1.3163
   8523SM  H22G11436   6.636   4.600   5.825 -1.5239  1.0140  1.3298
   8523SM  C23F11437   6.736   4.719   5.974 -0.3815 -0.2543  0.5338
   8523SM  H23F11438   6.840   4.751   5.995 -0.0121 -0.8251 -0.3724
   8523SM  H23G11439   6.722   4.666   6.071 -0.4741  1.5039  1.5364
   8523SM  H23H11440   6.670   4.807   5.959 -1.0563 -0.5656  1.5371
   8623SM     N11441   2.760   3.489   2.847  0.4234 -0.3590  0.0115
   8623SM   C1511442   2.786   3.421   2.712  0.1820 -0.2206 -0.3595
   8623SM  H15A11443   2.849   3.485   2.652  0.9723 -1.7758 -1.2759
   8623SM  H15B11444   2.698   3.393   2.657 -0.7316 -0.2033  1.0496
   8623SM  H15C11445   2.840   3.328   2.727  2.5536  0.4273 -3.7091
   8623SM   C1411446   2.885   3.520   2.910 -0.2232 -0.0666 -0.1037
   8623SM  H14A11447   2.926   3.435   2.962  1.3859  1.6287  1.5384
   8623SM  H14B11448   2.871   3.591   2.990  2.8915 -1.6023  2.0091
   8623SM  H14C11449   2.956   3.555   2.837 -1.4572  0.0833 -1.2681
   8623SM   C1311450   2.689   3.622   2.829 -0.3611  0.5456 -0.8594
   8623SM  H13A11451   2.673   3.665   2.927 -1.4960  1.3952 -1.3964
   8623SM  H13B11452   2.590   3.602   2.792 -1.0345 -1.2262  1.6066
   8623SM  H13C11453   2.741   3.686   2.759  1.2015 -1.7932 -1.9711
   8623SM   C1211454   2.673   3.405   2.938  0.0405 -0.1813  0.2134
   8623SM  H12A11455   2.569   3.417   2.913 -0.1948 -0.8075  0.8856
   8623SM  H12B11456   2.673   3.439   3.041  1.6671 -2.1555  0.9371
   8623SM   C1111457   2.713   3.257   2.930  0.1766 -0.5548 -0.0496
   8623SM  H11A11458   2.700   3.215   2.829  1.7460  0.1263 -0.5733
   8623SM  H11B11459   2.643   3.197   2.992  0.6647  0.0534  1.1494
   8623SM     P11460   2.921   3.110   2.920 -0.1469 -0.0593 -0.3540
   8623SM   O1311461   2.849   2.982   2.948 -0.2937 -0.4987 -0.3325
   8623SM   O1411462   2.952   3.143   2.781 -0.0132  0.4025 -0.0879
   8623SM   O1111463   3.057   3.119   3.006  0.3039  0.1789 -0.4414
   8623SM   O1211464   2.840   3.230   2.987 -0.1150 -0.0940  0.2127
   8623SM   C1S11465   3.054   3.137   3.150 -0.2711 -0.1444 -0.3372
   8623SM   H1S11466   2.973   3.070   3.185 -0.7184 -1.9260 -4.2226
   8623SM   H1T11467   3.033   3.243   3.175  1.9593  0.5103 -1.0555
   8623SM    NF11468   3.147   3.064   3.366 -0.2623  0.3231  0.8310
   8623SM   HNF11469   3.191   3.122   3.434 -0.2175  1.8785 -0.4631
   8623SM   C2S11470   3.180   3.094   3.223  0.2515  0.5486 -0.9213
   8623SM   H2S11471   3.222   2.999   3.183 -2.7528 -0.8233 -1.0609
   8623SM   C3S11472   3.285   3.207   3.212 -0.0316 -0.2597 -0.0515
   8623SM   H3S11473   3.241   3.295   3.263  0.3247 -0.5148  0.7062
   8623SM    O311474   3.302   3.270   3.083  0.0350 -0.7505  0.3087
   8623SM   HO311475   3.232   3.246   3.022  1.0553  1.6290 -1.9646
   8623SM   C4S11476   3.409   3.178   3.280 -0.2206 -0.5187  0.3856
   8623SM   H4S11477   3.449   3.080   3.252 -0.5256 -0.6288  0.3333
   8623SM   C5S11478   3.474   3.247   3.375 -0.2526  0.4652 -0.1738
   8623SM   H5S11479   3.438   3.347   3.407 -0.1934  0.2785  0.5069
   8623SM   C6S11480   3.600   3.200   3.444  0.2072  0.1281 -0.1483
   8623SM   H6S11481   3.589   3.219   3.553 -2.1819 -1.0262 -0.1210
   8623SM   H6T11482   3.682   3.268   3.411  0.7417  0.5992  2.0315
   8623SM   C7S11483   3.646   3.056   3.429 -0.2138 -0.9218  0.1322
   8623SM   H7S11484   3.659   3.030   3.322  1.8767 -1.0434  0.3742
   8623SM   H7T11485   3.575   2.980   3.468 -0.2947 -1.4080 -0.9389
   8623SM   C8S11486   3.784   3.027   3.496 -1.0685  0.2295  0.2694
   8623SM   H8S11487   3.855   3.096   3.446  1.8234 -0.6243  2.8911
   8623SM   H8T11488   3.818   2.931   3.452  1.8940  0.7290  1.2504
   8623SM   C9S11489   3.791   3.038   3.648 -0.5301 -0.2062 -0.5896
   8623SM   H9S11490   3.745   3.136   3.671  0.5482 -0.0271  0.9489
   8623SM   H9T11491   3.896   3.032   3.685  0.4912 -1.8354 -3.4351
   8623SM  C10S11492   3.716   2.934   3.726 -0.1832 -0.1391  0.3859
   8623SM  H10S11493   3.741   2.830   3.696 -1.0429 -0.5067  0.8993
   8623SM  H10T11494   3.607   2.953   3.713  0.3249  3.1540  0.1809
   8623SM  C11S11495   3.735   2.943   3.877 -0.1302 -0.1838 -0.3079
   8623SM  H11S11496   3.681   3.032   3.915  1.4518  0.4962  0.4547
   8623SM  H11T11497   3.842   2.964   3.898  0.0720  1.7576 -2.8747
   8623SM  C12S11498   3.700   2.819   3.956  0.8660  0.4421 -0.8471
   8623SM  H12S11499   3.718   2.838   4.064  0.1650 -1.3570 -0.3747
   8623SM  H12T11500   3.762   2.736   3.915  0.0244 -1.9901  2.3803
   8623SM  C13S11501   3.557   2.766   3.957  0.5221 -0.1850  0.5599
   8623SM  H13S11502   3.504   2.754   3.860 -1.1034 -1.1432  1.5312
   8623SM  H13T11503   3.492   2.828   4.022 -3.5075 -1.3960 -1.9593
   8623SM  C14S11504   3.543   2.629   4.027 -0.7408 -0.0944 -0.3788
   8623SM  H14S11505   3.599   2.638   4.123  0.3934 -0.5819 -0.9864
   8623SM  H14T11506   3.598   2.561   3.960  0.6822  1.3532 -0.7336
   8623SM  C15S11507   3.402   2.581   4.057  0.0741 -0.3008  0.1293
   8623SM  H15S11508   3.366   2.532   3.964  1.3072 -0.6047 -0.2038
   8623SM  H15T11509   3.337   2.665   4.088 -2.2446 -2.0909  0.3905
   8623SM  C16S11510   3.393   2.475   4.165  0.5028 -0.6544  0.9252
   8623SM  H16S11511   3.289   2.471   4.204 -0.8063 -0.7053 -2.2083
   8623SM  H16T11512   3.461   2.489   4.251 -0.5460 -2.3605  2.1029
   8623SM  C17S11513   3.438   2.336   4.111 -0.4387 -1.5329 -0.1213
   8623SM  H17S11514   3.534   2.345   4.056 -1.5075  1.6185 -1.7698
   8623SM  H17T11515   3.363   2.305   4.035  0.2339 -1.1240 -0.9725
   8623SM  C18S11516   3.436   2.241   4.222 -0.1778 -0.3471  0.3363
   8623SM  H18S11517   3.450   2.138   4.182  0.2615  0.6645 -2.3655
   8623SM  H18T11518   3.343   2.253   4.281 -1.4024  0.8674 -1.7119
   8623SM  H18U11519   3.519   2.257   4.295  0.4402 -0.1559 -0.3882
   8623SM   C1F11520   3.075   2.957   3.394  0.3833  0.4516  0.3388
   8623SM    OF11521   3.047   2.867   3.310 -0.6305 -0.6658 -0.8520
   8623SM   C2F11522   3.015   2.948   3.534 -0.3956  0.1125 -0.1038
   8623SM   H2F11523   2.907   2.922   3.531 -0.5138  0.2011  1.9439
   8623SM   H2G11524   3.029   3.044   3.588  2.8011 -0.4683  0.3103
   8623SM   C3F11525   3.082   2.828   3.613 -0.2943 -0.1851 -0.1145
   8623SM   H3F11526   3.192   2.843   3.619  0.1020 -1.9564 -1.9192
   8623SM   H3G11527   3.055   2.736   3.558  0.1289 -0.5433  0.2698
   8623SM   C4F11528   3.009   2.810   3.748 -0.2653  0.5976 -0.1632
   8623SM   H4F11529   2.904   2.782   3.724 -0.2260 -0.1682  0.5299
   8623SM   H4G11530   2.983   2.906   3.798 -1.9699 -1.0956  2.4049
   8623SM   C5F11531   3.070   2.717   3.854 -0.2287 -0.1849  0.6074
   8623SM   H5F11532   3.166   2.761   3.891 -0.9593  0.8399  1.3569
   8623SM   H5G11533   3.084   2.614   3.817  1.4526  0.2711 -0.1171
   8623SM   C6F11534   2.976   2.700   3.980  0.9521  0.4086  0.3060
   8623SM   H6F11535   2.881   2.663   3.935  0.1972  1.3767  1.0344
   8623SM   H6G11536   2.965   2.792   4.043 -0.7557 -0.0473  0.7320
   8623SM   C7F11537   3.010   2.585   4.075 -0.0285  0.1937  1.3437
   8623SM   H7F11538   3.096   2.612   4.140 -0.1885 -0.3684  1.7941
   8623SM   H7G11539   3.043   2.505   4.005 -0.3810  0.5994  0.7098
   8623SM   C8F11540   2.892   2.542   4.153  0.2633 -0.1512 -1.0514
   8623SM   H8F11541   2.813   2.488   4.097  1.0084 -4.0346  1.2975
   8623SM   H8G11542   2.854   2.632   4.207 -0.2811 -0.7803 -0.3691
   8623SM   C9F11543   2.917   2.441   4.257  0.1205  0.0962 -0.0162
   8623SM   H9F11544   2.825   2.429   4.317  0.5984  1.9740  1.1937
   8623SM   H9G11545   2.988   2.480   4.334 -0.3045 -0.4879  0.6862
   8623SM  C10F11546   2.966   2.305   4.202  0.1558 -0.1583  0.1970
   8623SM  H10F11547   3.059   2.323   4.144 -0.9370  0.2154 -1.5130
   8623SM  H10G11548   2.892   2.270   4.127  2.4971  0.2963 -2.4793
   8623SM  C11F11549   2.985   2.200   4.316 -0.0575  1.2998 -0.0035
   8623SM  H11F11550   2.887   2.186   4.368 -1.1660  0.7172 -2.1385
   8623SM  H11G11551   3.055   2.250   4.386 -0.3161  0.6921  0.7061
   8623SM  C12F11552   3.040   2.065   4.264 -0.1706 -0.1878 -0.1474
   8623SM  H12F11553   3.084   2.009   4.349  2.2668  0.6139 -0.8076
   8623SM  H12G11554   3.117   2.087   4.187  0.7301  2.0270  1.2852
   8623SM  C13F11555   2.932   1.982   4.189  0.1991  0.2533 -0.4282
   8623SM  H13F11556   2.976   1.883   4.166  3.0401  0.3271  3.6601
   8623SM  H13G11557   2.898   2.029   4.094 -0.5125 -0.1816 -0.3898
   8623SM  C14F11558   2.808   1.944   4.271  0.1512 -0.5409  0.1498
   8623SM  H14F11559   2.748   2.036   4.284 -0.2135 -0.6915 -0.3993
   8623SM  H14G11560   2.836   1.911   4.373 -2.6762  0.0156  1.1789
   8623SM  C15F11561   2.727   1.834   4.211  0.0677  0.5515 -1.1022
   8623SM  H15F11562   2.785   1.739   4.210  0.1111  0.5742 -0.8924
   8623SM  H15G11563   2.705   1.868   4.108 -0.1968  5.2024  0.2870
   8623SM  C16F11564   2.582   1.818   4.267 -0.2941  0.1938  0.5666
   8623SM  H16F11565   2.543   1.725   4.222  0.5402  0.1191 -0.0277
   8623SM  H16G11566   2.527   1.901   4.218  2.0596  1.0815 -0.7661
   8623SM  C17F11567   2.572   1.817   4.424  1.0200  0.6275  0.4403
   8623SM  H17F11568   2.466   1.834   4.450  1.0138  1.7240 -0.2365
   8623SM  H17G11569   2.629   1.899   4.474  1.1313  1.0633 -0.3767
   8623SM  C18F11570   2.626   1.685   4.489 -0.1812 -0.3880 -0.0730
   8623SM  H18F11571   2.735   1.673   4.469  0.0129  0.3649  0.4932
   8623SM  H18G11572   2.565   1.603   4.444  0.1703  0.8117 -2.9782
   8623SM  C19F11573   2.611   1.690   4.640 -0.0799  0.8689 -0.6729
   8623SM  H19F11574   2.504   1.712   4.661 -0.4675 -2.1165  1.0733
   8623SM  H19G11575   2.676   1.767   4.686  0.3059 -0.8390  1.9046
   8623SM  C20F11576   2.638   1.555   4.704  0.6127  0.4560 -0.1478
   8623SM  H20F11577   2.744   1.530   4.685  1.2441  2.0235  1.0297
   8623SM  H20G11578   2.558   1.489   4.664  0.4944  0.5757 -0.1077
   8623SM  C21F11579   2.619   1.553   4.857 -0.9194 -0.1088  0.3333
   8623SM  H21F11580   2.675   1.638   4.901 -0.8148 -0.3349  0.6460
   8623SM  H21G11581   2.657   1.456   4.896  0.2618  0.0103 -0.4762
   8623SM  C22F11582   2.474   1.571   4.903  0.1419  0.3387 -0.0839
   8623SM  H22F11583   2.411   1.507   4.837 -2.2988  1.6999  0.7900
   8623SM  H22G11584   2.434   1.673   4.886  1.0169  1.1586  2.3118
   8623SM  C23F11585   2.454   1.539   5.057 -0.5933  0.7792 -0.1229
   8623SM  H23F11586   2.526   1.588   5.126 -1.8282  0.4789  1.4644
   8623SM  H23G11587   2.455   1.429   5.075 -0.6097  0.5065 -1.6745
   8623SM  H23H11588   2.361   1.588   5.094 -0.2797  0.4990  1.0889
   8723SM     N11589   4.021   3.153   2.546 -0.0416 -0.0388  0.3993
   8723SM   C1511590   4.087   3.114   2.673  0.3809 -0.1467 -0.1453
   8723SM  H15A11591   4.020   3.069   2.745 -1.0070  1.5784 -0.2983
   8723SM  H15B11592   4.129   3.207   2.710  1.1685  1.1485 -3.8527
   8723SM  H15C11593   4.164   3.040   2.657 -0.4251 -0.7538 -1.3852
   8723SM   C1411594   3.887   3.221   2.579 -0.8952  0.4146 -0.1544
   8723SM  H14A11595   3.823   3.161   2.641 -0.1269 -0.1055  0.1370
   8723SM  H14B11596   3.837   3.244   2.485  2.2942  0.5597 -1.9552
   8723SM  H14C11597   3.912   3.312   2.632  0.8828 -0.2590  0.2163
   8723SM   C1311598   4.113   3.234   2.462  0.3574  0.0012 -0.4395
   8723SM  H13A11599   4.201   3.180   2.432  0.7058 -0.5662  1.4410
   8723SM  H13B11600   4.143   3.317   2.524  0.5293  1.6631 -2.6342
   8723SM  H13C11601   4.071   3.263   2.367 -1.3277 -1.7727 -0.3016
   8723SM   C1211602   3.985   3.032   2.459 -0.6967 -0.2783 -0.4975
   8723SM  H12A11603   3.934   3.066   2.371 -0.4488  1.2033 -0.0985
   8723SM  H12B11604   3.912   2.978   2.517 -1.1796 -0.8656 -1.6222
   8723SM   C1111605   4.102   2.943   2.416 -0.4027 -0.3402  0.1909
   8723SM  H11A11606   4.179   3.019   2.392 -1.0047 -0.0217 -0.8274
   8723SM  H11B11607   4.062   2.903   2.320 -1.3576  1.7960 -0.3636
   8723SM     P11608   4.073   2.722   2.542  0.3675 -0.3394 -0.0552
   8723SM   O1311609   3.932   2.749   2.588 -0.0132 -0.6112  0.6932
   8723SM   O1411610   4.085   2.642   2.425 -0.4175 -0.1206  0.1619
   8723SM   O1111611   4.145   2.653   2.656 -0.5576  0.1684 -0.0573
   8723SM   O1211612   4.148   2.860   2.521  0.8868  0.1113 -0.7453
   8723SM   C1S11613   4.226   2.732   2.750  0.0326 -0.1819  0.1592
   8723SM   H1S11614   4.190   2.837   2.753  1.6919  0.3888  2.0686
   8723SM   H1T11615   4.331   2.742   2.716 -0.9211  1.8469 -2.5955
   8723SM    NF11616   4.276   2.788   2.976 -0.2633 -0.4877 -0.1654
   8723SM   HNF11617   4.376   2.792   2.987 -0.1130  1.1132 -1.6579
   8723SM   C2S11618   4.216   2.685   2.892 -0.1559 -0.9858 -0.0268
   8723SM   H2S11619   4.107   2.680   2.912 -0.5153 -0.7230 -1.7113
   8723SM   C3S11620   4.278   2.547   2.902 -0.1539  1.3619 -0.3494
   8723SM   H3S11621   4.382   2.562   2.867  0.0859  2.0843  0.6389
   8723SM    O311622   4.216   2.451   2.810 -0.1501 -0.0990 -0.1964
   8723SM   HO311623   4.191   2.503   2.733 -0.7952  0.7573  0.5777
   8723SM   C4S11624   4.286   2.492   3.039  1.3749  0.2653  0.2610
   8723SM   H4S11625   4.192   2.443   3.070  1.2842  0.5893  0.4994
   8723SM   C5S11626   4.387   2.482   3.129  0.6042 -0.4141 -0.7632
   8723SM   H5S11627   4.484   2.528   3.107 -0.7028  2.1670 -1.5369
   8723SM   C6S11628   4.377   2.415   3.265  0.0428 -1.0297 -0.6495
   8723SM   H6S11629   4.452   2.333   3.270  0.7161 -0.7674 -3.9751
   8723SM   H6T11630   4.280   2.360   3.267 -0.7084  0.2571  2.3307
   8723SM   C7S11631   4.379   2.505   3.396 -0.4862 -0.3326  0.4688
   8723SM   H7S11632   4.309   2.591   3.389  1.2794  1.1623  0.5425
   8723SM   H7T11633   4.482   2.548   3.396 -0.7917  0.4561 -0.7930
   8723SM   C8S11634   4.360   2.423   3.520 -0.2291  0.2205  0.2156
   8723SM   H8S11635   4.413   2.329   3.495  3.6876  2.2420  0.0983
   8723SM   H8T11636   4.256   2.393   3.542  0.1676 -1.2950  0.1363
   8723SM   C9S11637   4.432   2.482   3.643  0.4494  0.6152  0.3066
   8723SM   H9S11638   4.365   2.565   3.674  0.0874  0.3517  0.2360
   8723SM   H9T11639   4.530   2.521   3.610 -0.1142  2.5921  0.7777
   8723SM  C10S11640   4.437   2.383   3.758 -0.7201 -0.0073  0.4938
   8723SM  H10S11641   4.529   2.320   3.750 -1.8586 -1.4531 -2.5237
   8723SM  H10T11642   4.348   2.316   3.757  0.7112 -2.0597 -1.7767
   8723SM  C11S11643   4.435   2.453   3.896 -0.1598 -1.5020 -0.0140
   8723SM  H11S11644   4.344   2.517   3.885 -0.5637 -1.9262  0.7660
   8723SM  H11T11645   4.533   2.504   3.887 -0.7441 -0.4463 -0.6570
   8723SM  C12S11646   4.428   2.363   4.026 -0.2318 -0.4194  0.2259
   8723SM  H12S11647   4.535   2.347   4.051  0.6082  1.5918 -1.7221
   8723SM  H12T11648   4.376   2.272   3.991 -1.1144 -0.4138  1.4425
   8723SM  C13S11649   4.356   2.440   4.144 -0.1581  0.4002 -0.1010
   8723SM  H13S11650   4.252   2.467   4.116 -0.5367 -1.8386 -1.0350
   8723SM  H13T11651   4.411   2.535   4.162 -0.5792  0.9193 -1.4615
   8723SM  C14S11652   4.343   2.346   4.261  0.0382 -1.0983 -0.3250
   8723SM  H14S11653   4.446   2.317   4.290  0.1246 -0.2735  0.1981
   8723SM  H14T11654   4.285   2.254   4.234 -0.8700 -0.6373  0.0125
   8723SM  C15S11655   4.272   2.417   4.380 -0.3391 -0.5339 -0.1397
   8723SM  H15S11656   4.165   2.444   4.371  0.3895  2.2091 -1.6762
   8723SM  H15T11657   4.334   2.507   4.402 -3.0657  2.2863 -3.0291
   8723SM  C16S11658   4.308   2.324   4.503  0.2434  0.1500 -0.2703
   8723SM  H16S11659   4.418   2.305   4.504  0.7972  2.5684 -3.2914
   8723SM  H16T11660   4.243   2.235   4.486 -0.8765  1.2489 -2.0002
   8723SM  C17S11661   4.252   2.378   4.643 -0.0458 -0.2872  0.7578
   8723SM  H17S11662   4.142   2.392   4.640 -0.0642  0.4462  3.0662
   8723SM  H17T11663   4.293   2.480   4.659 -1.7114  0.3162  1.4539
   8723SM  C18S11664   4.284   2.293   4.766  0.2277  0.2007 -0.3441
   8723SM  H18S11665   4.244   2.190   4.753 -1.1071  0.7700 -0.9446
   8723SM  H18T11666   4.249   2.354   4.852  0.5519 -2.0071  1.4294
   8723SM  H18U11667   4.394   2.284   4.776  0.0650 -0.4123  1.2334
   8723SM   C1F11668   4.204   2.899   3.003 -0.0647 -0.6105  0.0752
   8723SM    OF11669   4.086   2.903   2.974  0.3214  0.4556 -0.1644
   8723SM   C2F11670   4.265   3.018   3.063 -0.3520 -0.3407 -0.3525
   8723SM   H2F11671   4.255   3.096   2.984  2.2215 -0.8084 -1.2085
   8723SM   H2G11672   4.374   2.999   3.056 -0.3283  0.1686 -1.6190
   8723SM   C3F11673   4.212   3.042   3.202 -0.6534  0.5029  0.1568
   8723SM   H3F11674   4.101   3.038   3.212 -0.5174 -2.1548  1.5590
   8723SM   H3G11675   4.247   3.141   3.239 -0.3222 -0.1632  1.7180
   8723SM   C4F11676   4.257   2.935   3.305 -1.4571 -0.1230  0.8769
   8723SM   H4F11677   4.359   2.958   3.342 -2.5889  2.9797  2.5046
   8723SM   H4G11678   4.245   2.832   3.267  0.2316 -0.3538  0.9202
   8723SM   C5F11679   4.176   2.958   3.433  0.7290 -0.0798 -0.2925
   8723SM   H5F11680   4.070   2.938   3.404  0.0107  1.7120  0.9142
   8723SM   H5G11681   4.186   3.064   3.465  0.7302 -0.2038  0.1224
   8723SM   C6F11682   4.222   2.873   3.550  0.2288  0.3568  0.3808
   8723SM   H6F11683   4.330   2.890   3.572 -0.1548  1.9442  1.2337
   8723SM   H6G11684   4.219   2.767   3.517  1.3513 -0.3227  2.3072
   8723SM   C7F11685   4.131   2.895   3.668 -0.1915  0.6678 -0.0885
   8723SM   H7F11686   4.029   2.854   3.652  0.0549  0.8675 -2.5573
   8723SM   H7G11687   4.128   3.003   3.696  2.3690  1.0698 -1.1475
   8723SM   C8F11688   4.172   2.808   3.788 -0.3112  0.2073  0.1260
   8723SM   H8F11689   4.279   2.822   3.813 -0.4078  0.0233  0.6509
   8723SM   H8G11690   4.153   2.701   3.766  1.6285 -0.1054 -0.2214
   8723SM   C9F11691   4.097   2.841   3.917  0.3148 -0.3266  0.7839
   8723SM   H9F11692   3.990   2.817   3.899  0.6708 -1.7955  0.4699
   8723SM   H9G11693   4.108   2.951   3.930  2.2064 -0.5799  1.7346
   8723SM  C10F11694   4.141   2.764   4.039  0.3726 -0.0747  0.5605
   8723SM  H10F11695   4.249   2.789   4.047  0.6227 -1.1748  0.7341
   8723SM  H10G11696   4.125   2.655   4.022 -0.3501  0.0867  0.1428
   8723SM  C11F11697   4.062   2.797   4.169 -0.2667 -0.4176 -0.4436
   8723SM  H11F11698   3.954   2.771   4.166  0.0170 -2.0253  1.4057
   8723SM  H11G11699   4.066   2.907   4.185  0.5063 -0.7236  1.7182
   8723SM  C12F11700   4.112   2.730   4.290  0.3281 -0.1648  0.3186
   8723SM  H12F11701   4.221   2.751   4.290  0.5290 -1.1351  1.1600
   8723SM  H12G11702   4.110   2.619   4.293  1.0004 -0.1716  0.8689
   8723SM  C13F11703   4.049   2.779   4.415 -0.1860 -0.1601 -0.1990
   8723SM  H13F11704   3.943   2.749   4.428  0.2719 -0.5518  4.6038
   8723SM  H13G11705   4.057   2.889   4.420 -0.8052 -0.1649  2.0341
   8723SM  C14F11706   4.122   2.723   4.548  0.6095 -0.0053  0.6655
   8723SM  H14F11707   4.233   2.729   4.544  0.6533 -0.8912  0.4449
   8723SM  H14G11708   4.096   2.615   4.552  0.7217 -0.2299 -2.4439
   8723SM  C15F11709   4.079   2.799   4.680  0.3457 -0.1213  0.1892
   8723SM  H15F11710   3.974   2.769   4.699  0.0366  0.2444 -0.8836
   8723SM  H15G11711   4.075   2.905   4.648  2.0238 -0.1893 -0.3326
   8723SM  C16F11712   4.175   2.786   4.796  0.5437 -0.4620  0.1440
   8723SM  H16F11713   4.276   2.827   4.771  0.5601  0.2961  1.3825
   8723SM  H16G11714   4.206   2.680   4.811 -1.0409 -0.9598  0.0539
   8723SM  C17F11715   4.118   2.849   4.930  1.2021 -0.4346  0.0729
   8723SM  H17F11716   4.073   2.950   4.918  0.9072 -0.3093  1.9201
   8723SM  H17G11717   4.199   2.852   5.006  1.9431 -2.0074 -0.5881
   8723SM  C18F11718   4.016   2.767   5.000  1.1152  0.3651  0.2333
   8723SM  H18F11719   4.044   2.661   5.018 -0.8195 -0.0385  1.1646
   8723SM  H18G11720   3.918   2.767   4.948  0.8138 -0.2022  0.7949
   8723SM  C19F11721   3.984   2.831   5.142 -0.6810  0.4646 -0.8825
   8723SM  H19F11722   3.958   2.935   5.114  1.9494  1.3271 -0.3896
   8723SM  H19G11723   4.071   2.830   5.211 -1.6831  1.6527  0.4546
   8723SM  C20F11724   3.861   2.761   5.204  0.0393 -0.5033 -0.2392
   8723SM  H20F11725   3.869   2.651   5.215 -0.1498 -0.4334  0.6749
   8723SM  H20G11726   3.773   2.798   5.148 -0.1479  0.1205  0.4460
   8723SM  C21F11727   3.843   2.813   5.352  0.4695  0.7208 -0.2277
   8723SM  H21F11728   3.936   2.790   5.408 -0.7465 -0.4751  1.4259
   8723SM  H21G11729   3.764   2.744   5.390  0.5678  0.8566  0.2276
   8723SM  C22F11730   3.809   2.957   5.363 -0.9077 -0.0281  0.7660
   8723SM  H22F11731   3.719   2.985   5.303 -0.4080 -1.2207 -0.5946
   8723SM  H22G11732   3.891   3.016   5.318 -1.0507 -0.1313  0.3641
   8723SM  C23F11733   3.785   2.998   5.508  0.2126 -0.2134  0.2850
   8723SM  H23F11734   3.878   2.985   5.567  1.1115  0.0369 -1.0374
   8723SM  H23G11735   3.708   2.934   5.557  1.2513 -2.1050 -0.4573
   8723SM  H23H11736   3.758   3.106   5.507 -0.4596 -0.3788  0.2464
   8823SM     N11737   2.030   2.699   2.717 -0.2073  0.4957 -0.8423
   8823SM   C1511738   1.919   2.759   2.803  0.1192 -0.5185  0.9025
   8823SM  H15A11739   1.935   2.752   2.910  0.2668  2.0262  1.1255
   8823SM  H15B11740   1.822   2.724   2.772 -0.1693 -0.9794  2.2338
   8823SM  H15C11741   1.922   2.865   2.782  0.6715 -0.9053 -1.1816
   8823SM   C1411742   2.040   2.779   2.588  0.5302  0.4542 -0.0219
   8823SM  H14A11743   1.950   2.761   2.531 -1.3074 -1.7429  3.2547
   8823SM  H14B11744   2.126   2.741   2.535 -0.0738 -1.3592  0.2165
   8823SM  H14C11745   2.068   2.881   2.606 -1.4033  0.6390  2.5528
   8823SM   C1311746   2.163   2.715   2.799  0.2077 -0.0190 -0.0531
   8823SM  H13A11747   2.242   2.650   2.765  0.4266  0.1515  0.1269
   8823SM  H13B11748   2.142   2.691   2.902  0.5271 -0.9889 -0.2120
   8823SM  H13C11749   2.191   2.820   2.795 -0.5327  0.1826 -0.1919
   8823SM   C1211750   2.003   2.550   2.703 -0.4263 -0.7883  0.2139
   8823SM  H12A11751   1.995   2.507   2.801  0.1487  1.7894  1.4936
   8823SM  H12B11752   2.094   2.505   2.667  1.4269  2.1640  0.8710
   8823SM   C1111753   1.882   2.519   2.607  0.3025  0.6332 -0.0255
   8823SM  H11A11754   1.878   2.409   2.594 -1.2394  0.6504  0.0216
   8823SM  H11B11755   1.912   2.560   2.509  1.5431  1.3337  0.6160
   8823SM     P11756   1.672   2.471   2.758 -0.1643  0.1803 -0.0100
   8823SM   O1311757   1.569   2.553   2.821  0.2468  0.0871  0.3527
   8823SM   O1411758   1.634   2.353   2.685  0.1403  0.4037 -0.5917
   8823SM   O1111759   1.772   2.428   2.867  0.1868  0.6107  0.1493
   8823SM   O1211760   1.759   2.570   2.664  0.0941  0.3579 -0.4154
   8823SM   C1S11761   1.736   2.325   2.966  0.0386 -0.3289 -0.3979
   8823SM   H1S11762   1.737   2.227   2.915  0.0779 -0.2868 -0.4785
   8823SM   H1T11763   1.633   2.335   3.007 -0.0200 -0.8962 -0.4059
   8823SM    NF11764   1.789   2.216   3.182  0.1360 -0.0266  0.2629
   8823SM   HNF11765   1.717   2.235   3.248  0.6743  0.1290  0.8152
   8823SM   C2S11766   1.832   2.326   3.096 -0.2853 -0.0654  0.1709
   8823SM   H2S11767   1.937   2.301   3.070  0.3624  2.4687  0.1582
   8823SM   C3S11768   1.844   2.470   3.152 -0.0123 -0.0945 -0.3775
   8823SM   H3S11769   1.740   2.506   3.167  0.1713  1.0793 -1.7018
   8823SM    O311770   1.900   2.561   3.056 -0.3420 -0.5690  0.0699
   8823SM   HO311771   1.870   2.515   2.978 -1.0566  0.0567 -0.0333
   8823SM   C4S11772   1.923   2.491   3.286 -0.1994 -0.1778  0.2035
   8823SM   H4S11773   1.998   2.413   3.305  1.7943  1.3055 -1.1444
   8823SM   C5S11774   1.902   2.587   3.379 -0.3297 -0.1991  0.1773
   8823SM   H5S11775   1.818   2.653   3.352  0.3718  0.4107 -0.5713
   8823SM   C6S11776   1.963   2.606   3.517  0.0504  0.5919  0.4075
   8823SM   H6S11777   1.872   2.619   3.579  0.1394  2.5984  0.1976
   8823SM   H6T11778   2.017   2.704   3.517  0.9320  0.1579 -1.5429
   8823SM   C7S11779   2.055   2.503   3.577 -0.3397 -0.6968  0.3241
   8823SM   H7S11780   2.156   2.492   3.533  0.8920  1.7192  2.2748
   8823SM   H7T11781   2.001   2.406   3.580 -2.9293  0.5134 -2.1659
   8823SM   C8S11782   2.089   2.546   3.717 -0.3234  1.0061 -0.0761
   8823SM   H8S11783   2.111   2.654   3.728 -1.4222  1.1561  0.8740
   8823SM   H8T11784   2.185   2.492   3.736 -0.8956  0.4311  1.2739
   8823SM   C9S11785   1.994   2.510   3.826  0.5592 -0.4855 -0.3755
   8823SM   H9S11786   1.969   2.402   3.822  0.9068 -0.6797  1.6046
   8823SM   H9T11787   1.896   2.561   3.812  0.1301 -1.1486  0.1579
   8823SM  C10S11788   2.050   2.520   3.963 -0.1767  0.4986  0.1829
   8823SM  H10S11789   2.094   2.621   3.980 -0.2278  0.6400 -0.5135
   8823SM  H10T11790   2.136   2.450   3.976  1.2370  1.8812 -1.2417
   8823SM  C11S11791   1.940   2.500   4.059  0.4378 -0.4943 -0.0423
   8823SM  H11S11792   1.891   2.401   4.044  0.0367 -0.4057  0.6212
   8823SM  H11T11793   1.846   2.560   4.049 -0.4139 -1.9093 -0.8601
   8823SM  C12S11794   1.986   2.511   4.203  0.1759  0.1980 -0.2780
   8823SM  H12S11795   2.062   2.590   4.222  1.7532 -1.5397  1.0296
   8823SM  H12T11796   2.037   2.414   4.220 -0.2018 -0.0884 -0.7887
   8823SM  C13S11797   1.865   2.544   4.292 -0.0004 -0.2912  0.6264
   8823SM  H13S11798   1.787   2.469   4.265  0.1183  0.1973 -1.2151
   8823SM  H13T11799   1.828   2.641   4.253 -2.0975 -1.2243  0.1410
   8823SM  C14S11800   1.880   2.543   4.443 -0.4007 -1.7515  0.4365
   8823SM  H14S11801   1.966   2.607   4.468  1.0434 -2.3981 -2.4257
   8823SM  H14T11802   1.905   2.439   4.473  3.3459 -1.1412 -0.0991
   8823SM  C15S11803   1.749   2.595   4.514 -0.8347  0.4323 -0.5205
   8823SM  H15S11804   1.666   2.523   4.499 -0.4568 -0.7940  2.4661
   8823SM  H15T11805   1.712   2.686   4.464 -3.3290  0.3011  0.9376
   8823SM  C16S11806   1.772   2.618   4.665 -1.0146  0.5042  0.4014
   8823SM  H16S11807   1.869   2.673   4.666 -0.2239 -0.8273  0.1885
   8823SM  H16T11808   1.799   2.522   4.715 -0.3312  0.3459 -0.2600
   8823SM  C17S11809   1.662   2.686   4.742  0.2361  0.0091  0.1576
   8823SM  H17S11810   1.566   2.667   4.690  0.4201 -2.3661  0.5819
   8823SM  H17T11811   1.664   2.797   4.738  1.2846  0.0428  1.0635
   8823SM  C18S11812   1.628   2.639   4.880  0.6041 -0.2318 -0.0548
   8823SM  H18S11813   1.581   2.539   4.880  1.4363 -0.6413  1.2863
   8823SM  H18T11814   1.551   2.711   4.917  0.4839 -0.2721 -0.2244
   8823SM  H18U11815   1.703   2.644   4.962 -0.6965  3.3287  1.1203
   8823SM   C1F11816   1.799   2.089   3.147 -0.4295  0.3017 -0.3587
   8823SM    OF11817   1.849   2.054   3.042 -0.7469 -0.3627 -1.0607
   8823SM   C2F11818   1.723   1.973   3.230  1.1837 -0.3893 -0.9165
   8823SM   H2F11819   1.633   1.958   3.166 -1.2724  0.1628  2.1736
   8823SM   H2G11820   1.678   2.018   3.321 -0.7444  0.8370 -2.3728
   8823SM   C3F11821   1.810   1.855   3.265  0.1057  0.2187 -0.0906
   8823SM   H3F11822   1.889   1.895   3.332 -0.3144 -1.6706  1.6403
   8823SM   H3G11823   1.856   1.798   3.181  2.1534 -0.4327  1.3915
   8823SM   C4F11824   1.731   1.763   3.367 -0.2204 -0.0593 -0.5672
   8823SM   H4F11825   1.641   1.722   3.317 -0.5440  0.1931 -0.1999
   8823SM   H4G11826   1.704   1.831   3.452 -0.5619 -1.0795  0.1607
   8823SM   C5F11827   1.812   1.643   3.426 -0.8334 -0.1385 -0.7568
   8823SM   H5F11828   1.905   1.688   3.467 -1.1244 -0.6627  0.5461
   8823SM   H5G11829   1.833   1.572   3.344  1.2464 -0.5906  0.1007
   8823SM   C6F11830   1.751   1.562   3.546 -0.4402  0.1049  0.3127
   8823SM   H6F11831   1.829   1.483   3.554 -0.9779 -0.5857 -0.9800
   8823SM   H6G11832   1.656   1.512   3.519 -0.8136  1.2841 -0.6670
   8823SM   C7F11833   1.724   1.646   3.672  0.2212 -0.2591 -0.6111
   8823SM   H7F11834   1.641   1.711   3.638  0.9759 -0.8151 -3.8724
   8823SM   H7G11835   1.815   1.706   3.692  1.3780 -1.9851 -0.4957
   8823SM   C8F11836   1.691   1.568   3.801 -0.8832 -0.2610 -0.7031
   8823SM   H8F11837   1.790   1.520   3.818 -1.1095 -0.1877  1.0963
   8823SM   H8G11838   1.611   1.492   3.787 -1.4824  0.2341 -0.0623
   8823SM   C9F11839   1.659   1.655   3.920 -0.3282 -0.3952 -0.3366
   8823SM   H9F11840   1.559   1.701   3.906 -0.3641 -0.3179  0.1924
   8823SM   H9G11841   1.730   1.740   3.933 -1.0170 -0.1376  2.0197
   8823SM  C10F11842   1.670   1.572   4.049 -0.4765 -0.1044  0.1844
   8823SM  H10F11843   1.773   1.531   4.057  0.0477  1.1641  0.1626
   8823SM  H10G11844   1.599   1.486   4.050 -1.9217  1.0556  1.0537
   8823SM  C11F11845   1.648   1.648   4.183 -0.6422  0.4163  0.8610
   8823SM  H11F11846   1.538   1.665   4.191 -1.0134 -0.5225 -1.3882
   8823SM  H11G11847   1.701   1.745   4.178  0.7277 -0.3647 -1.0824
   8823SM  C12F11848   1.700   1.571   4.310 -0.2778  0.0298 -0.1773
   8823SM  H12F11849   1.811   1.568   4.312 -0.2503 -0.1076 -1.1723
   8823SM  H12G11850   1.661   1.467   4.312  1.1934 -0.6003 -1.8026
   8823SM  C13F11851   1.661   1.628   4.444 -0.5744 -0.2798  0.1698
   8823SM  H13F11852   1.552   1.639   4.463  0.1120  1.0513  4.3099
   8823SM  H13G11853   1.698   1.732   4.436  2.4077 -1.3936 -2.8226
   8823SM  C14F11854   1.731   1.572   4.571 -0.3653  0.1187  0.6500
   8823SM  H14F11855   1.831   1.531   4.543  0.4066  0.6984  2.4231
   8823SM  H14G11856   1.677   1.480   4.603 -1.6785  0.5682 -0.1940
   8823SM  C15F11857   1.737   1.658   4.690 -0.8312 -1.2101 -0.2181
   8823SM  H15F11858   1.639   1.696   4.727 -0.1352 -0.0278  0.4780
   8823SM  H15G11859   1.798   1.747   4.666 -1.9626  0.1549  1.6435
   8823SM  C16F11860   1.810   1.589   4.813  0.1568 -0.0611 -0.0116
   8823SM  H16F11861   1.905   1.555   4.766  0.0753 -1.4912  0.7860
   8823SM  H16G11862   1.751   1.502   4.848 -0.1071  1.3165  3.2662
   8823SM  C17F11863   1.844   1.681   4.929 -0.5947  0.3981 -1.1852
   8823SM  H17F11864   1.756   1.727   4.978 -0.3804  1.3171 -1.6345
   8823SM  H17G11865   1.895   1.775   4.899 -1.0018  0.2373 -2.4324
   8823SM  C18F11866   1.929   1.615   5.043 -0.3540  0.0048  0.1619
   8823SM  H18F11867   1.958   1.694   5.115 -0.4855 -1.3913  1.7895
   8823SM  H18G11868   2.023   1.575   4.998  0.5771  0.5265  1.5914
   8823SM  C19F11869   1.857   1.508   5.128 -0.1569 -0.1232 -0.4728
   8823SM  H19F11870   1.807   1.434   5.062  0.0583  0.4721 -1.3204
   8823SM  H19G11871   1.775   1.556   5.187 -1.3611 -0.7911 -1.5634
   8823SM  C20F11872   1.958   1.446   5.226  0.3321 -0.0526 -0.2532
   8823SM  H20F11873   2.035   1.397   5.164  0.5636  0.9513 -0.7754
   8823SM  H20G11874   1.890   1.373   5.276  0.9631 -0.7389 -0.3851
   8823SM  C21F11875   2.008   1.557   5.321 -0.5442 -0.2100  0.1253
   8823SM  H21F11876   1.923   1.628   5.333  1.7122  2.4389  1.5631
   8823SM  H21G11877   2.091   1.619   5.282 -0.9592  1.2497  1.4861
   8823SM  C22F11878   2.044   1.494   5.462  0.0145  0.5984 -0.6184
   8823SM  H22F11879   2.130   1.427   5.442 -0.7967 -0.9450  0.7574
   8823SM  H22G11880   1.955   1.434   5.492  0.9823 -0.8273 -0.5046
   8823SM  C23F11881   2.094   1.599   5.557 -0.1694  0.2116  1.0276
   8823SM  H23F11882   2.138   1.553   5.649 -0.8575  0.2088  1.3581
   8823SM  H23G11883   2.027   1.687   5.567  0.3981  0.7830 -0.0455
   8823SM  H23H11884   2.194   1.636   5.526  1.0671 -2.6482  1.2402
   8923SM     N11885   6.667   2.918   2.488 -0.2488 -0.1235 -0.3150
   8923SM   C1511886   6.819   2.951   2.488  0.5236  0.4623  0.1476
   8923SM  H15A11887   6.837   3.039   2.547 -0.7607  0.7227  0.1863
   8923SM  H15B11888   6.845   2.972   2.385  1.3692 -0.1817  0.2253
   8923SM  H15C11889   6.880   2.866   2.514  0.5891 -0.9384 -3.8678
   8923SM   C1411890   6.597   3.045   2.444  0.6281  0.0871  0.4088
   8923SM  H14A11891   6.492   3.027   2.456  0.8857 -3.7190 -1.7011
   8923SM  H14B11892   6.629   3.070   2.344  1.0772  1.4429  0.8574
   8923SM  H14C11893   6.605   3.133   2.506  0.4294 -0.4624  1.2178
   8923SM   C1311894   6.640   2.810   2.389 -0.8403  0.2217 -0.2990
   8923SM  H13A11895   6.702   2.724   2.411 -0.5962  0.9318  2.1436
   8923SM  H13B11896   6.649   2.843   2.287 -0.1464  0.5077 -0.1543
   8923SM  H13C11897   6.537   2.780   2.385 -0.4427 -1.2858  0.0077
   8923SM   C1211898   6.614   2.880   2.632 -0.0551 -0.3306 -0.1093
   8923SM  H12A11899   6.507   2.890   2.640 -0.1706 -1.9616  0.9054
   8923SM  H12B11900   6.665   2.946   2.700  0.2234 -0.6683  0.0094
   8923SM   C1111901   6.656   2.738   2.694 -0.4426  0.4016 -0.1728
   8923SM  H11A11902   6.652   2.662   2.613 -0.3779 -0.5988  0.7331
   8923SM  H11B11903   6.587   2.709   2.776 -1.7867  2.7695 -0.3834
   8923SM     P11904   6.839   2.838   2.865 -0.1350  0.1003  0.3975
   8923SM   O1311905   6.982   2.874   2.833 -0.0449 -0.2659 -0.2236
   8923SM   O1411906   6.735   2.944   2.888 -0.2542 -0.5731 -0.1565
   8923SM   O1111907   6.835   2.749   2.987 -0.9036 -0.3194  0.7508
   8923SM   O1211908   6.795   2.745   2.742  0.1784  0.1509 -0.0726
   8923SM   C1S11909   6.898   2.622   3.009 -0.2130  0.3446 -0.3040
   8923SM   H1S11910   7.001   2.624   2.967  0.1492 -0.1938  0.5293
   8923SM   H1T11911   6.843   2.542   2.956  0.2797 -2.3261  2.8773
   8923SM    NF11912   7.019   2.502   3.196 -0.3595  0.0829 -0.2652
   8923SM   HNF11913   6.990   2.414   3.233  2.3516 -0.7127  0.1917
   8923SM   C2S11914   6.916   2.596   3.160 -0.2476 -0.2427 -0.3795
   8923SM   H2S11915   6.950   2.692   3.206  1.0911 -0.9713  0.2034
   8923SM   C3S11916   6.777   2.557   3.230 -0.1412  0.0629 -0.0721
   8923SM   H3S11917   6.758   2.453   3.196 -0.5697 -1.0807  3.3168
   8923SM    O311918   6.668   2.634   3.193  0.1736 -0.0425  0.4534
   8923SM   HO311919   6.700   2.689   3.121 -0.8816 -1.6229 -1.2974
   8923SM   C4S11920   6.797   2.556   3.382  0.3178  0.1517  0.7555
   8923SM   H4S11921   6.832   2.459   3.419 -1.2934 -1.3797 -1.4922
   8923SM   C5S11922   6.778   2.661   3.462  0.4332 -0.2763 -0.0752
   8923SM   H5S11923   6.748   2.756   3.415  1.7327  0.0404 -0.3051
   8923SM   C6S11924   6.795   2.644   3.613  0.3886  0.6253 -0.1221
   8923SM   H6S11925   6.799   2.536   3.638 -0.7598  0.5862 -0.0516
   8923SM   H6T11926   6.708   2.693   3.662 -1.3658  0.0014 -2.4609
   8923SM   C7S11927   6.918   2.709   3.685 -0.6722 -0.3887  0.4877
   8923SM   H7S11928   6.909   2.668   3.788 -0.5858 -0.9378  0.2824
   8923SM   H7T11929   6.902   2.818   3.692  2.1213  0.1985 -0.7926
   8923SM   C8S11930   7.054   2.670   3.619  0.0734 -0.0921  0.5790
   8923SM   H8S11931   7.066   2.700   3.512  1.0035 -1.0835  0.3906
   8923SM   H8T11932   7.058   2.559   3.617 -1.5709 -0.1931 -2.3223
   8923SM   C9S11933   7.176   2.738   3.687 -0.0529 -0.7266  0.7015
   8923SM   H9S11934   7.169   2.844   3.656 -1.9701 -1.1332 -0.4254
   8923SM   H9T11935   7.277   2.708   3.651 -0.4832 -1.7085  0.2665
   8923SM  C10S11936   7.186   2.724   3.836  1.0364  0.2817 -0.2788
   8923SM  H10S11937   7.090   2.749   3.888  1.1222  0.7189 -0.3280
   8923SM  H10T11938   7.255   2.799   3.878 -1.5825  2.4428  0.4682
   8923SM  C11S11939   7.235   2.583   3.887  0.8921  0.2656  0.2203
   8923SM  H11S11940   7.327   2.561   3.830 -0.1107 -1.2283 -0.8952
   8923SM  H11T11941   7.171   2.509   3.835  1.6855  0.7589 -1.5294
   8923SM  C12S11942   7.254   2.572   4.041 -0.3169 -0.7887  0.5586
   8923SM  H12S11943   7.154   2.587   4.086 -0.2611 -0.0678  0.4486
   8923SM  H12T11944   7.320   2.652   4.082  0.4320 -2.3256  2.5259
   8923SM  C13S11945   7.320   2.446   4.090 -0.7095  0.9197  0.2599
   8923SM  H13S11946   7.409   2.423   4.029 -1.6184  0.2078 -0.8373
   8923SM  H13T11947   7.249   2.364   4.066 -0.7159  1.6778 -2.5642
   8923SM  C14S11948   7.364   2.443   4.239 -0.3294  0.4481 -0.3110
   8923SM  H14S11949   7.450   2.513   4.240 -0.9256  1.3556 -3.3882
   8923SM  H14T11950   7.411   2.344   4.260  1.2938  0.8258 -1.9014
   8923SM  C15S11951   7.251   2.467   4.337  0.3856  0.0059 -0.5867
   8923SM  H15S11952   7.167   2.398   4.316  0.6898 -0.2905 -0.8420
   8923SM  H15T11953   7.202   2.567   4.329 -0.5983 -0.4941 -0.9609
   8923SM  C16S11954   7.297   2.465   4.479 -0.7038  0.7919 -0.3257
   8923SM  H16S11955   7.351   2.373   4.512 -2.0868  0.4852  1.2186
   8923SM  H16T11956   7.203   2.457   4.538 -0.5621  0.9903 -0.0674
   8923SM  C17S11957   7.391   2.583   4.522  1.2250 -0.1013  0.6925
   8923SM  H17S11958   7.324   2.671   4.517  0.7855 -0.4144  1.0381
   8923SM  H17T11959   7.480   2.589   4.456 -1.0248  0.9502 -2.4347
   8923SM  C18S11960   7.445   2.562   4.660  0.5232 -0.1746  0.3320
   8923SM  H18S11961   7.512   2.647   4.681  0.3091  0.0207  0.2289
   8923SM  H18T11962   7.502   2.467   4.667 -0.4425 -0.8822 -0.9277
   8923SM  H18U11963   7.361   2.553   4.733 -0.9602  0.1943 -1.2513
   8923SM   C1F11964   7.149   2.512   3.159 -0.0842  0.2105  0.2967
   8923SM    OF11965   7.193   2.625   3.119 -0.4094 -0.2009 -0.1719
   8923SM   C2F11966   7.235   2.387   3.152  0.3935 -0.4794  0.1383
   8923SM   H2F11967   7.194   2.335   3.063  3.4297 -0.8778 -1.1286
   8923SM   H2G11968   7.209   2.320   3.237 -3.2335 -0.4664 -0.7822
   8923SM   C3F11969   7.384   2.427   3.132  0.4288  0.5686 -0.3554
   8923SM   H3F11970   7.423   2.517   3.184  1.9560 -1.0554  1.5247
   8923SM   H3G11971   7.395   2.437   3.022 -2.7588  0.0329 -0.8217
   8923SM   C4F11972   7.484   2.315   3.174  0.7601 -0.9718 -0.5689
   8923SM   H4F11973   7.572   2.325   3.108  0.6820 -0.7792 -0.6435
   8923SM   H4G11974   7.448   2.213   3.150 -0.9518 -0.7371  0.8092
   8923SM   C5F11975   7.531   2.338   3.315 -0.2541 -0.6904  0.2933
   8923SM   H5F11976   7.445   2.301   3.374 -0.5720  0.9156  0.8751
   8923SM   H5G11977   7.543   2.443   3.348  0.4454 -0.1459 -1.5549
   8923SM   C6F11978   7.650   2.247   3.350 -0.1888 -0.2321  0.4433
   8923SM   H6F11979   7.733   2.309   3.308  0.7241 -2.3072 -0.9754
   8923SM   H6G11980   7.668   2.150   3.299  0.5736  0.1445 -0.0326
   8923SM   C7F11981   7.677   2.248   3.498  0.8482 -0.0726  0.4011
   8923SM   H7F11982   7.617   2.166   3.543  1.4273 -0.5785  0.2716
   8923SM   H7G11983   7.641   2.346   3.536  0.2889 -1.1074  2.7119
   8923SM   C8F11984   7.827   2.238   3.536 -0.6045  0.1133 -0.9473
   8923SM   H8F11985   7.886   2.312   3.477  0.1986 -0.6972 -1.1723
   8923SM   H8G11986   7.864   2.139   3.504 -1.8809 -0.6274 -0.2184
   8923SM   C9F11987   7.852   2.251   3.689  0.1823 -0.7266 -0.4581
   8923SM   H9F11988   7.960   2.229   3.694  0.3548  0.1008 -0.3731
   8923SM   H9G11989   7.799   2.169   3.741  0.5049 -0.2379  0.6683
   8923SM  C10F11990   7.815   2.394   3.748  0.5385  0.7339  0.8074
   8923SM  H10F11991   7.708   2.423   3.751  0.8188  1.7610  1.3471
   8923SM  H10G11992   7.860   2.473   3.684 -3.1385  1.2882 -1.4073
   8923SM  C11F11993   7.870   2.411   3.884  0.2489  0.5852  0.7986
   8923SM  H11F11994   7.898   2.518   3.898  1.4024  0.6522 -1.5092
   8923SM  H11G11995   7.961   2.347   3.884 -0.1663 -0.0424  2.3921
   8923SM  C12F11996   7.766   2.370   3.987 -0.3468 -0.2814  0.9583
   8923SM  H12F11997   7.743   2.261   3.983 -2.2228  0.0392  1.7187
   8923SM  H12G11998   7.673   2.424   3.956 -0.6334 -2.3183 -2.1901
   8923SM  C13F11999   7.796   2.431   4.123 -0.2409 -0.1324 -0.6401
   8923SM  H13F12000   7.700   2.422   4.178 -0.9435  0.9264 -1.6521
   8923SM  H13G12001   7.836   2.534   4.109  0.4914 -0.0508  1.6653
   8923SM  C14F12002   7.896   2.345   4.200 -0.2296 -0.1134 -0.4750
   8923SM  H14F12003   7.994   2.346   4.149  0.6638 -0.1544  1.1939
   8923SM  H14G12004   7.873   2.236   4.198 -0.7134 -0.0142 -0.5431
   8923SM  C15F12005   7.916   2.384   4.346  0.2555  0.0446 -0.5424
   8923SM  H15F12006   7.817   2.403   4.392  0.1676  2.1991 -1.5012
   8923SM  H15G12007   7.960   2.486   4.350  1.4883 -0.4896  0.0463
   8923SM  C16F12008   8.014   2.287   4.424  0.5704 -0.1942 -0.3013
   8923SM  H16F12009   8.113   2.294   4.373 -0.4148  1.6934 -2.1328
   8923SM  H16G12010   7.968   2.186   4.419  0.0534 -0.0865  1.6003
   8923SM  C17F12011   8.039   2.338   4.565  0.5135  0.2330  0.6851
   8923SM  H17F12012   7.941   2.368   4.607 -0.8034  1.2515 -2.8411
   8923SM  H17G12013   8.095   2.433   4.553 -2.7177  2.4679  2.0558
   8923SM  C18F12014   8.107   2.230   4.654 -0.0030  0.8962 -0.3519
   8923SM  H18F12015   8.137   2.270   4.753  0.8526  0.8317 -0.5725
   8923SM  H18G12016   8.203   2.199   4.607 -0.1480 -3.7662  1.9018
   8923SM  C19F12017   8.030   2.102   4.678  0.6939 -0.2714 -0.3484
   8923SM  H19F12018   8.044   2.032   4.593  1.3230  0.0158 -0.4920
   8923SM  H19G12019   7.920   2.114   4.670  0.7178 -0.0549 -0.3628
   8923SM  C20F12020   8.055   2.020   4.805 -0.7436  0.1280  0.1246
   8923SM  H20F12021   7.995   1.927   4.794 -0.4592 -0.0416 -0.0328
   8923SM  H20G12022   8.029   2.063   4.903  0.0209 -2.4217  1.5362
   8923SM  C21F12023   8.206   1.974   4.813 -0.4126 -0.6515 -0.2568
   8923SM  H21F12024   8.267   2.063   4.783  1.2363 -2.1252 -1.4948
   8923SM  H21G12025   8.218   1.904   4.728 -0.8892 -1.5518  0.4130
   8923SM  C22F12026   8.265   1.930   4.948 -0.3616  0.4847  0.0626
   8923SM  H22F12027   8.179   1.877   4.995 -0.7781  0.1816 -1.0324
   8923SM  H22G12028   8.275   2.027   5.002 -0.0442  0.0189  0.8626
   8923SM  C23F12029   8.398   1.861   4.929 -0.9652  0.2178 -0.4883
   8923SM  H23F12030   8.443   1.836   5.028  1.6214  1.7989 -1.1665
   8923SM  H23G12031   8.464   1.928   4.870 -1.0148  0.3336 -0.4128
   8923SM  H23H12032   8.381   1.766   4.873 -1.6764 -1.5647  2.5234
   9023SM     N12033   6.533   2.348   2.895 -0.5968  0.0780 -0.3599
   9023SM   C1512034   6.615   2.445   2.813 -0.6286  0.3297  0.1222
   9023SM  H15A12035   6.560   2.537   2.798 -1.2407  0.1249  1.0331
   9023SM  H15B12036   6.617   2.397   2.716 -0.5954 -2.5528  1.4371
   9023SM  H15C12037   6.718   2.444   2.845 -0.0866 -4.2826 -1.0124
   9023SM   C1412038   6.480   2.413   3.015  0.1173  0.9159 -0.3173
   9023SM  H14A12039   6.567   2.454   3.064  1.2370 -0.0080 -1.4861
   9023SM  H14B12040   6.435   2.336   3.076  3.7310  0.7689  2.4467
   9023SM  H14C12041   6.409   2.489   2.985  0.2592  0.5970 -1.5232
   9023SM   C1312042   6.413   2.316   2.811 -0.1056 -0.1590 -0.4128
   9023SM  H13A12043   6.351   2.404   2.804 -0.9144 -0.7233 -0.5559
   9023SM  H13B12044   6.359   2.238   2.863  1.8869 -1.6510 -0.4605
   9023SM  H13C12045   6.443   2.285   2.713  2.0335 -0.4816  0.2944
   9023SM   C1212046   6.604   2.218   2.921 -0.8885 -0.1361  0.7657
   9023SM  H12A12047   6.627   2.173   2.825  0.2145 -2.0713  1.8724
   9023SM  H12B12048   6.536   2.147   2.965 -1.2899 -0.5568 -0.4907
   9023SM   C1112049   6.732   2.214   3.011  0.6178  0.0187 -0.3296
   9023SM  H11A12050   6.753   2.111   3.046  0.4034  0.8541  2.5524
   9023SM  H11B12051   6.708   2.272   3.103  1.7732 -0.8270  0.5400
   9023SM     P12052   6.916   2.209   2.822  0.6284  0.0801 -0.3248
   9023SM   O1312053   6.824   2.167   2.716 -0.7067 -0.0726 -0.2747
   9023SM   O1412054   7.026   2.300   2.785 -0.0659 -0.4329 -0.0302
   9023SM   O1112055   6.980   2.086   2.908  0.2983  0.2232  0.3063
   9023SM   O1212056   6.825   2.278   2.940  0.3947 -0.1185 -0.2038
   9023SM   C1S12057   7.053   2.107   3.032 -0.1706 -0.3763  0.5652
   9023SM   H1S12058   7.035   2.211   3.066 -1.4879 -0.7451  1.0480
   9023SM   H1T12059   7.161   2.089   3.013  0.1599  0.7704  1.2178
   9023SM    NF12060   7.066   2.031   3.270  0.0260 -0.0403 -0.8945
   9023SM   HNF12061   7.119   1.949   3.290  0.9267  0.8925  0.7159
   9023SM   C2S12062   7.000   2.011   3.145 -0.3054  0.0913  0.5607
   9023SM   H2S12063   6.890   2.025   3.150 -0.4887  0.6579 -2.8276
   9023SM   C3S12064   7.012   1.862   3.104  0.6142  0.0562  0.0727
   9023SM   H3S12065   7.116   1.826   3.088  0.2765 -1.6178  1.3899
   9023SM    O312066   6.958   1.831   2.974  0.1277  0.3822  0.8068
   9023SM   HO312067   6.954   1.912   2.922 -1.8802 -1.0872 -1.5844
   9023SM   C4S12068   6.931   1.783   3.205 -0.3044 -0.4092  1.1764
   9023SM   H4S12069   6.823   1.807   3.205 -0.0878  0.6817  0.2983
   9023SM   C5S12070   6.988   1.702   3.295  0.5647 -0.5861  0.4261
   9023SM   H5S12071   7.097   1.684   3.289  0.7082  0.0582  1.0273
   9023SM   C6S12072   6.913   1.636   3.411  0.1250 -0.1125 -0.6527
   9023SM   H6S12073   6.950   1.535   3.439  0.1782 -0.1770 -0.9471
   9023SM   H6T12074   6.804   1.629   3.389 -0.3658 -0.7851  1.6854
   9023SM   C7S12075   6.910   1.739   3.526 -0.1693  0.5774  0.6950
   9023SM   H7S12076   6.838   1.706   3.604  1.1825  0.8289  2.1044
   9023SM   H7T12077   6.863   1.829   3.483 -1.5323 -1.0888 -1.5015
   9023SM   C8S12078   7.046   1.773   3.586 -0.7917  0.1595  0.5853
   9023SM   H8S12079   7.098   1.839   3.513 -0.5833  0.5212  1.0528
   9023SM   H8T12080   7.092   1.672   3.587 -2.3143 -0.6014 -1.3538
   9023SM   C9S12081   7.054   1.840   3.722  0.8864  0.4903  0.4821
   9023SM   H9S12082   6.990   1.930   3.712 -1.9938 -1.4327  0.2932
   9023SM   H9T12083   7.157   1.875   3.742  1.0231  0.4293 -0.1005
   9023SM  C10S12084   7.010   1.747   3.837  0.9028 -0.2143  1.0063
   9023SM  H10S12085   7.082   1.663   3.851  0.7693 -0.6739 -0.7902
   9023SM  H10T12086   6.910   1.717   3.798  0.2537  1.0952  1.6124
   9023SM  C11S12087   6.985   1.807   3.974 -0.5318  0.3241  0.1723
   9023SM  H11S12088   6.970   1.722   4.044 -1.1602  0.4115  0.1481
   9023SM  H11T12089   6.886   1.858   3.970 -1.5801 -1.6610 -0.6062
   9023SM  C12S12090   7.089   1.903   4.022  0.0447 -0.2863  0.2782
   9023SM  H12S12091   7.073   1.996   3.964  0.7103  1.3199  2.5351
   9023SM  H12T12092   7.190   1.859   4.016  1.3148  1.8918  3.1621
   9023SM  C13S12093   7.062   1.940   4.165  0.7613 -0.5142  0.1600
   9023SM  H13S12094   7.038   1.847   4.221 -0.3017  0.4297  1.3314
   9023SM  H13T12095   6.967   1.997   4.172  0.4535 -0.5634 -2.5458
   9023SM  C14S12096   7.180   2.014   4.228  0.2197 -0.1936  0.0166
   9023SM  H14S12097   7.203   2.109   4.175  1.9268 -0.3730  0.3672
   9023SM  H14T12098   7.268   1.946   4.229  0.0779 -0.3760  0.7727
   9023SM  C15S12099   7.138   2.063   4.367 -0.3426 -0.2154 -0.2691
   9023SM  H15S12100   7.045   2.124   4.371  0.4035  0.8909  1.5101
   9023SM  H15T12101   7.221   2.132   4.394 -0.9408  0.8378 -1.0215
   9023SM  C16S12102   7.144   1.958   4.481  0.2309 -0.0277  0.4630
   9023SM  H16S12103   7.248   1.920   4.494  0.0835 -0.9427 -0.8118
   9023SM  H16T12104   7.076   1.870   4.469  1.5676 -0.8987 -1.2207
   9023SM  C17S12105   7.092   2.025   4.613 -0.5516 -0.2240  0.4538
   9023SM  H17S12106   6.985   2.047   4.596 -0.0298  1.9417 -0.3841
   9023SM  H17T12107   7.141   2.125   4.611  1.1830 -1.0409 -0.2313
   9023SM  C18S12108   7.131   1.956   4.743  0.5650 -0.1693 -0.1786
   9023SM  H18S12109   7.134   2.026   4.829  1.1679  0.5177 -0.7323
   9023SM  H18T12110   7.236   1.922   4.730  0.1609 -1.4120 -0.2646
   9023SM  H18U12111   7.069   1.867   4.766 -1.8431  1.8450  1.6384
   9023SM   C1F12112   7.056   2.136   3.351  0.1519 -0.9418 -0.3203
   9023SM    OF12113   6.986   2.236   3.319 -0.6258 -0.2875  0.7224
   9023SM   C2F12114   7.120   2.120   3.483  0.1843  0.2040 -0.1006
   9023SM   H2F12115   7.190   2.034   3.475  0.3747  0.0748  2.3149
   9023SM   H2G12116   7.038   2.088   3.551  0.9740 -0.1766  0.6933
   9023SM   C3F12117   7.188   2.253   3.530 -0.6826 -0.0697  0.0120
   9023SM   H3F12118   7.109   2.331   3.536  0.0821  0.6269  1.6040
   9023SM   H3G12119   7.269   2.275   3.457  0.9769 -1.8060  1.2207
   9023SM   C4F12120   7.256   2.245   3.665 -0.5305 -0.2033 -0.6493
   9023SM   H4F12121   7.178   2.241   3.744  1.1070  0.7798  1.1082
   9023SM   H4G12122   7.314   2.336   3.692  2.3671 -1.5528 -1.8028
   9023SM   C5F12123   7.352   2.131   3.652 -0.4379  0.5136 -0.0403
   9023SM   H5F12124   7.406   2.153   3.558 -2.9809  0.6133 -1.5788
   9023SM   H5G12125   7.301   2.034   3.634 -1.0977  1.0673 -1.3052
   9023SM   C6F12126   7.454   2.118   3.768  0.8435 -0.2028  0.0373
   9023SM   H6F12127   7.497   2.218   3.788 -1.4502  1.3339 -2.2210
   9023SM   H6G12128   7.527   2.044   3.728 -1.1720 -2.8958  0.9810
   9023SM   C7F12129   7.391   2.061   3.895 -0.0269 -0.4722  0.0286
   9023SM   H7F12130   7.327   1.979   3.857  1.5261 -1.2440 -1.0628
   9023SM   H7G12131   7.326   2.140   3.936  1.5779  0.7120  0.3955
   9023SM   C8F12132   7.492   2.004   3.986 -0.1491 -0.0537 -1.0158
   9023SM   H8F12133   7.587   1.963   3.945  0.3350  0.1037 -0.0822
   9023SM   H8G12134   7.453   1.909   4.029  1.7673 -0.7880 -0.7674
   9023SM   C9F12135   7.537   2.099   4.108  0.0217  0.2419  0.2186
   9023SM   H9F12136   7.444   2.106   4.169 -1.0055  0.9113 -1.3624
   9023SM   H9G12137   7.568   2.197   4.066 -0.9691 -0.1942 -1.6613
   9023SM  C10F12138   7.650   2.042   4.188 -0.3344  0.6111 -0.1981
   9023SM  H10F12139   7.695   2.119   4.254  1.0625 -0.4202  0.1143
   9023SM  H10G12140   7.725   2.000   4.118 -2.4597 -0.1122 -2.1432
   9023SM  C11F12141   7.609   1.935   4.289  0.2592  0.5571 -0.1273
   9023SM  H11F12142   7.684   1.859   4.318  0.6793  0.8678 -0.3720
   9023SM  H11G12143   7.536   1.866   4.241 -0.6962  0.8138  0.9176
   9023SM  C12F12144   7.532   1.982   4.418 -0.0001 -0.1658  0.6258
   9023SM  H12F12145   7.468   1.898   4.452  1.5878 -0.7433  2.3416
   9023SM  H12G12146   7.469   2.072   4.401  1.8527  1.4135  1.8215
   9023SM  C13F12147   7.618   2.015   4.536 -0.3268  0.7101  0.4815
   9023SM  H13F12148   7.705   2.075   4.502  0.4895 -1.0503 -0.6467
   9023SM  H13G12149   7.672   1.922   4.562 -0.5494  0.0688 -1.2641
   9023SM  C14F12150   7.531   2.075   4.648  0.0560 -0.2666 -0.3830
   9023SM  H14F12151   7.450   2.000   4.661 -0.5680  0.6102  0.9641
   9023SM  H14G12152   7.482   2.168   4.612  2.5732  0.6717 -1.6176
   9023SM  C15F12153   7.593   2.104   4.789  1.1964 -0.5374  0.1580
   9023SM  H15F12154   7.701   2.115   4.766  0.6506  0.2686 -2.4108
   9023SM  H15G12155   7.578   2.014   4.852 -0.4595  1.9645  3.6789
   9023SM  C16F12156   7.530   2.218   4.869  0.0195  0.3000  0.2247
   9023SM  H16F12157   7.565   2.311   4.820 -0.4573  0.3083 -0.1068
   9023SM  H16G12158   7.585   2.208   4.965  0.7034  0.6162 -0.1265
   9023SM  C17F12159   7.379   2.199   4.878 -0.3200 -0.4208 -0.6406
   9023SM  H17F12160   7.369   2.092   4.905 -0.7830 -0.1441  0.3248
   9023SM  H17G12161   7.325   2.198   4.780  0.0646  0.6939 -0.8790
   9023SM  C18F12162   7.313   2.301   4.973  0.0958  0.6801  0.3844
   9023SM  H18F12163   7.327   2.401   4.927  0.2764  0.5787  0.2158
   9023SM  H18G12164   7.363   2.298   5.072 -0.4869  2.1839  0.7619
   9023SM  C19F12165   7.168   2.286   4.988  0.3881  0.0898 -0.6442
   9023SM  H19F12166   7.134   2.187   5.025 -1.0508  0.3467 -1.2121
   9023SM  H19G12167   7.108   2.310   4.897  1.3044 -0.6180 -1.4547
   9023SM  C20F12168   7.108   2.384   5.102 -0.5197 -0.0170 -0.0364
   9023SM  H20F12169   7.161   2.480   5.084 -0.7890 -0.1676 -1.7498
   9023SM  H20G12170   7.115   2.350   5.208 -0.0604  0.7570  0.1902
   9023SM  C21F12171   6.966   2.415   5.065  0.3360 -0.0222  0.5167
   9023SM  H21F12172   6.960   2.476   4.973  2.2123 -0.1652  0.2645
   9023SM  H21G12173   6.922   2.476   5.147 -1.8626 -2.5036  1.3702
   9023SM  C22F12174   6.873   2.291   5.067  0.0057  0.0873 -0.7387
   9023SM  H22F12175   6.903   2.220   4.987  0.1924 -0.5994 -0.0719
   9023SM  H22G12176   6.772   2.318   5.029  0.1075 -0.1409 -1.1753
   9023SM  C23F12177   6.877   2.208   5.196 -0.1564  0.3063  0.3583
   9023SM  H23F12178   6.979   2.180   5.230  0.0264  0.2600 -0.2197
   9023SM  H23G12179   6.838   2.106   5.175 -0.7043  0.9392 -2.0593
   9023SM  H23H12180   6.829   2.253   5.286  0.2476 -1.8224  1.7096
   9123SM     N12181   0.050   5.161   2.553  0.2259  0.9273  0.5632
   9123SM   C1512182   0.040   5.308   2.577  0.4104 -0.1389 -0.3039
   9123SM  H15A12183   0.113   5.348   2.646  2.1365  1.9234 -3.0584
   9123SM  H15B12184  -0.060   5.321   2.614  0.0617 -0.7978 -1.0008
   9123SM  H15C12185   0.044   5.359   2.481 -2.2594 -1.6702 -1.3360
   9123SM   C1412186  -0.031   5.110   2.439 -0.2364  0.2995  0.2218
   9123SM  H14A12187  -0.001   5.007   2.422  0.9616  1.0650 -3.2490
   9123SM  H14B12188  -0.014   5.159   2.344 -0.8954 -1.1489 -0.6912
   9123SM  H14C12189  -0.133   5.115   2.476 -0.2814 -0.0062  0.1452
   9123SM   C1312190   0.192   5.131   2.522 -0.5524 -0.3559  0.4846
   9123SM  H13A12191   0.229   5.158   2.425 -0.1861 -2.2599  0.0540
   9123SM  H13B12192   0.231   5.034   2.551  1.5226 -0.2918 -1.7688
   9123SM  H13C12193   0.242   5.194   2.595 -3.2152  0.3622  1.7948
   9123SM   C1212194   0.012   5.090   2.677 -0.5208 -0.2606  0.6868
   9123SM  H12A12195   0.038   4.988   2.653 -0.9962 -0.2057 -0.0805
   9123SM  H12B12196  -0.094   5.097   2.700 -0.9274 -0.9338 -0.8875
   9123SM   C1112197   0.087   5.125   2.811  0.0928 -0.1579 -0.3139
   9123SM  H11A12198   0.031   5.085   2.898  1.1788  0.2941  0.6129
   9123SM  H11B12199   0.092   5.234   2.833 -1.5657 -0.3111  0.9902
   9123SM     P12200   0.246   4.927   2.833 -0.3481 -0.1220  0.0630
   9123SM   O1312201   0.172   4.846   2.734  0.3314  0.0830 -0.1822
   9123SM   O1412202   0.387   4.894   2.857  0.3802  0.0333  0.7354
   9123SM   O1112203   0.178   4.899   2.973  0.1304 -0.3966 -0.7319
   9123SM   O1212204   0.227   5.080   2.808  0.4315 -0.0776  0.3079
   9123SM   C1S12205   0.219   4.968   3.091 -0.0440  0.3081  0.2005
   9123SM   H1S12206   0.215   5.077   3.072  1.4129  0.1429 -1.2317
   9123SM   H1T12207   0.325   4.947   3.116  0.1996 -0.3139 -1.2383
   9123SM    NF12208   0.152   5.046   3.303 -0.3625 -0.2546 -0.2911
   9123SM   HNF12209   0.223   5.037   3.372 -0.5810 -0.8870 -0.1399
   9123SM   C2S12210   0.124   4.941   3.208 -0.3907  0.0341  0.2593
   9123SM   H2S12211   0.017   4.939   3.178 -0.4115 -2.2697  0.3198
   9123SM   C3S12212   0.150   4.805   3.266 -0.5119 -0.0168  0.0773
   9123SM   H3S12213   0.256   4.819   3.297  0.4089  0.2547 -2.8824
   9123SM    O312214   0.161   4.698   3.167  0.4467  0.2052 -0.5767
   9123SM   HO312215   0.173   4.744   3.084  1.8139 -2.4387 -1.9807
   9123SM   C4S12216   0.063   4.776   3.383  0.4514  0.0658 -0.2545
   9123SM   H4S12217   0.093   4.833   3.472 -3.1922  1.3291  0.3248
   9123SM   C5S12218  -0.050   4.698   3.375  0.0827 -0.1284 -0.2312
   9123SM   H5S12219  -0.089   4.670   3.276 -0.6226  0.0471 -0.0095
   9123SM   C6S12220  -0.143   4.662   3.487 -0.0759  1.0779 -0.6312
   9123SM   H6S12221  -0.129   4.553   3.506  0.4609  1.2226 -0.1490
   9123SM   H6T12222  -0.252   4.672   3.472 -0.4941 -2.4215 -0.6557
   9123SM   C7S12223  -0.104   4.716   3.624 -0.6497 -0.1179  0.5845
   9123SM   H7S12224  -0.088   4.826   3.625  1.2352 -0.2981 -1.9632
   9123SM   H7T12225  -0.004   4.673   3.647 -0.1550 -0.7602 -2.4361
   9123SM   C8S12226  -0.211   4.685   3.730  0.1684  0.1878 -0.2972
   9123SM   H8S12227  -0.235   4.577   3.721 -0.4350  0.4434 -2.3138
   9123SM   H8T12228  -0.309   4.734   3.712 -0.1424  0.3061  1.5483
   9123SM   C9S12229  -0.165   4.728   3.876  0.0321  0.7019  0.0948
   9123SM   H9S12230  -0.258   4.769   3.921 -0.0498 -0.4872  1.0706
   9123SM   H9T12231  -0.080   4.796   3.855  0.3463  0.4319  0.4722
   9123SM  C10S12232  -0.118   4.609   3.964 -0.4849 -0.9426 -0.0656
   9123SM  H10S12233  -0.010   4.589   3.949 -0.5796 -1.6873  0.2260
   9123SM  H10T12234  -0.174   4.519   3.931 -4.5710  2.1222 -2.6951
   9123SM  C11S12235  -0.165   4.638   4.113 -0.3240 -0.2477 -0.4592
   9123SM  H11S12236  -0.275   4.625   4.118 -0.6294  1.8473 -0.9448
   9123SM  H11T12237  -0.128   4.735   4.153 -0.1862  0.0024 -1.1777
   9123SM  C12S12238  -0.090   4.541   4.213 -0.0858  0.1654  0.7997
   9123SM  H12S12239  -0.135   4.549   4.314 -1.9523 -0.7554  0.0844
   9123SM  H12T12240   0.019   4.563   4.225  0.1551  0.2229 -1.0934
   9123SM  C13S12241  -0.106   4.388   4.177  0.0248  0.3531  0.2915
   9123SM  H13S12242  -0.115   4.381   4.066 -1.2421  0.1885  0.3889
   9123SM  H13T12243  -0.194   4.333   4.217  0.3699 -0.6844 -0.3490
   9123SM  C14S12244   0.017   4.303   4.209  0.3651  0.5999 -0.1839
   9123SM  H14S12245   0.003   4.195   4.188 -2.9439  0.8936 -0.0210
   9123SM  H14T12246   0.034   4.303   4.319  2.1443 -1.7708 -0.3838
   9123SM  C15S12247   0.155   4.355   4.147  0.2440  0.2200  0.9045
   9123SM  H15S12248   0.192   4.449   4.194  3.3615 -0.9854  1.0954
   9123SM  H15T12249   0.144   4.369   4.037  1.7481 -0.5612  0.6284
   9123SM  C16S12250   0.260   4.248   4.164 -0.2949  0.4524  0.0186
   9123SM  H16S12251   0.231   4.146   4.130 -1.5416  0.3531  1.3181
   9123SM  H16T12252   0.275   4.242   4.274 -1.9853  0.2382  0.2647
   9123SM  C17S12253   0.389   4.283   4.081 -0.5349 -1.0746  0.2245
   9123SM  H17S12254   0.478   4.237   4.129  0.0908  2.5935  3.0301
   9123SM  H17T12255   0.411   4.392   4.089  1.3580 -1.3447 -0.7174
   9123SM  C18S12256   0.375   4.251   3.927  0.2125 -0.0643  0.2433
   9123SM  H18S12257   0.468   4.295   3.884  1.1539  0.0326  2.2434
   9123SM  H18T12258   0.285   4.303   3.890  0.7298 -0.0240 -1.0234
   9123SM  H18U12259   0.386   4.141   3.913  1.6103  0.2172 -1.1656
   9123SM   C1F12260   0.107   5.169   3.275 -0.3785 -0.7951 -0.7295
   9123SM    OF12261   0.045   5.199   3.171 -0.1920 -0.2002  0.0225
   9123SM   C2F12262   0.136   5.277   3.377 -0.2056  0.2401 -0.4683
   9123SM   H2F12263   0.200   5.232   3.456 -2.4812 -2.5491 -0.0849
   9123SM   H2G12264   0.041   5.301   3.428 -1.1652 -2.8218 -0.6296
   9123SM   C3F12265   0.206   5.402   3.313  0.6602 -0.1317 -0.6316
   9123SM   H3F12266   0.137   5.440   3.235  0.0047 -1.4209 -0.6960
   9123SM   H3G12267   0.291   5.372   3.248  0.1735 -0.9216 -0.9137
   9123SM   C4F12268   0.252   5.512   3.405 -0.0198  0.0880  0.1060
   9123SM   H4F12269   0.172   5.546   3.474  2.6359  1.9058  2.5178
   9123SM   H4G12270   0.301   5.602   3.363  0.5018  0.4414  1.4263
   9123SM   C5F12271   0.352   5.457   3.509 -0.2311  0.0930 -0.2847
   9123SM   H5F12272   0.429   5.397   3.456  0.4114  1.2132 -0.6531
   9123SM   H5G12273   0.298   5.389   3.578 -0.7456  0.7980  0.0133
   9123SM   C6F12274   0.420   5.560   3.605  0.1037 -0.0850  0.1402
   9123SM   H6F12275   0.484   5.636   3.556  0.5946 -0.2070  0.5778
   9123SM   H6G12276   0.485   5.499   3.672  1.0438  1.6201  0.8388
   9123SM   C7F12277   0.326   5.646   3.693  0.2589  0.0292 -0.0798
   9123SM   H7F12278   0.266   5.578   3.757 -0.3776 -0.0257 -0.7103
   9123SM   H7G12279   0.258   5.710   3.632  1.0521  2.3757  1.3683
   9123SM   C8F12280   0.407   5.738   3.784  0.2996 -0.1511 -0.4669
   9123SM   H8F12281   0.328   5.801   3.831  0.5526 -0.5777  0.5325
   9123SM   H8G12282   0.474   5.808   3.730  0.0294  1.6885  1.4489
   9123SM   C9F12283   0.497   5.665   3.898  0.0141  0.5032  0.9876
   9123SM   H9F12284   0.540   5.749   3.955 -0.7370  1.7286 -0.1862
   9123SM   H9G12285   0.584   5.608   3.860  1.4814  2.3148  1.5295
   9123SM  C10F12286   0.422   5.572   3.987  0.4264 -0.3178  0.2125
   9123SM  H10F12287   0.373   5.490   3.931 -1.0314  1.2026 -0.8215
   9123SM  H10G12288   0.340   5.628   4.035 -0.2073 -0.1493 -1.0406
   9123SM  C11F12289   0.501   5.494   4.098  0.2805 -0.0326  0.2822
   9123SM  H11F12290   0.559   5.409   4.057  2.4181 -0.0137  2.9567
   9123SM  H11G12291   0.416   5.453   4.156 -0.3765  2.7990  1.5014
   9123SM  C12F12292   0.588   5.578   4.201  0.3116 -0.5341 -0.3678
   9123SM  H12F12293   0.679   5.614   4.150  0.6264 -0.0231  0.5169
   9123SM  H12G12294   0.618   5.520   4.291 -0.1364  1.4095  1.1191
   9123SM  C13F12295   0.510   5.696   4.264 -0.0827  0.0101  0.3527
   9123SM  H13F12296   0.425   5.662   4.327 -0.5452 -1.7472 -1.1401
   9123SM  H13G12297   0.472   5.752   4.175  0.3984 -0.2355 -0.0085
   9123SM  C14F12298   0.602   5.788   4.346 -0.6342 -0.1716  0.2578
   9123SM  H14F12299   0.693   5.817   4.288  0.2831  0.7458  2.0702
   9123SM  H14G12300   0.651   5.747   4.437  2.1933  0.3411 -0.9063
   9123SM  C15F12301   0.523   5.909   4.379 -0.1653 -0.7466  0.4000
   9123SM  H15F12302   0.430   5.881   4.433 -0.3289 -1.2525 -0.1419
   9123SM  H15G12303   0.502   5.974   4.291  2.5751  3.0220  2.2141
   9123SM  C16F12304   0.601   6.008   4.472  0.3774 -0.4255 -0.0397
   9123SM  H16F12305   0.694   6.035   4.418  0.3658  1.3296  0.7338
   9123SM  H16G12306   0.639   5.968   4.569 -1.2019 -0.8389  0.4409
   9123SM  C17F12307   0.535   6.143   4.480  0.1024  0.0147 -0.6261
   9123SM  H17F12308   0.519   6.184   4.378 -0.7332  2.2837  0.3331
   9123SM  H17G12309   0.589   6.217   4.544 -2.1190  1.3090 -0.1214
   9123SM  C18F12310   0.393   6.142   4.537  0.0982 -0.0791 -0.4435
   9123SM  H18F12311   0.390   6.133   4.648 -0.9121  0.2961 -0.4366
   9123SM  H18G12312   0.336   6.063   4.484  2.0826  0.3898 -3.5339
   9123SM  C19F12313   0.324   6.282   4.509 -0.2865  0.3022  1.0342
   9123SM  H19F12314   0.214   6.269   4.512 -0.3551  0.8672  0.9172
   9123SM  H19G12315   0.340   6.298   4.401 -1.9175 -1.6578  0.4360
   9123SM  C20F12316   0.365   6.398   4.592 -0.3521 -0.6588 -0.3347
   9123SM  H20F12317   0.474   6.418   4.587 -0.1794 -0.8131  1.8324
   9123SM  H20G12318   0.343   6.367   4.697  0.9238  1.3652  0.6075
   9123SM  C21F12319   0.296   6.538   4.564  0.4647 -0.0971 -0.9204
   9123SM  H21F12320   0.186   6.525   4.568  0.2614  0.8744 -2.4583
   9123SM  H21G12321   0.331   6.569   4.463  0.6219 -0.1859 -0.8933
   9123SM  C22F12322   0.332   6.651   4.670  0.3413  0.4966 -0.1540
   9123SM  H22F12323   0.442   6.661   4.683  0.4594 -2.4059  2.1097
   9123SM  H22G12324   0.287   6.615   4.765 -1.9915 -0.3471 -1.4966
   9123SM  C23F12325   0.288   6.795   4.633 -0.2363 -0.5954 -0.6232
   9123SM  H23F12326   0.313   6.813   4.527  1.9032  0.8066  0.0518
   9123SM  H23G12327   0.339   6.868   4.700 -1.1367 -0.2698 -0.2694
   9123SM  H23H12328   0.182   6.804   4.663  0.0869  3.8169 -0.0470
   9223SM     N12329   4.564   2.487   2.604 -0.6620  0.4784 -0.0137
   9223SM   C1512330   4.662   2.423   2.504  0.6424 -0.2062 -0.1630
   9223SM  H15A12331   4.615   2.407   2.408  2.5566 -1.9399 -0.8541
   9223SM  H15B12332   4.694   2.327   2.540  0.5874 -0.2742 -0.2934
   9223SM  H15C12333   4.744   2.488   2.480 -0.9933  2.1655  0.2685
   9223SM   C1412334   4.514   2.616   2.542  0.0034 -0.6138  0.0201
   9223SM  H14A12335   4.437   2.664   2.602 -1.6168  0.0518 -2.4419
   9223SM  H14B12336   4.468   2.594   2.447 -1.0038 -1.4800  0.6868
   9223SM  H14C12337   4.588   2.694   2.533  0.1218 -0.6851  0.3678
   9223SM   C1312338   4.449   2.394   2.624 -0.7994 -0.0284  0.3309
   9223SM  H13A12339   4.382   2.419   2.705 -0.4085 -2.7438  1.6223
   9223SM  H13B12340   4.490   2.296   2.646  0.9133  0.2494 -1.3811
   9223SM  H13C12341   4.386   2.377   2.537  0.5650 -0.5283 -0.6079
   9223SM   C1212342   4.624   2.519   2.735 -0.0445 -0.3565 -0.3199
   9223SM  H12A12343   4.556   2.585   2.787 -1.6027  0.8737 -3.6470
   9223SM  H12B12344   4.705   2.589   2.719  0.6769 -0.5411  2.0376
   9223SM   C1112345   4.689   2.412   2.825  0.0386  0.1535  0.3391
   9223SM  H11A12346   4.608   2.348   2.866 -0.7298  2.2338  2.2948
   9223SM  H11B12347   4.736   2.450   2.919  2.6455 -0.9877 -0.3982
   9223SM     P12348   4.815   2.188   2.815 -0.1970 -0.0240  0.3604
   9223SM   O1312349   4.751   2.083   2.734  0.3884 -0.4402 -0.3860
   9223SM   O1412350   4.965   2.175   2.828 -0.2497 -0.1842  0.6019
   9223SM   O1112351   4.755   2.198   2.962 -0.4059 -0.0527 -0.2008
   9223SM   O1212352   4.785   2.335   2.754  0.3811 -0.1393 -0.5990
   9223SM   C1S12353   4.818   2.128   3.070 -0.1922  0.2273 -0.0515
   9223SM   H1S12354   4.918   2.170   3.091  0.4607 -0.6074 -1.3406
   9223SM   H1T12355   4.842   2.025   3.035  0.0458 -0.0124  0.7898
   9223SM    NF12356   4.813   2.058   3.306  0.2398  0.1545  0.4378
   9223SM   HNF12357   4.813   1.958   3.314 -3.5327  0.0112  0.2184
   9223SM   C2S12358   4.731   2.118   3.201 -0.0926  0.1027 -0.5753
   9223SM   H2S12359   4.716   2.222   3.237  1.2995 -0.4548  1.7926
   9223SM   C3S12360   4.597   2.041   3.180 -0.2891 -0.7392  0.5151
   9223SM   H3S12361   4.615   1.948   3.123 -2.0600 -0.8136  0.0411
   9223SM    O312362   4.524   2.120   3.086 -0.1042  0.0673  0.2433
   9223SM   HO312363   4.596   2.160   3.037  0.4280 -1.9950 -0.7602
   9223SM   C4S12364   4.507   2.024   3.303 -0.2376 -0.4011 -0.7785
   9223SM   H4S12365   4.447   2.115   3.316  0.4450  0.1338 -1.2909
   9223SM   C5S12366   4.473   1.911   3.367  0.3769 -0.0052  0.4410
   9223SM   H5S12367   4.523   1.816   3.343 -1.3066 -0.8106 -0.0866
   9223SM   C6S12368   4.359   1.904   3.461  0.0956 -0.6938  0.3616
   9223SM   H6S12369   4.297   1.814   3.445  1.1053 -1.6037  1.4203
   9223SM   H6T12370   4.294   1.994   3.450  0.0860 -0.7599 -0.1512
   9223SM   C7S12371   4.414   1.900   3.606  0.3074 -0.7664  0.1933
   9223SM   H7S12372   4.478   1.990   3.622 -1.6781  1.4107 -2.7657
   9223SM   H7T12373   4.475   1.808   3.610  1.9449  0.2949  0.4973
   9223SM   C8S12374   4.304   1.896   3.707  0.0354  0.0772  0.1704
   9223SM   H8S12375   4.312   1.790   3.740  0.1611  0.5958  1.9392
   9223SM   H8T12376   4.212   1.918   3.649  1.0667  1.5890 -0.9687
   9223SM   C9S12377   4.319   2.003   3.822 -0.6010  0.1558 -0.3968
   9223SM   H9S12378   4.280   2.099   3.781 -0.1592 -0.5052 -2.5130
   9223SM   H9T12379   4.428   2.013   3.841 -0.7587 -1.0039  1.3430
   9223SM  C10S12380   4.240   1.982   3.948  0.8079 -0.3252  0.6228
   9223SM  H10S12381   4.165   1.900   3.948  2.1799 -1.6596 -1.4517
   9223SM  H10T12382   4.176   2.072   3.961  2.8673  1.1412  1.2114
   9223SM  C11S12383   4.332   1.990   4.063  0.4736  0.3118 -0.6200
   9223SM  H11S12384   4.369   2.095   4.070 -2.2057  1.2888  0.6017
   9223SM  H11T12385   4.407   1.909   4.052 -0.7341 -0.8675 -0.4162
   9223SM  C12S12386   4.260   1.949   4.189 -0.2428 -1.1216 -0.9397
   9223SM  H12S12387   4.204   1.860   4.154 -2.5277  0.3409 -1.1803
   9223SM  H12T12388   4.185   2.028   4.213  0.6133 -0.2690 -0.9992
   9223SM  C13S12389   4.356   1.930   4.309  0.3315 -0.1503 -0.0473
   9223SM  H13S12390   4.413   2.025   4.316  1.3730 -0.8348  0.9562
   9223SM  H13T12391   4.435   1.853   4.299 -0.2891 -0.8219  0.1638
   9223SM  C14S12392   4.277   1.904   4.435 -0.4086 -0.2355 -0.1995
   9223SM  H14S12393   4.252   1.797   4.455 -0.4579 -0.1270  0.3441
   9223SM  H14T12394   4.182   1.961   4.435  0.8567  2.0733  2.0357
   9223SM  C15S12395   4.340   1.958   4.572  0.1107  0.2918 -0.3719
   9223SM  H15S12396   4.255   1.976   4.642 -0.2944  3.4011 -1.4993
   9223SM  H15T12397   4.385   2.058   4.554 -1.7932  1.1321 -0.8158
   9223SM  C16S12398   4.431   1.858   4.645  0.0338 -0.7898  0.3796
   9223SM  H16S12399   4.513   1.830   4.576  0.9419  0.7619  0.8008
   9223SM  H16T12400   4.378   1.764   4.673 -0.5734 -0.1820  1.3312
   9223SM  C17S12401   4.501   1.903   4.775 -0.8653 -0.1831  0.0470
   9223SM  H17S12402   4.580   1.825   4.786 -2.3030 -1.3019  3.9377
   9223SM  H17T12403   4.433   1.913   4.862 -0.5127  1.1889  0.1860
   9223SM  C18S12404   4.575   2.034   4.762  0.7807 -0.0839 -0.4731
   9223SM  H18S12405   4.653   2.017   4.684  0.4459 -2.2409 -0.4160
   9223SM  H18T12406   4.625   2.080   4.850  2.6259  1.6543 -2.3134
   9223SM  H18U12407   4.502   2.113   4.734  1.1638  0.6337  0.5106
   9223SM   C1F12408   4.908   2.124   3.373 -0.4765 -0.2971 -0.2779
   9223SM    OF12409   4.931   2.246   3.350  0.0743  0.4861  0.1759
   9223SM   C2F12410   4.998   2.048   3.462  0.1001 -0.6203  0.1044
   9223SM   H2F12411   5.087   2.113   3.476 -0.9148  0.8892 -0.1697
   9223SM   H2G12412   5.036   1.963   3.402 -0.4619 -1.3315  0.7237
   9223SM   C3F12413   4.946   2.001   3.597 -0.3760 -0.0556 -0.9004
   9223SM   H3F12414   5.014   1.930   3.649 -1.5130 -0.8426 -0.4509
   9223SM   H3G12415   4.852   1.947   3.573 -0.9193  0.2158  0.5583
   9223SM   C4F12416   4.913   2.111   3.697  0.1534 -0.1807  0.0421
   9223SM   H4F12417   4.840   2.190   3.669 -2.5558 -2.6785 -0.4835
   9223SM   H4G12418   5.014   2.157   3.698  1.6872 -3.2688 -0.0154
   9223SM   C5F12419   4.897   2.060   3.842  0.0651 -0.0931  1.2788
   9223SM   H5F12420   4.979   2.115   3.893  1.1620  0.7639 -1.2407
   9223SM   H5G12421   4.931   1.956   3.861 -0.9091 -0.4386  1.1822
   9223SM   C6F12422   4.754   2.064   3.895 -0.3238  0.8234 -0.1373
   9223SM   H6F12423   4.695   1.979   3.853 -2.0587  1.9187 -0.0470
   9223SM   H6G12424   4.702   2.158   3.866 -1.7369  0.1347  0.0426
   9223SM   C7F12425   4.740   2.062   4.048 -0.0991 -0.2151  0.0431
   9223SM   H7F12426   4.780   1.967   4.090 -0.2617 -0.1711  0.3047
   9223SM   H7G12427   4.630   2.062   4.060  0.1258 -0.1410  2.6498
   9223SM   C8F12428   4.792   2.188   4.124  0.2839  0.0279 -0.2225
   9223SM   H8F12429   4.747   2.270   4.063 -4.3187 -1.0977  1.2257
   9223SM   H8G12430   4.903   2.189   4.132  0.1444 -0.5044  4.5950
   9223SM   C9F12431   4.727   2.202   4.268  0.2801  0.0575  0.0646
   9223SM   H9F12432   4.768   2.116   4.326 -0.9897 -1.8083 -1.6771
   9223SM   H9G12433   4.616   2.204   4.268  0.2181 -1.6441  1.2758
   9223SM  C10F12434   4.783   2.328   4.338 -0.7050 -0.5081 -0.3082
   9223SM  H10F12435   4.743   2.423   4.296 -1.1351 -0.8526 -0.6866
   9223SM  H10G12436   4.892   2.342   4.320 -0.5666  2.2112  2.0790
   9223SM  C11F12437   4.755   2.344   4.492 -0.4347  0.3979  0.0847
   9223SM  H11F12438   4.817   2.266   4.541 -0.4554  0.6852  0.5794
   9223SM  H11G12439   4.647   2.319   4.496 -0.4711  0.5074 -0.1926
   9223SM  C12F12440   4.806   2.477   4.550 -0.1324 -0.0531  0.5286
   9223SM  H12F12441   4.754   2.557   4.493 -0.6473  0.2756  1.4483
   9223SM  H12G12442   4.916   2.487   4.539 -0.1403  1.4553  1.5240
   9223SM  C13F12443   4.768   2.491   4.703 -0.0519 -0.3106  0.0643
   9223SM  H13F12444   4.662   2.457   4.708 -0.3197  0.2141 -1.4199
   9223SM  H13G12445   4.772   2.594   4.744  1.0073  0.1592 -1.1778
   9223SM  C14F12446   4.860   2.414   4.798  0.6644 -0.3371 -0.3613
   9223SM  H14F12447   4.965   2.449   4.801  0.2100  1.1960 -1.1778
   9223SM  H14G12448   4.848   2.310   4.763 -2.4583  0.8651 -3.4442
   9223SM  C15F12449   4.809   2.422   4.947  0.0821 -0.4576 -0.4497
   9223SM  H15F12450   4.699   2.411   4.957 -0.0920  1.7671  0.7047
   9223SM  H15G12451   4.836   2.524   4.984  1.5738 -0.4965 -1.3622
   9223SM  C16F12452   4.875   2.315   5.040 -0.1960 -0.3521 -0.0332
   9223SM  H16F12453   4.915   2.232   4.977 -2.2870 -0.2137 -1.6295
   9223SM  H16G12454   4.807   2.276   5.119  0.7135  0.8997  1.4286
   9223SM  C17F12455   5.001   2.360   5.125  0.4095  0.6056 -0.3006
   9223SM  H17F12456   5.086   2.372   5.054 -1.0252 -3.0912 -2.9514
   9223SM  H17G12457   5.030   2.272   5.185  0.4621 -0.4755 -1.8564
   9223SM  C18F12458   4.980   2.491   5.210  0.3890  0.9978 -0.5106
   9223SM  H18F12459   4.955   2.587   5.160  1.5127  2.0685  0.9063
   9223SM  H18G12460   5.070   2.509   5.272 -0.3169 -1.9405  1.5578
   9223SM  C19F12461   4.870   2.471   5.317  0.6193 -0.2100 -0.2707
   9223SM  H19F12462   4.919   2.414   5.400  4.2311 -0.3178 -2.2622
   9223SM  H19G12463   4.783   2.412   5.280  0.3642 -0.4601  0.6976
   9223SM  C20F12464   4.799   2.603   5.355 -0.0290  0.5526 -0.2682
   9223SM  H20F12465   4.749   2.630   5.260  1.5697 -2.1798 -2.0335
   9223SM  H20G12466   4.878   2.679   5.375  2.5547 -1.5975 -1.5418
   9223SM  C21F12467   4.706   2.583   5.478 -0.8290  0.5802  0.1623
   9223SM  H21F12468   4.636   2.498   5.463  1.9296 -1.6817 -0.7279
   9223SM  H21G12469   4.640   2.671   5.494  0.4028  1.2706  1.7145
   9223SM  C22F12470   4.783   2.554   5.613  0.4471  0.9537 -0.3606
   9223SM  H22F12471   4.836   2.647   5.642 -1.2013  1.6964  0.3916
   9223SM  H22G12472   4.853   2.468   5.614 -0.4218  0.1569  2.8062
   9223SM  C23F12473   4.669   2.535   5.721  0.0247 -0.3757 -0.2778
   9223SM  H23F12474   4.605   2.449   5.692 -1.2154  0.1286  0.8520
   9223SM  H23G12475   4.597   2.618   5.737 -3.1674 -2.9896 -0.0525
   9223SM  H23H12476   4.711   2.518   5.822 -1.5662 -0.7309  0.3426
   9323SM     N12477   7.070   4.700   2.373 -0.1915 -0.1066 -0.1064
   9323SM   C1512478   7.067   4.658   2.232  0.1228  0.0877  0.6041
   9323SM  H15A12479   7.146   4.704   2.175 -0.6147  0.3599 -0.2157
   9323SM  H15B12480   6.972   4.691   2.191 -0.8780 -1.5607  1.4821
   9323SM  H15C12481   7.066   4.551   2.212  0.1242  0.3045 -0.6476
   9323SM   C1412482   7.057   4.853   2.370  0.0714  0.5819 -0.6596
   9323SM  H14A12483   7.132   4.901   2.310  0.1780 -0.4331 -1.3544
   9323SM  H14B12484   7.061   4.894   2.470 -0.0787  0.3684 -0.5659
   9323SM  H14C12485   6.966   4.886   2.322 -0.1020  0.4214 -0.4409
   9323SM   C1312486   6.945   4.648   2.445  0.4658  0.1708 -0.2841
   9323SM  H13A12487   6.950   4.542   2.462 -1.2859 -0.0002 -0.6855
   9323SM  H13B12488   6.863   4.649   2.375 -0.1873 -0.7367  0.4480
   9323SM  H13C12489   6.918   4.713   2.527 -2.0227 -0.0816 -0.8143
   9323SM   C1212490   7.199   4.644   2.439  0.3098  0.5700  0.1668
   9323SM  H12A12491   7.276   4.698   2.386  0.7437 -1.4948 -1.4693
   9323SM  H12B12492   7.209   4.538   2.420  1.4583  1.0121 -2.1185
   9323SM   C1112493   7.224   4.670   2.588 -0.2170  0.5036 -0.2135
   9323SM  H11A12494   7.318   4.613   2.598 -0.8383 -0.2533  1.7326
   9323SM  H11B12495   7.147   4.618   2.648  0.0667 -0.2300 -0.4824
   9323SM     P12496   7.379   4.880   2.638  0.2774 -0.4235  0.0634
   9323SM   O1312497   7.482   4.797   2.568 -0.1937 -0.6230  0.2194
   9323SM   O1412498   7.370   5.029   2.610 -0.7867  0.2966  0.1585
   9323SM   O1112499   7.410   4.856   2.790 -0.0473 -0.4927 -0.1472
   9323SM   O1212500   7.239   4.811   2.619  0.3455  0.4776 -0.5761
   9323SM   C1S12501   7.305   4.811   2.878  0.0272  0.3572 -0.2081
   9323SM   H1S12502   7.284   4.705   2.853  3.7112 -0.2096 -1.5704
   9323SM   H1T12503   7.211   4.870   2.866  0.4270  1.0683  0.0691
   9323SM    NF12504   7.239   4.785   3.104 -0.0136  0.1119 -0.0347
   9323SM   HNF12505   7.168   4.842   3.144  1.9052  1.9916  0.9053
   9323SM   C2S12506   7.349   4.838   3.020 -0.0110 -0.0726  0.0478
   9323SM   H2S12507   7.444   4.788   3.048 -1.1309 -2.0632  0.5515
   9323SM   C3S12508   7.363   4.989   3.029  0.1794 -0.4100  0.1344
   9323SM   H3S12509   7.269   5.037   2.995 -0.7192 -1.0894  1.5854
   9323SM    O312510   7.461   5.053   2.935 -0.0060  0.0863 -0.3610
   9323SM   HO312511   7.474   4.983   2.871 -0.6500  1.7286 -2.3880
   9323SM   C4S12512   7.395   5.039   3.166 -0.3909 -0.0947 -0.3880
   9323SM   H4S12513   7.490   5.001   3.206 -0.9266  1.0772  2.2205
   9323SM   C5S12514   7.332   5.144   3.232  0.3264 -0.2052  0.2687
   9323SM   H5S12515   7.260   5.200   3.171  0.9841  1.1645  0.7052
   9323SM   C6S12516   7.361   5.214   3.361  0.6327  0.2303  0.2074
   9323SM   H6S12517   7.262   5.246   3.399  0.5478  1.1620 -0.7464
   9323SM   H6T12518   7.424   5.304   3.345  0.2859  0.1037 -2.3373
   9323SM   C7S12519   7.433   5.133   3.473  0.1088  0.5599 -0.5217
   9323SM   H7S12520   7.458   5.202   3.558 -0.4073 -0.5096  0.5239
   9323SM   H7T12521   7.533   5.105   3.434 -0.2577 -1.0655 -0.3382
   9323SM   C8S12522   7.360   5.011   3.521  0.3397  0.2158 -0.6489
   9323SM   H8S12523   7.416   4.963   3.604 -1.5391 -2.5162 -0.8340
   9323SM   H8T12524   7.347   4.936   3.441  1.9657 -0.8897  0.0634
   9323SM   C9S12525   7.229   5.062   3.581 -0.6770  0.2303 -0.6438
   9323SM   H9S12526   7.152   5.101   3.511 -1.4159 -1.2434 -0.7061
   9323SM   H9T12527   7.250   5.150   3.645 -0.2964  0.1663 -0.6744
   9323SM  C10S12528   7.169   4.953   3.669 -0.4436 -0.4575 -0.1091
   9323SM  H10S12529   7.242   4.930   3.750 -1.3260 -1.1469  0.5154
   9323SM  H10T12530   7.160   4.859   3.611  0.3552 -1.5747  1.4955
   9323SM  C11S12531   7.038   5.017   3.725 -0.7345  0.1117  0.7044
   9323SM  H11S12532   6.967   5.024   3.640 -0.1952  1.0901  0.3199
   9323SM  H11T12533   7.058   5.124   3.748  0.0212  1.0296 -3.4379
   9323SM  C12S12534   6.976   4.932   3.834 -0.5049 -0.3781  0.2096
   9323SM  H12S12535   7.047   4.940   3.919  0.0477  0.8731 -0.3368
   9323SM  H12T12536   6.988   4.828   3.797  1.7930  0.7654 -2.7156
   9323SM  C13S12537   6.828   4.963   3.865  0.1588 -0.4050  0.0352
   9323SM  H13S12538   6.775   4.943   3.769 -2.3918 -2.8820  1.7991
   9323SM  H13T12539   6.818   5.068   3.898  0.3103 -0.9591  1.9287
   9323SM  C14S12540   6.769   4.861   3.958 -0.0269  0.4029 -0.3002
   9323SM  H14S12541   6.814   4.875   4.059 -2.5048  0.2748  0.8796
   9323SM  H14T12542   6.793   4.763   3.911 -0.9743  0.5382 -1.0955
   9323SM  C15S12543   6.618   4.872   3.969  0.3561  0.2573  0.2255
   9323SM  H15S12544   6.577   4.906   3.871 -0.8574  0.3206  0.7358
   9323SM  H15T12545   6.580   4.767   3.973  1.8595 -0.2764  0.9212
   9323SM  C16S12546   6.568   4.953   4.091 -0.6774 -0.2364 -0.0070
   9323SM  H16S12547   6.457   4.957   4.085 -0.6133  1.0829 -0.8991
   9323SM  H16T12548   6.593   5.061   4.087  0.4291 -0.5071 -2.0913
   9323SM  C17S12549   6.605   4.902   4.228  0.2824  0.7553 -0.6024
   9323SM  H17S12550   6.715   4.894   4.236  0.2101  0.1101 -0.1647
   9323SM  H17T12551   6.574   4.798   4.254  0.8034  0.9629  0.9701
   9323SM  C18S12552   6.541   4.993   4.335 -0.2119  0.5489  0.1150
   9323SM  H18S12553   6.562   4.962   4.440 -2.1918 -1.0260  0.1064
   9323SM  H18T12554   6.432   4.980   4.319  0.1672 -0.4826 -2.0698
   9323SM  H18U12555   6.578   5.097   4.324 -1.4233  1.2239  1.9848
   9323SM   C1F12556   7.233   4.658   3.140 -0.1919  0.2745  0.0914
   9323SM    OF12557   7.309   4.581   3.070  0.5098  0.0532 -0.8975
   9323SM   C2F12558   7.150   4.601   3.259  0.0057 -0.0838 -0.3532
   9323SM   H2F12559   7.043   4.590   3.232 -0.4154  1.3739  0.6249
   9323SM   H2G12560   7.161   4.671   3.345  1.5669  2.5584 -2.5445
   9323SM   C3F12561   7.190   4.457   3.303 -0.2496  0.0393 -0.5735
   9323SM   H3F12562   7.300   4.447   3.313 -0.3464  0.3498  0.9739
   9323SM   H3G12563   7.172   4.394   3.213  2.0085 -1.3324 -0.1531
   9323SM   C4F12564   7.109   4.404   3.423 -0.6709 -0.5285 -0.0155
   9323SM   H4F12565   7.121   4.294   3.431 -0.5966 -0.4229  1.6417
   9323SM   H4G12566   7.000   4.424   3.413 -0.8490  0.0888  2.5637
   9323SM   C5F12567   7.148   4.491   3.552  0.0611 -0.0464 -0.2269
   9323SM   H5F12568   7.098   4.590   3.542 -2.0483 -1.1774 -1.8105
   9323SM   H5G12569   7.256   4.489   3.577 -0.2472 -0.4488  1.1867
   9323SM   C6F12570   7.079   4.437   3.678 -0.0425 -0.7030 -0.2934
   9323SM   H6F12571   7.127   4.339   3.697 -1.9586 -1.4434  1.0739
   9323SM   H6G12572   6.975   4.409   3.648 -0.5463  0.8652 -0.1085
   9323SM   C7F12573   7.095   4.541   3.792  0.4768 -0.5103 -0.8181
   9323SM   H7F12574   7.029   4.627   3.767  1.7658  0.4593 -0.9325
   9323SM   H7G12575   7.199   4.574   3.808  0.0016  0.5547  0.2326
   9323SM   C8F12576   7.060   4.489   3.929 -0.4425  0.2027  0.0705
   9323SM   H8F12577   7.111   4.395   3.959 -0.3562  0.5135  0.9287
   9323SM   H8G12578   6.951   4.468   3.929 -0.3142 -0.7517 -2.2116
   9323SM   C9F12579   7.085   4.592   4.048  0.4887 -0.3203  0.1006
   9323SM   H9F12580   7.026   4.685   4.036  0.7190  0.0613  1.6712
   9323SM   H9G12581   7.194   4.615   4.053  0.2003  0.8136  2.2638
   9323SM  C10F12582   7.041   4.538   4.186 -0.6660 -0.3865 -0.5835
   9323SM  H10F12583   7.107   4.455   4.219 -1.2653  0.2081  2.4654
   9323SM  H10G12584   6.933   4.511   4.189 -0.7328 -0.4820 -2.5011
   9323SM  C11F12585   7.052   4.651   4.286 -0.8721 -0.1839 -0.7570
   9323SM  H11F12586   6.984   4.734   4.258 -1.2007 -0.3902 -0.5863
   9323SM  H11G12587   7.157   4.686   4.286 -1.2292  0.9474  0.1556
   9323SM  C12F12588   7.026   4.606   4.428  0.3240  0.0552 -0.1343
   9323SM  H12F12589   7.108   4.537   4.457 -1.1620 -1.9046 -0.4205
   9323SM  H12G12590   6.932   4.547   4.432 -0.1916  0.8812  0.1749
   9323SM  C13F12591   7.021   4.713   4.530  0.1000  0.6254  0.1499
   9323SM  H13F12592   6.950   4.790   4.494  0.9134  1.1477 -0.3670
   9323SM  H13G12593   7.113   4.773   4.544  0.4361  0.0455  0.4667
   9323SM  C14F12594   6.982   4.677   4.677 -0.2521  0.3037  0.2524
   9323SM  H14F12595   7.071   4.623   4.717  0.1345 -0.8125 -1.9392
   9323SM  H14G12596   6.891   4.614   4.685 -0.2585 -0.6031 -4.1200
   9323SM  C15F12597   6.958   4.809   4.751 -0.1315  0.1531 -0.0313
   9323SM  H15F12598   6.872   4.850   4.693  1.0911  0.7140 -1.5349
   9323SM  H15G12599   7.042   4.881   4.744 -0.5056  0.5105 -1.1081
   9323SM  C16F12600   6.921   4.786   4.898  0.3742 -0.6157 -1.0412
   9323SM  H16F12601   6.989   4.707   4.936  0.6300  0.1028  0.0738
   9323SM  H16G12602   6.825   4.732   4.907 -0.2155  0.5754  0.1910
   9323SM  C17F12603   6.903   4.919   4.971 -0.6004 -0.2179  0.3074
   9323SM  H17F12604   6.807   4.960   4.932 -0.2220 -1.9626 -2.7850
   9323SM  H17G12605   6.987   4.990   4.953 -1.0361  0.7393  1.8552
   9323SM  C18F12606   6.899   4.901   5.124 -0.0281  0.0372 -0.0134
   9323SM  H18F12607   7.002   4.902   5.167 -0.0474  0.8310  0.0391
   9323SM  H18G12608   6.847   4.806   5.149 -1.0919  1.0369  1.8021
   9323SM  C19F12609   6.826   5.017   5.196 -0.3991  0.5334 -0.8625
   9323SM  H19F12610   6.733   5.045   5.140 -0.0762 -1.2431 -2.3997
   9323SM  H19G12611   6.882   5.113   5.189 -0.1785  0.4435 -0.3273
   9323SM  C20F12612   6.771   4.993   5.341  0.0246 -1.0073  0.1061
   9323SM  H20F12613   6.733   4.891   5.360 -0.3526 -1.2757 -1.9224
   9323SM  H20G12614   6.691   5.067   5.363 -0.9267 -1.6522 -1.0731
   9323SM  C21F12615   6.869   5.012   5.458 -0.2431 -0.9137  0.1949
   9323SM  H21F12616   6.956   4.943   5.458 -0.2028 -0.9507  2.3267
   9323SM  H21G12617   6.818   4.997   5.556 -0.2256  0.0503  0.3666
   9323SM  C22F12618   6.934   5.149   5.467 -0.1636  0.2164  0.4648
   9323SM  H22F12619   6.853   5.226   5.464 -0.7619 -0.3927  0.6873
   9323SM  H22G12620   6.996   5.166   5.376  0.7206 -0.3856  0.9402
   9323SM  C23F12621   7.017   5.183   5.593 -0.3679  0.3839  0.0531
   9323SM  H23F12622   6.957   5.154   5.683 -0.9406  1.6636  0.1081
   9323SM  H23G12623   7.031   5.292   5.606 -4.1946  0.8452  1.9894
   9323SM  H23H12624   7.113   5.130   5.578 -0.1069  0.8131  0.1836
   9423SM     N12625   4.269   6.585   3.019  0.0121  0.3669  0.1564
   9423SM   C1512626   4.364   6.552   3.128 -0.0497  0.5666 -0.0581
   9423SM  H15A12627   4.303   6.499   3.200 -2.1338 -1.6620 -3.1804
   9423SM  H15B12628   4.398   6.644   3.172  1.4060  0.3642 -0.7032
   9423SM  H15C12629   4.446   6.494   3.089  0.1007  1.4109 -1.0251
   9423SM   C1412630   4.357   6.647   2.916  0.1609  0.3597 -0.3562
   9423SM  H14A12631   4.441   6.585   2.887 -0.5770  0.0007 -1.8686
   9423SM  H14B12632   4.405   6.733   2.960 -1.9713  0.5077  1.9362
   9423SM  H14C12633   4.303   6.686   2.830 -0.0774  1.3548  0.2294
   9423SM   C1312634   4.224   6.450   2.965  0.5635  0.0064 -0.5272
   9423SM  H13A12635   4.307   6.396   2.921  0.0076  0.6770 -2.5172
   9423SM  H13B12636   4.143   6.463   2.894  0.1892  0.7567  0.0295
   9423SM  H13C12637   4.174   6.391   3.040 -0.3895  2.0722  0.5144
   9423SM   C1212638   4.158   6.672   3.057 -1.0608 -0.4563 -0.2411
   9423SM  H12A12639   4.094   6.606   3.114 -0.1352 -0.5310  0.7605
   9423SM  H12B12640   4.097   6.706   2.975 -0.0949 -1.4674 -1.4110
   9423SM   C1112641   4.192   6.788   3.158 -0.2064  0.0487 -0.4987
   9423SM  H11A12642   4.232   6.746   3.253 -1.0567  3.1453  1.3710
   9423SM  H11B12643   4.101   6.845   3.189  0.0284  0.2078 -0.0968
   9423SM     P12644   4.415   6.933   3.183 -0.0110 -0.4467  0.4250
   9423SM   O1312645   4.520   6.823   3.166 -0.8494  0.0942 -0.2972
   9423SM   O1412646   4.443   7.067   3.132  0.2591 -0.2820 -0.2382
   9423SM   O1112647   4.370   6.944   3.335  0.6615  0.2618  0.6360
   9423SM   O1212648   4.287   6.876   3.103 -0.4762  0.0611 -0.3669
   9423SM   C1S12649   4.479   6.940   3.426  0.1082 -0.7579 -0.2105
   9423SM   H1S12650   4.538   7.034   3.422 -0.8546 -0.1389 -0.3733
   9423SM   H1T12651   4.544   6.851   3.407 -0.7160 -1.9099  2.0445
   9423SM    NF12652   4.528   6.976   3.662  0.1345  0.2755 -0.0702
   9423SM   HNF12653   4.596   6.911   3.696 -0.8128 -0.6291  0.1162
   9423SM   C2S12654   4.423   6.928   3.574  0.5960  0.1990  0.3943
   9423SM   H2S12655   4.335   6.994   3.584  0.7034  1.3062 -3.9930
   9423SM   C3S12656   4.386   6.779   3.606  0.2067  0.0102  0.0912
   9423SM   H3S12657   4.483   6.724   3.610  1.1191  1.5435  3.8816
   9423SM    O312658   4.301   6.724   3.499  0.2764  0.1048 -0.3484
   9423SM   HO312659   4.299   6.795   3.434 -0.5506  1.2266  0.8665
   9423SM   C4S12660   4.328   6.759   3.746 -0.1485 -0.0817  0.9631
   9423SM   H4S12661   4.231   6.810   3.751 -0.2023 -0.1933  1.0729
   9423SM   C5S12662   4.379   6.680   3.845  0.2846 -0.1843  0.4312
   9423SM   H5S12663   4.474   6.624   3.839 -0.0896 -1.2520  3.2309
   9423SM   C6S12664   4.306   6.655   3.968  0.0937  0.1746 -0.2302
   9423SM   H6S12665   4.331   6.555   4.007 -0.2780  0.2884  0.3165
   9423SM   H6T12666   4.196   6.654   3.947  0.2839  2.4386 -1.6833
   9423SM   C7S12667   4.356   6.762   4.075 -0.2420 -0.0704  0.0312
   9423SM   H7S12668   4.334   6.869   4.052  0.1920 -0.0263 -0.1868
   9423SM   H7T12669   4.464   6.750   4.095 -0.6318 -0.1047  2.3864
   9423SM   C8S12670   4.287   6.758   4.211  0.0886  0.7135 -0.6566
   9423SM   H8S12671   4.313   6.656   4.249  0.0234 -0.6598 -3.9405
   9423SM   H8T12672   4.177   6.759   4.201 -0.0262 -0.9425  0.0131
   9423SM   C9S12673   4.336   6.863   4.315 -0.4082 -0.6847  0.5578
   9423SM   H9S12674   4.310   6.960   4.269  0.3640 -0.2215  1.0721
   9423SM   H9T12675   4.446   6.867   4.332 -0.4548 -0.2357  0.7395
   9423SM  C10S12676   4.287   6.836   4.455  0.2379 -0.5868  0.6452
   9423SM  H10S12677   4.343   6.750   4.497 -1.6799 -1.2994  1.8999
   9423SM  H10T12678   4.178   6.815   4.446  0.8517 -3.4764 -1.4706
   9423SM  C11S12679   4.300   6.959   4.548 -0.2372 -0.7815  0.9860
   9423SM  H11S12680   4.285   7.056   4.496  1.5083 -0.7627  0.4310
   9423SM  H11T12681   4.405   6.950   4.584 -0.4973  0.7024  2.2060
   9423SM  C12S12682   4.211   6.952   4.672 -0.4949 -0.3030 -0.4200
   9423SM  H12S12683   4.109   6.939   4.630 -0.3246 -1.4483 -0.4906
   9423SM  H12T12684   4.199   7.049   4.727 -1.1202 -0.3523 -0.4547
   9423SM  C13S12685   4.243   6.843   4.770 -0.3315  0.3649 -0.0372
   9423SM  H13S12686   4.234   6.747   4.715  0.3976  0.9257 -1.1670
   9423SM  H13T12687   4.162   6.836   4.846 -1.6463 -0.7864 -1.4834
   9423SM  C14S12688   4.374   6.851   4.851 -0.1525  0.3765 -0.1174
   9423SM  H14S12689   4.459   6.865   4.781  0.4188  0.1778  0.5267
   9423SM  H14T12690   4.400   6.749   4.886 -0.0331 -0.1169 -1.5863
   9423SM  C15S12691   4.377   6.952   4.967  0.2406 -0.3328 -0.0257
   9423SM  H15S12692   4.287   6.960   5.030  0.5389  0.0441  0.3617
   9423SM  H15T12693   4.378   7.045   4.905 -1.6626  0.3837  0.9307
   9423SM  C16S12694   4.511   6.951   5.047 -0.3312 -0.5857  0.6774
   9423SM  H16S12695   4.525   6.851   5.094  0.3071 -1.4425 -1.2231
   9423SM  H16T12696   4.511   7.031   5.124 -1.1629 -0.6994  0.8032
   9423SM  C17S12697   4.647   6.975   4.975 -0.2410  0.1350 -0.0373
   9423SM  H17S12698   4.648   7.065   4.910 -2.2347 -0.6360 -1.2056
   9423SM  H17T12699   4.673   6.894   4.903  0.9639 -0.4522  1.0120
   9423SM  C18S12700   4.767   6.997   5.074 -0.2170  0.0689 -0.3032
   9423SM  H18S12701   4.780   6.897   5.120 -0.8028 -0.4634 -1.2605
   9423SM  H18T12702   4.739   7.061   5.161  1.3006 -1.8802  1.7286
   9423SM  H18U12703   4.862   7.026   5.025 -0.0683 -0.9721 -0.6393
   9423SM   C1F12704   4.568   7.101   3.671  0.1860 -1.0782  0.1946
   9423SM    OF12705   4.490   7.192   3.640  0.1776 -0.1346 -0.4329
   9423SM   C2F12706   4.709   7.134   3.727  0.6961 -0.7510 -0.6160
   9423SM   H2F12707   4.761   7.176   3.638  0.4414 -0.8222 -0.8000
   9423SM   H2G12708   4.759   7.040   3.759 -1.1447 -1.8173 -0.7367
   9423SM   C3F12709   4.686   7.225   3.848  0.7007 -0.6513 -0.6322
   9423SM   H3F12710   4.648   7.322   3.808  2.0313 -0.0497 -0.5279
   9423SM   H3G12711   4.777   7.260   3.902 -0.2579  0.9610  0.0426
   9423SM   C4F12712   4.598   7.162   3.957 -0.0773  1.2026 -0.1744
   9423SM   H4F12713   4.660   7.074   3.986 -1.3233  0.5062  0.4584
   9423SM   H4G12714   4.505   7.128   3.906  0.4304 -1.0980  0.3314
   9423SM   C5F12715   4.550   7.251   4.070 -0.1366  0.2651 -0.3371
   9423SM   H5F12716   4.487   7.335   4.034 -1.0028  0.1657  0.8878
   9423SM   H5G12717   4.638   7.308   4.109 -0.5801  2.7415 -2.6202
   9423SM   C6F12718   4.482   7.199   4.196  0.7233 -0.9253 -1.3323
   9423SM   H6F12719   4.543   7.114   4.236 -1.6891 -1.1485  2.2826
   9423SM   H6G12720   4.375   7.170   4.191 -0.1689  1.4883  1.0546
   9423SM   C7F12721   4.483   7.306   4.299  0.5660 -0.3108  0.2961
   9423SM   H7F12722   4.455   7.400   4.247 -1.2462 -0.9245  0.1197
   9423SM   H7G12723   4.589   7.323   4.329 -0.0305 -0.2082  2.4750
   9423SM   C8F12724   4.400   7.277   4.418 -0.3137  0.3112  0.7465
   9423SM   H8F12725   4.448   7.193   4.472 -0.7007  0.0529  0.6882
   9423SM   H8G12726   4.301   7.249   4.376  0.3076 -1.8710  0.6399
   9423SM   C9F12727   4.389   7.392   4.520  0.2373 -0.2958 -0.2325
   9423SM   H9F12728   4.360   7.482   4.461  0.1551 -0.5227 -0.5430
   9423SM   H9G12729   4.489   7.416   4.561  0.2203  0.5853 -0.6737
   9423SM  C10F12730   4.295   7.359   4.636 -0.1396 -0.1193  0.5025
   9423SM  H10F12731   4.308   7.254   4.669 -0.4073 -0.7140 -1.1451
   9423SM  H10G12732   4.190   7.378   4.605 -0.1408 -0.6561  0.1649
   9423SM  C11F12733   4.313   7.453   4.755  0.4545 -0.5359 -0.0837
   9423SM  H11F12734   4.303   7.558   4.721  2.8838 -0.3418 -0.4065
   9423SM  H11G12735   4.417   7.441   4.793  0.8088  1.6257 -0.2105
   9423SM  C12F12736   4.225   7.408   4.864 -0.4196 -1.0017 -0.4026
   9423SM  H12F12737   4.258   7.307   4.896 -0.3732 -0.9991 -0.4419
   9423SM  H12G12738   4.117   7.400   4.839 -0.0908 -1.5216 -1.7405
   9423SM  C13F12739   4.229   7.513   4.988 -0.0916  0.4253 -0.5619
   9423SM  H13F12740   4.331   7.533   5.028 -0.3553  0.0154  0.3378
   9423SM  H13G12741   4.170   7.483   5.077 -0.8432 -0.8667 -1.4717
   9423SM  C14F12742   4.180   7.657   4.943 -0.2990 -0.3640  0.0527
   9423SM  H14F12743   4.075   7.637   4.912 -0.5669  1.2613 -0.1708
   9423SM  H14G12744   4.234   7.701   4.856  0.2570 -0.3742  0.3895
   9423SM  C15F12745   4.195   7.753   5.063  0.9449 -0.1059  0.6983
   9423SM  H15F12746   4.153   7.701   5.152 -3.7895  1.2563 -0.4913
   9423SM  H15G12747   4.128   7.839   5.042 -0.7614 -1.2899  1.1003
   9423SM  C16F12748   4.334   7.815   5.090 -0.2307  0.2173  0.2877
   9423SM  H16F12749   4.410   7.733   5.095 -1.3369 -1.0373 -1.8438
   9423SM  H16G12750   4.340   7.855   5.194  0.0723  1.5648 -0.2254
   9423SM  C17F12751   4.388   7.919   4.994  0.2065 -0.1993 -0.3408
   9423SM  H17F12752   4.443   7.996   5.053  0.5175 -0.3934 -0.3745
   9423SM  H17G12753   4.310   7.979   4.942  0.1170  1.8169  1.9348
   9423SM  C18F12754   4.480   7.858   4.891 -0.3543  0.1263  0.9758
   9423SM  H18F12755   4.423   7.795   4.820  0.9970  1.0095 -0.9758
   9423SM  H18G12756   4.557   7.796   4.942  0.5727  1.1937  0.9271
   9423SM  C19F12757   4.558   7.968   4.809 -0.0300  0.1019 -0.3336
   9423SM  H19F12758   4.585   8.046   4.883 -0.6818 -0.8265  0.9192
   9423SM  H19G12759   4.487   8.022   4.742 -0.9145  0.4815  0.8582
   9423SM  C20F12760   4.670   7.923   4.729 -0.1811 -0.2935 -0.2808
   9423SM  H20F12761   4.750   7.873   4.788 -1.2412 -2.2762 -0.4523
   9423SM  H20G12762   4.716   8.017   4.691 -0.7648  0.3735  0.6205
   9423SM  C21F12763   4.631   7.826   4.622  0.4776  0.9410  0.2457
   9423SM  H21F12764   4.579   7.893   4.550  0.1205 -1.1667 -1.5832
   9423SM  H21G12765   4.560   7.753   4.667 -0.8933  2.6072  0.8997
   9423SM  C22F12766   4.751   7.766   4.544  0.1877 -0.0044 -0.8103
   9423SM  H22F12767   4.791   7.686   4.609 -1.0128 -1.1403 -1.4164
   9423SM  H22G12768   4.826   7.847   4.540 -0.9791  1.3226  1.6017
   9423SM  C23F12769   4.709   7.701   4.415  0.5208 -0.7168  0.0861
   9423SM  H23F12770   4.675   7.773   4.338 -0.0670  0.6859  1.6141
   9423SM  H23G12771   4.618   7.639   4.431  0.9981 -2.0627 -1.9799
   9423SM  H23H12772   4.786   7.635   4.369  1.5347 -0.7604  1.7682
   9523SM     N12773   3.197   0.723   2.713  0.0305  0.3664  0.1786
   9523SM   C1512774   3.108   0.620   2.647 -0.0893 -0.1967 -0.2757
   9523SM  H15A12775   3.064   0.652   2.554  1.1371  0.3077 -0.6951
   9523SM  H15B12776   3.031   0.603   2.722  0.0461 -0.7057 -0.2436
   9523SM  H15C12777   3.163   0.528   2.634 -0.7964 -0.8525  1.0787
   9523SM   C1412778   3.292   0.674   2.813 -0.3729 -0.0067 -0.5930
   9523SM  H14A12779   3.367   0.619   2.758  0.2802  0.1387  0.1240
   9523SM  H14B12780   3.244   0.613   2.888 -0.1310 -0.3704 -0.7316
   9523SM  H14C12781   3.347   0.750   2.867  0.4602 -1.3106  0.4558
   9523SM   C1312782   3.285   0.783   2.604 -0.5020  0.1484 -0.5769
   9523SM  H13A12783   3.223   0.824   2.526 -1.9196 -1.8991 -0.6092
   9523SM  H13B12784   3.343   0.705   2.558 -1.7025 -0.2024 -1.5363
   9523SM  H13C12785   3.350   0.859   2.644  1.0627 -1.9567  1.1905
   9523SM   C1212786   3.110   0.834   2.772 -0.2929  0.0677 -0.3155
   9523SM  H12A12787   3.063   0.894   2.696 -0.3579  0.1647 -0.1974
   9523SM  H12B12788   3.173   0.903   2.825 -0.1254 -1.0232  0.9619
   9523SM   C1112789   3.008   0.786   2.876  0.0284  0.3250  0.3707
   9523SM  H11A12790   2.989   0.864   2.952  0.3602 -1.5538  2.4869
   9523SM  H11B12791   3.057   0.707   2.937 -1.7793  0.6789  2.4104
   9523SM     P12792   2.761   0.819   2.823  0.0645  0.0222  0.2358
   9523SM   O1312793   2.781   0.947   2.756  0.1764 -1.0108 -0.1915
   9523SM   O1412794   2.651   0.740   2.770  0.6152  0.3803 -0.5005
   9523SM   O1112795   2.741   0.864   2.972 -0.5151  0.0951 -0.4282
   9523SM   O1212796   2.890   0.736   2.819  0.1210 -0.0271  0.2003
   9523SM   C1S12797   2.682   0.768   3.069 -0.3240 -0.6706  0.1152
   9523SM   H1S12798   2.756   0.742   3.148  0.0185 -0.8542 -0.2626
   9523SM   H1T12799   2.641   0.674   3.027 -0.2344 -0.8582  0.4380
   9523SM    NF12800   2.492   0.724   3.224  0.8419  0.3437 -0.1658
   9523SM   HNF12801   2.431   0.652   3.193  3.0242 -2.7454  2.1375
   9523SM   C2S12802   2.551   0.825   3.139 -1.0521 -0.6527 -0.1921
   9523SM   H2S12803   2.584   0.909   3.204 -0.1797  1.2884 -2.9580
   9523SM   C3S12804   2.450   0.870   3.026  0.6418 -0.0987 -0.2618
   9523SM   H3S12805   2.437   0.793   2.948  1.7165  0.1342 -0.6859
   9523SM    O312806   2.493   0.981   2.954  0.1757  0.9699  0.3785
   9523SM   HO312807   2.588   0.974   2.966  0.1677 -0.5855 -0.1414
   9523SM   C4S12808   2.311   0.889   3.080  0.3945 -0.5657 -0.1325
   9523SM   H4S12809   2.236   0.814   3.047  0.9421 -2.4907  2.6326
   9523SM   C5S12810   2.271   1.001   3.140  0.2678 -0.5215  0.3310
   9523SM   H5S12811   2.333   1.090   3.155  1.6910 -0.9201 -2.5624
   9523SM   C6S12812   2.134   1.025   3.179 -0.2347  0.2391 -0.1719
   9523SM   H6S12813   2.072   0.933   3.189 -0.8154  0.6052 -0.3278
   9523SM   H6T12814   2.081   1.092   3.108  0.1497  2.2804  1.3796
   9523SM   C7S12815   2.144   1.092   3.328 -0.5788 -0.4653 -0.1862
   9523SM   H7S12816   2.210   1.182   3.328 -1.2781  0.0651 -0.9589
   9523SM   H7T12817   2.183   1.014   3.397 -1.4387  0.8959  1.9306
   9523SM   C8S12818   1.999   1.142   3.377 -0.5185 -0.3916  0.1439
   9523SM   H8S12819   1.928   1.059   3.354  0.9158 -1.5581 -0.2089
   9523SM   H8T12820   1.960   1.230   3.321  0.0568  0.1835  0.6331
   9523SM   C9S12821   2.007   1.184   3.524  0.3753 -0.2223 -0.1426
   9523SM   H9S12822   2.077   1.119   3.581  1.0413  1.8575  1.5396
   9523SM   H9T12823   1.903   1.186   3.563  1.0190  1.0686  1.6378
   9523SM  C10S12824   2.076   1.325   3.544  0.1669 -0.4315  0.1319
   9523SM  H10S12825   2.033   1.401   3.475  0.2029 -0.8826 -0.3954
   9523SM  H10T12826   2.184   1.330   3.517  0.5875  0.8066  1.8550
   9523SM  C11S12827   2.057   1.383   3.685  0.4230 -0.1246 -0.0497
   9523SM  H11S12828   1.951   1.366   3.712 -0.6752  2.8482 -1.9244
   9523SM  H11T12829   2.063   1.494   3.688  0.4643 -0.1461  1.1328
   9523SM  C12S12830   2.132   1.316   3.804  0.2878  0.1622 -0.4616
   9523SM  H12S12831   2.242   1.314   3.785 -0.0275 -0.9289 -2.3816
   9523SM  H12T12832   2.100   1.211   3.821 -1.5713  1.1389  3.2822
   9523SM  C13S12833   2.100   1.381   3.943  0.7618 -1.0659 -0.4300
   9523SM  H13S12834   1.996   1.417   3.956  0.6559 -1.8108  1.0567
   9523SM  H13T12835   2.156   1.476   3.954  1.4237 -1.2985 -1.5817
   9523SM  C14S12836   2.134   1.294   4.062 -0.3871  0.7510 -0.2172
   9523SM  H14S12837   2.238   1.265   4.033 -0.9900 -2.1461  0.2127
   9523SM  H14T12838   2.073   1.201   4.073  0.3308  0.2630 -0.2565
   9523SM  C15S12839   2.140   1.377   4.202  0.3849  0.1907  0.2981
   9523SM  H15S12840   2.034   1.401   4.222 -0.2811 -1.2590 -1.2373
   9523SM  H15T12841   2.188   1.475   4.185  2.6729 -0.5370  1.9774
   9523SM  C16S12842   2.222   1.309   4.304 -0.6041 -0.1130 -0.4500
   9523SM  H16S12843   2.326   1.294   4.270 -0.1660 -1.9056  1.4745
   9523SM  H16T12844   2.181   1.206   4.316  1.6158 -0.9246  0.8525
   9523SM  C17S12845   2.223   1.375   4.442  0.0618  0.1056 -0.0859
   9523SM  H17S12846   2.265   1.478   4.434  3.2933 -0.9803  1.2510
   9523SM  H17T12847   2.294   1.315   4.503 -0.3836 -1.0743 -0.7000
   9523SM  C18S12848   2.086   1.368   4.513  0.0863  0.6375  0.3267
   9523SM  H18S12849   2.096   1.405   4.617 -0.1532 -3.1641  1.8561
   9523SM  H18T12850   2.049   1.265   4.532  1.8613  0.3975  3.0975
   9523SM  H18U12851   2.011   1.429   4.457 -0.6480  0.0286  0.6310
   9523SM   C1F12852   2.536   0.700   3.343 -0.0147  0.4935 -0.0435
   9523SM    OF12853   2.643   0.748   3.380 -0.6440  0.1428 -0.1638
   9523SM   C2F12854   2.462   0.616   3.439  0.3992  0.3557  0.5544
   9523SM   H2F12855   2.436   0.518   3.394 -0.4537  0.6008  0.5021
   9523SM   H2G12856   2.366   0.665   3.463  0.0581  0.3890 -0.8089
   9523SM   C3F12857   2.530   0.589   3.569  0.4604 -0.6958 -0.0698
   9523SM   H3F12858   2.569   0.686   3.609 -0.8074 -0.8692  1.7247
   9523SM   H3G12859   2.618   0.524   3.549  0.1918 -1.0733 -0.0173
   9523SM   C4F12860   2.438   0.533   3.685 -0.5564 -0.4982  0.3496
   9523SM   H4F12861   2.386   0.440   3.653  1.0399 -0.6612 -2.0632
   9523SM   H4G12862   2.353   0.604   3.691 -1.0818 -0.8182 -2.2633
   9523SM   C5F12863   2.505   0.543   3.823  0.1883  0.5191 -0.3939
   9523SM   H5F12864   2.520   0.650   3.849  1.5988  0.7303 -1.8919
   9523SM   H5G12865   2.595   0.478   3.829 -0.9132 -1.3161 -2.3150
   9523SM   C6F12866   2.407   0.487   3.926  0.1937  1.1931  0.1375
   9523SM   H6F12867   2.390   0.379   3.905 -1.4018  1.4454  0.0393
   9523SM   H6G12868   2.310   0.530   3.894 -0.7365 -1.6232 -1.1939
   9523SM   C7F12869   2.436   0.528   4.069 -1.2568 -0.1320  0.3388
   9523SM   H7F12870   2.460   0.636   4.065  1.2387 -0.6135  0.9704
   9523SM   H7G12871   2.536   0.488   4.094 -0.3985  1.6943 -0.0376
   9523SM   C8F12872   2.339   0.476   4.172 -0.5618  0.5950 -0.0541
   9523SM   H8F12873   2.331   0.366   4.157  0.3254  0.3798  0.9859
   9523SM   H8G12874   2.240   0.524   4.154 -1.4349 -1.4263 -0.9624
   9523SM   C9F12875   2.372   0.506   4.326  0.8755 -0.0730 -0.0190
   9523SM   H9F12876   2.389   0.409   4.376 -0.7995 -0.6586 -0.5400
   9523SM   H9G12877   2.278   0.543   4.372  1.3648  1.7256 -0.3680
   9523SM  C10F12878   2.482   0.609   4.349  0.0341  0.1986  0.1464
   9523SM  H10F12879   2.462   0.717   4.333  3.2738  1.2525  2.2586
   9523SM  H10G12880   2.560   0.594   4.272 -1.2171 -1.3615 -0.8657
   9523SM  C11F12881   2.543   0.591   4.486 -0.1761 -0.0192  0.2644
   9523SM  H11F12882   2.640   0.644   4.497  0.2810 -0.9768  0.9696
   9523SM  H11G12883   2.571   0.485   4.502  1.5940  0.5637  1.2452
   9523SM  C12F12884   2.445   0.637   4.597 -0.1130  0.4856  0.4073
   9523SM  H12F12885   2.377   0.552   4.616  0.4647 -0.2445 -0.6828
   9523SM  H12G12886   2.384   0.724   4.562  0.3750  1.2279  1.3686
   9523SM  C13F12887   2.521   0.676   4.720  0.0186  0.0059 -0.2720
   9523SM  H13F12888   2.570   0.774   4.707  1.2414 -0.4617  0.6268
   9523SM  H13G12889   2.597   0.597   4.739 -0.6475 -0.6688 -0.3796
   9523SM  C14F12890   2.430   0.673   4.846  0.2294 -0.2168  0.7440
   9523SM  H14F12891   2.366   0.582   4.855  0.6115 -0.4409  1.2290
   9523SM  H14G12892   2.365   0.763   4.843 -0.0318 -0.4295 -0.3425
   9523SM  C15F12893   2.522   0.698   4.973 -0.0080  0.3000 -0.0990
   9523SM  H15F12894   2.588   0.782   4.942  0.4793 -0.3477 -0.8537
   9523SM  H15G12895   2.581   0.606   4.991  1.6497  1.3211 -0.0468
   9523SM  C16F12896   2.430   0.737   5.092  0.0509  0.2059  0.9446
   9523SM  H16F12897   2.342   0.670   5.082 -1.7351  2.5508 -0.2202
   9523SM  H16G12898   2.384   0.834   5.066  1.8693  0.5532 -1.3660
   9523SM  C17F12899   2.502   0.751   5.230 -0.3099 -0.4672 -0.5484
   9523SM  H17F12900   2.430   0.757   5.315  1.4444  1.0139  0.9162
   9523SM  H17G12901   2.558   0.846   5.235 -1.9129  0.4829  0.8414
   9523SM  C18F12902   2.595   0.633   5.256 -0.4664 -0.0481 -0.1766
   9523SM  H18F12903   2.676   0.650   5.182  0.1811  0.9192  0.7267
   9523SM  H18G12904   2.544   0.538   5.229 -0.0497 -0.3196 -0.0313
   9523SM  C19F12905   2.639   0.638   5.406  0.1462 -0.0483  0.4069
   9523SM  H19F12906   2.632   0.746   5.433  0.9799  0.0421  0.3103
   9523SM  H19G12907   2.745   0.607   5.420 -0.3342 -0.8765  2.5935
   9523SM  C20F12908   2.561   0.535   5.487 -0.1165 -0.1750 -0.0108
   9523SM  H20F12909   2.594   0.433   5.457  3.0911  0.7614 -0.0395
   9523SM  H20G12910   2.451   0.541   5.470 -0.0669  0.1751 -0.2380
   9523SM  C21F12911   2.586   0.559   5.640 -0.1878  0.1488 -0.3203
   9523SM  H21F12912   2.696   0.564   5.649  0.0050 -0.6142 -1.8889
   9523SM  H21G12913   2.558   0.468   5.696  0.0445 -1.0613 -2.0962
   9523SM  C22F12914   2.507   0.676   5.688  0.6130 -0.4971  0.0877
   9523SM  H22F12915   2.397   0.667   5.687  0.3679  1.6416 -2.2356
   9523SM  H22G12916   2.531   0.756   5.615  1.7539 -1.5883 -0.7627
   9523SM  C23F12917   2.544   0.724   5.834  0.3359  0.6190 -0.4211
   9523SM  H23F12918   2.655   0.723   5.843  0.2404  1.5811  1.1677
   9523SM  H23G12919   2.507   0.657   5.914  1.4633  0.4825  0.0003
   9523SM  H23H12920   2.510   0.826   5.859  1.5422  1.1568 -0.9112
   9623SM     N12921   1.841   0.791   2.579  0.2232  0.6575 -0.3950
   9623SM   C1512922   1.893   0.647   2.585 -0.2199  0.1411 -0.5160
   9623SM  H15A12923   1.955   0.645   2.673  0.6917  4.3041 -0.8569
   9623SM  H15B12924   1.955   0.621   2.500 -0.8685 -0.3740 -0.8397
   9623SM  H15C12925   1.807   0.583   2.594 -0.3375 -0.2493 -3.3744
   9623SM   C1412926   1.933   0.872   2.506  0.3340 -0.5566  0.4534
   9623SM  H14A12927   1.969   0.819   2.419 -1.8305 -1.1948 -0.1306
   9623SM  H14B12928   2.016   0.916   2.559 -0.9422  1.1233  1.1149
   9623SM  H14C12929   1.884   0.963   2.477 -0.1168 -0.6712  0.8350
   9623SM   C1312930   1.710   0.790   2.500  0.0216 -0.3387  0.2043
   9623SM  H13A12931   1.672   0.889   2.479 -2.1186 -1.3448 -0.9556
   9623SM  H13B12932   1.627   0.749   2.554 -1.2309  0.1061 -1.3005
   9623SM  H13C12933   1.719   0.745   2.402  2.4328  0.4280  0.0040
   9623SM   C1212934   1.814   0.843   2.716 -0.0733  0.1939 -0.0980
   9623SM  H12A12935   1.763   0.938   2.704  0.0966  0.4146  0.8294
   9623SM  H12B12936   1.910   0.871   2.757 -0.2528  0.1515  0.3484
   9623SM   C1112937   1.749   0.745   2.820  0.2369  0.2555  1.2864
   9623SM  H11A12938   1.765   0.807   2.912 -0.7837  2.6461 -0.0607
   9623SM  H11B12939   1.801   0.647   2.829 -2.0318 -1.2237 -0.6896
   9623SM     P12940   1.488   0.782   2.842  0.3670  0.0067 -0.1585
   9623SM   O1312941   1.488   0.922   2.805  0.8031  0.0317  0.0753
   9623SM   O1412942   1.373   0.700   2.804  0.4490 -0.0712  0.3543
   9623SM   O1112943   1.505   0.778   2.997  0.0231  0.0821  0.0890
   9623SM   O1212944   1.615   0.714   2.788 -0.2205  0.5821  0.4422
   9623SM   C1S12945   1.473   0.669   3.083  0.4934  0.2997 -0.2566
   9623SM   H1S12946   1.403   0.602   3.027 -0.5284  2.2198 -1.4028
   9623SM   H1T12947   1.429   0.711   3.176  0.8647  0.0196  0.0480
   9623SM    NF12948   1.574   0.451   3.175  0.2908 -0.1830  0.6549
   9623SM   HNF12949   1.591   0.426   3.270  2.1367 -2.1363 -0.1033
   9623SM   C2S12950   1.596   0.591   3.130 -0.2880  0.0460  0.4688
   9623SM   H2S12951   1.660   0.576   3.040 -1.7653  0.0930 -0.6416
   9623SM   C3S12952   1.670   0.681   3.235  0.1384 -0.0095  0.2138
   9623SM   H3S12953   1.594   0.702   3.313  1.9617  1.5635  1.6418
   9623SM    O312954   1.700   0.816   3.194 -0.4242  0.2697  0.2215
   9623SM   HO312955   1.644   0.830   3.117  1.1078 -1.2904 -1.2915
   9623SM   C4S12956   1.798   0.616   3.283 -0.2178 -0.3669  0.4712
   9623SM   H4S12957   1.864   0.585   3.201 -1.5854  1.4220 -1.4317
   9623SM   C5S12958   1.828   0.598   3.414 -0.0562  0.0100 -0.6753
   9623SM   H5S12959   1.758   0.634   3.491  3.0809  2.1294  1.4014
   9623SM   C6S12960   1.950   0.534   3.469 -0.5624  0.1873  0.0221
   9623SM   H6S12961   2.005   0.485   3.386 -0.2852  0.0311  0.2929
   9623SM   H6T12962   1.916   0.450   3.535 -0.0371 -0.6623 -0.7648
   9623SM   C7S12963   2.057   0.620   3.536 -0.6469  0.0221 -0.0101
   9623SM   H7S12964   2.087   0.692   3.457 -3.1773  2.3834  0.9951
   9623SM   H7T12965   2.149   0.563   3.563 -0.0153  0.6392 -0.8103
   9623SM   C8S12966   2.004   0.699   3.660 -0.3607 -0.2201  0.1959
   9623SM   H8S12967   1.899   0.729   3.643  0.2672  2.3118  0.4758
   9623SM   H8T12968   2.054   0.797   3.672 -1.8294  0.4582  1.0238
   9623SM   C9S12969   2.026   0.627   3.793  0.4055 -0.1262  0.0490
   9623SM   H9S12970   2.134   0.626   3.819  0.5114 -1.3627 -0.3377
   9623SM   H9T12971   1.972   0.530   3.780  0.4397  0.0487 -1.7184
   9623SM  C10S12972   1.941   0.694   3.905 -0.0549  1.0498  0.1810
   9623SM  H10S12973   1.843   0.716   3.858 -0.4406  0.5848  0.7551
   9623SM  H10T12974   1.979   0.795   3.934  3.1301 -0.0097  0.1187
   9623SM  C11S12975   1.921   0.603   4.025 -0.3995  0.2864 -0.5097
   9623SM  H11S12976   2.020   0.576   4.067 -0.5329  2.0367  1.0771
   9623SM  H11T12977   1.865   0.519   3.979 -1.9827  1.3715 -0.6816
   9623SM  C12S12978   1.833   0.669   4.118  0.6828 -0.3717 -0.8012
   9623SM  H12S12979   1.736   0.677   4.064 -0.3055 -1.5992  0.7118
   9623SM  H12T12980   1.868   0.769   4.149 -0.9090 -0.3502  1.1160
   9623SM  C13S12981   1.818   0.579   4.243  0.1717  0.1161 -0.5959
   9623SM  H13S12982   1.912   0.581   4.302  0.2992  0.3081 -0.8036
   9623SM  H13T12983   1.818   0.472   4.212  1.4326 -0.0546 -0.0514
   9623SM  C14S12984   1.701   0.619   4.329 -0.1368  0.8394  0.1165
   9623SM  H14S12985   1.604   0.603   4.277 -0.7607 -1.7648  1.8361
   9623SM  H14T12986   1.707   0.725   4.360 -1.4731  0.9986 -0.1414
   9623SM  C15S12987   1.693   0.547   4.465 -0.1560  0.0366  0.0689
   9623SM  H15S12988   1.783   0.573   4.526 -1.8290  1.5871  2.0138
   9623SM  H15T12989   1.694   0.437   4.450 -0.6083  0.0809 -0.2907
   9623SM  C16S12990   1.579   0.588   4.560 -0.6355  0.5173  0.0577
   9623SM  H16S12991   1.483   0.548   4.520 -0.5392 -0.5022  0.8059
   9623SM  H16T12992   1.581   0.698   4.552 -0.8955  0.6317  1.3981
   9623SM  C17S12993   1.599   0.541   4.707  0.3207  0.1808  0.1671
   9623SM  H17S12994   1.508   0.574   4.762  0.3880 -0.2055  0.5160
   9623SM  H17T12995   1.684   0.604   4.742 -0.7160  1.7751 -0.0890
   9623SM  C18S12996   1.621   0.397   4.723  0.2343 -0.1346 -0.0576
   9623SM  H18S12997   1.721   0.361   4.688  0.4991  0.3546  0.1812
   9623SM  H18T12998   1.547   0.329   4.677  1.1193 -0.7088 -0.6767
   9623SM  H18U12999   1.619   0.370   4.831  2.1350  3.6268  1.1281
   9623SM   C1F13000   1.514   0.357   3.101  0.6801  0.3363 -0.8722
   9623SM    OF13001   1.504   0.376   2.981 -0.1066  0.1521 -0.7243
   9623SM   C2F13002   1.471   0.224   3.165  0.1418 -0.6901 -0.3116
   9623SM   H2F13003   1.368   0.239   3.205  0.5725  0.6266  0.3590
   9623SM   H2G13004   1.545   0.204   3.245  0.2002  0.1097 -0.1536
   9623SM   C3F13005   1.468   0.115   3.062 -0.3901 -0.6335 -0.0917
   9623SM   H3F13006   1.552   0.110   2.989 -1.4631 -1.2244 -1.3321
   9623SM   H3G13007   1.371   0.113   3.008 -0.2831 -1.2897 -0.2674
   9623SM   C4F13008   1.479  -0.022   3.132 -0.3087  0.0111  0.3827
   9623SM   H4F13009   1.571  -0.012   3.194  0.8186  4.7983 -1.6077
   9623SM   H4G13010   1.466  -0.104   3.058 -0.9524  1.5005 -1.2322
   9623SM   C5F13011   1.355  -0.048   3.217  0.6677  0.1580 -0.3251
   9623SM   H5F13012   1.268  -0.030   3.150  0.2654  2.3733  0.7049
   9623SM   H5G13013   1.344   0.020   3.303 -1.7425  1.9566 -1.9323
   9623SM   C6F13014   1.337  -0.199   3.267  0.0655  0.1754 -0.0862
   9623SM   H6F13015   1.417  -0.224   3.339 -0.4542 -0.5651  0.2447
   9623SM   H6G13016   1.336  -0.257   3.172 -0.0484  1.6242 -0.9938
   9623SM   C7F13017   1.207  -0.214   3.347 -0.1653 -0.1837 -0.7415
   9623SM   H7F13018   1.119  -0.193   3.283  0.6903 -1.3783 -2.4170
   9623SM   H7G13019   1.210  -0.138   3.428  0.8863 -0.0942 -0.8473
   9623SM   C8F13020   1.186  -0.360   3.401 -0.4483 -0.0646 -0.1982
   9623SM   H8F13021   1.237  -0.371   3.500 -0.5511  0.6309 -0.0622
   9623SM   H8G13022   1.225  -0.430   3.324 -1.0847 -1.5820  0.8120
   9623SM   C9F13023   1.037  -0.395   3.405 -0.3644 -0.7240 -0.8422
   9623SM   H9F13024   1.001  -0.379   3.301 -2.3356  1.8577  0.1210
   9623SM   H9G13025   0.985  -0.330   3.478  0.1916 -0.3615 -0.7576
   9623SM  C10F13026   1.007  -0.538   3.443  0.4126  0.0221 -0.3598
   9623SM  H10F13027   1.071  -0.593   3.371 -0.3718 -0.2399 -0.8606
   9623SM  H10G13028   0.902  -0.567   3.421  0.0331  1.0669  0.0239
   9623SM  C11F13029   1.055  -0.589   3.576  0.1302 -0.0131  0.8931
   9623SM  H11F13030   1.165  -0.585   3.591  0.3940  1.5977 -1.0754
   9623SM  H11G13031   1.031  -0.698   3.574  0.6867 -0.2043  2.6755
   9623SM  C12F13032   0.983  -0.527   3.688 -0.5997 -0.1780 -0.5264
   9623SM  H12F13033   0.872  -0.521   3.681 -0.6939  1.9623  1.5922
   9623SM  H12G13034   1.018  -0.422   3.692 -2.1516  0.3240  1.2750
   9623SM  C13F13035   1.030  -0.581   3.829  0.6659 -0.3667  0.0332
   9623SM  H13F13036   1.138  -0.554   3.826 -0.2904  4.1465 -0.9782
   9623SM  H13G13037   1.008  -0.690   3.833 -2.4328  0.2187  1.2348
   9623SM  C14F13038   0.972  -0.522   3.950 -0.2333  0.3195  0.3579
   9623SM  H14F13039   0.861  -0.532   3.953 -0.1851 -0.6531 -0.3990
   9623SM  H14G13040   0.988  -0.413   3.937 -0.1771  0.0099 -3.2189
   9623SM  C15F13041   1.038  -0.576   4.075  0.0188 -0.6850  0.2653
   9623SM  H15F13042   1.139  -0.532   4.090  0.5453 -2.0605  0.9254
   9623SM  H15G13043   1.059  -0.685   4.068  1.2322 -0.4668  0.2604
   9623SM  C16F13044   0.959  -0.522   4.196  0.7103 -0.2440  0.4978
   9623SM  H16F13045   0.852  -0.544   4.172  0.3757  1.6329  0.1053
   9623SM  H16G13046   0.968  -0.411   4.205 -3.3272  0.1488  2.0903
   9623SM  C17F13047   0.999  -0.571   4.340  0.3316 -0.1201  0.5637
   9623SM  H17F13048   0.953  -0.503   4.415  0.1849 -0.5942  0.9140
   9623SM  H17G13049   1.108  -0.552   4.351  0.4435  0.3839 -1.1824
   9623SM  C18F13050   0.964  -0.721   4.362 -0.1079 -0.3463 -0.2963
   9623SM  H18F13051   1.021  -0.788   4.293 -0.1170 -0.1702 -0.4761
   9623SM  H18G13052   0.856  -0.743   4.351 -0.4108  0.4976  0.9068
   9623SM  C19F13053   0.990  -0.757   4.507  0.7462  0.5790  0.7407
   9623SM  H19F13054   0.913  -0.703   4.566 -0.0200 -1.1124  1.3716
   9623SM  H19G13055   1.085  -0.720   4.551  1.2223 -0.1651  0.3631
   9623SM  C20F13056   0.990  -0.913   4.524 -0.3157  0.4765 -0.0266
   9623SM  H20F13057   1.079  -0.954   4.470 -0.4404  0.0891  0.0566
   9623SM  H20G13058   0.898  -0.956   4.479 -1.7300  2.0494  1.2479
   9623SM  C21F13059   1.000  -0.967   4.666 -0.4068 -0.6288 -0.4496
   9623SM  H21F13060   1.087  -0.919   4.717 -0.7281  0.0602 -0.5366
   9623SM  H21G13061   1.032  -1.073   4.664  1.2003 -0.3813  3.4894
   9623SM  C22F13062   0.875  -0.950   4.751  0.0270 -1.0782  0.3128
   9623SM  H22F13063   0.861  -0.845   4.784  0.2516 -0.2652 -1.9505
   9623SM  H22G13064   0.906  -1.010   4.838  1.9373 -1.7955 -0.8105
   9623SM  C23F13065   0.759  -1.003   4.685  0.5094  0.0262  0.3478
   9623SM  H23F13066   0.721  -0.935   4.606  1.4042  2.6503  2.0397
   9623SM  H23G13067   0.676  -1.040   4.750  2.0447 -2.2037  1.1865
   9623SM  H23H13068   0.785  -1.097   4.632 -1.0256 -0.4071  0.3161
   9723SM     N13069   3.628   1.497   2.683  0.0515 -0.0123  0.3311
   9723SM   C1513070   3.488   1.510   2.642  0.5355 -0.0090  0.4506
   9723SM  H15A13071   3.471   1.601   2.585  1.8780  0.3820  0.6210
   9723SM  H15B13072   3.422   1.513   2.727  0.1494 -0.6774  0.1800
   9723SM  H15C13073   3.455   1.423   2.588  2.2733 -0.8629  0.7060
   9723SM   C1413074   3.710   1.458   2.569 -0.1415  0.3763 -0.4323
   9723SM  H14A13075   3.816   1.450   2.590 -0.4945  1.5464  2.2042
   9723SM  H14B13076   3.697   1.519   2.481  0.2016 -0.6218 -1.1887
   9723SM  H14C13077   3.683   1.357   2.542  2.2523 -0.2585 -0.6814
   9723SM   C1313078   3.665   1.636   2.734 -0.0215  0.3462 -0.0273
   9723SM  H13A13079   3.673   1.710   2.656 -1.2121  0.6514  0.1227
   9723SM  H13B13080   3.764   1.636   2.777  1.2116 -0.1549 -2.6907
   9723SM  H13C13081   3.601   1.660   2.818  2.3306  0.5384  1.8336
   9723SM   C1213082   3.629   1.399   2.805 -0.3315 -0.1822 -0.0648
   9723SM  H12A13083   3.541   1.423   2.863  0.0562 -1.6082  1.1761
   9723SM  H12B13084   3.717   1.422   2.864 -0.9904 -0.5585  1.0889
   9723SM   C1113085   3.621   1.251   2.775 -0.4438  0.2799  0.3175
   9723SM  H11A13086   3.613   1.192   2.868  0.0031  1.1130  0.8924
   9723SM  H11B13087   3.728   1.231   2.755  0.6758  4.1240  1.6192
   9723SM     P13088   3.391   1.144   2.709 -0.1573 -0.1294 -0.3396
   9723SM   O1313089   3.287   1.173   2.605 -0.1374 -0.0502  0.3547
   9723SM   O1413090   3.407   0.997   2.748  0.5559 -0.6743  0.0896
   9723SM   O1113091   3.348   1.231   2.834  0.0760 -0.3398 -0.3657
   9723SM   O1213092   3.531   1.205   2.669 -0.4609  0.0438 -0.0488
   9723SM   C1S13093   3.218   1.221   2.897 -0.5255 -0.1101  0.1118
   9723SM   H1S13094   3.193   1.113   2.906  0.3843 -0.4227 -0.9400
   9723SM   H1T13095   3.139   1.274   2.839 -0.6663 -0.5545 -0.1054
   9723SM    NF13096   3.089   1.229   3.100 -0.2116  0.2740 -0.3395
   9723SM   HNF13097   3.039   1.303   3.145  2.3275  0.1168  3.1536
   9723SM   C2S13098   3.215   1.272   3.044 -0.3328 -0.1350  0.2896
   9723SM   H2S13099   3.302   1.214   3.082  0.0147 -1.0232 -1.7125
   9723SM   C3S13100   3.237   1.419   3.069  0.0466 -0.5223  0.3443
   9723SM   H3S13101   3.144   1.475   3.047  0.5824  0.9154  1.5402
   9723SM    O313102   3.334   1.465   2.968  0.1355  0.2005 -1.1501
   9723SM   HO313103   3.331   1.391   2.907  1.0118 -2.1824  1.4931
   9723SM   C4S13104   3.278   1.454   3.211 -0.2080 -0.4892 -0.0073
   9723SM   H4S13105   3.380   1.428   3.246  0.2649  0.4203 -0.6698
   9723SM   C5S13106   3.217   1.542   3.301  0.0521  0.2099  0.1706
   9723SM   H5S13107   3.141   1.610   3.259  0.6299  0.2435 -0.8479
   9723SM   C6S13108   3.277   1.590   3.431 -0.1924  0.1678 -0.0321
   9723SM   H6S13109   3.254   1.528   3.521  1.0078  0.2320  0.3303
   9723SM   H6T13110   3.222   1.686   3.444  1.4473  1.0626  0.6810
   9723SM   C7S13111   3.426   1.627   3.435  0.3579 -0.3921  0.9425
   9723SM   H7S13112   3.442   1.682   3.340  0.7493 -1.2640  0.4984
   9723SM   H7T13113   3.489   1.539   3.409 -0.5670 -0.3976 -1.5677
   9723SM   C8S13114   3.485   1.685   3.564  0.4072 -0.1456 -0.3868
   9723SM   H8S13115   3.415   1.761   3.605  0.4288  0.7036 -1.8589
   9723SM   H8T13116   3.585   1.725   3.539  0.4119 -0.1373 -0.3543
   9723SM   C9S13117   3.499   1.573   3.673  0.6216 -0.0525  0.6040
   9723SM   H9S13118   3.545   1.483   3.627  0.9597  1.0147 -1.2783
   9723SM   H9T13119   3.398   1.537   3.703  0.3275 -0.2125 -0.5025
   9723SM  C10S13120   3.596   1.608   3.782 -0.6098 -0.5711 -0.5155
   9723SM  H10S13121   3.557   1.692   3.843  0.2853 -0.8302  0.4483
   9723SM  H10T13122   3.691   1.634   3.730  0.0141 -1.2023  0.2704
   9723SM  C11S13123   3.629   1.495   3.881  0.1041  0.0328 -0.4984
   9723SM  H11S13124   3.739   1.494   3.900 -0.0038  0.0304  0.1587
   9723SM  H11T13125   3.606   1.396   3.836 -2.0860 -0.8780  2.3255
   9723SM  C12S13126   3.553   1.507   4.023 -0.1840 -0.5046  0.3839
   9723SM  H12S13127   3.448   1.484   3.995 -0.0943 -0.4014 -0.0457
   9723SM  H12T13128   3.564   1.613   4.055 -0.8014 -0.0568 -0.7873
   9723SM  C13S13129   3.605   1.414   4.138 -0.0765  0.3256  0.6372
   9723SM  H13S13130   3.715   1.430   4.130 -0.4004  1.8463 -1.7871
   9723SM  H13T13131   3.576   1.308   4.120 -0.5230  0.5228  0.1740
   9723SM  C14S13132   3.568   1.465   4.277  0.2417 -0.2025 -0.2011
   9723SM  H14S13133   3.458   1.466   4.286  0.3731 -0.4570  2.4529
   9723SM  H14T13134   3.606   1.568   4.295  1.6974 -0.3813 -1.9636
   9723SM  C15S13135   3.628   1.371   4.373  0.2836 -0.3805 -1.3130
   9723SM  H15S13136   3.737   1.391   4.369 -0.0243  1.3194 -2.0768
   9723SM  H15T13137   3.616   1.271   4.327  0.6857 -0.8762 -0.3803
   9723SM  C16S13138   3.561   1.391   4.511  0.1414 -0.1392  0.2714
   9723SM  H16S13139   3.452   1.384   4.488  0.4037 -1.8809 -0.6970
   9723SM  H16T13140   3.591   1.487   4.557  2.1526 -1.1500  1.2116
   9723SM  C17S13141   3.603   1.281   4.610  0.0011  0.0397 -0.6696
   9723SM  H17S13142   3.711   1.288   4.634  0.1463 -0.5527 -1.1225
   9723SM  H17T13143   3.583   1.187   4.555 -0.3118  0.0458 -0.5695
   9723SM  C18S13144   3.513   1.279   4.737 -0.4763 -0.0787  0.6052
   9723SM  H18S13145   3.543   1.357   4.810  0.8656  0.9698 -0.9863
   9723SM  H18T13146   3.519   1.180   4.786 -4.1391 -0.3478  0.8323
   9723SM  H18U13147   3.406   1.295   4.711 -1.1812 -2.4289  1.8633
   9723SM   C1F13148   3.050   1.100   3.125 -0.5680 -0.1649  0.0009
   9723SM    OF13149   3.128   1.009   3.125 -0.0812  0.0836 -0.4282
   9723SM   C2F13150   2.910   1.070   3.167  0.4298  0.5311  0.1477
   9723SM   H2F13151   2.877   0.977   3.116 -3.2519  1.5039  0.4779
   9723SM   H2G13152   2.843   1.155   3.142 -0.0433  0.5631  1.4789
   9723SM   C3F13153   2.893   1.032   3.314  0.1645  0.2009 -0.5483
   9723SM   H3F13154   2.797   0.977   3.323  0.6260 -0.7884 -1.3438
   9723SM   H3G13155   2.888   1.124   3.375 -3.3126  0.6246 -1.2364
   9723SM   C4F13156   2.991   0.927   3.366 -0.1533  0.1063 -0.4006
   9723SM   H4F13157   3.097   0.958   3.375  0.8465 -3.1441 -0.0476
   9723SM   H4G13158   2.993   0.835   3.305  0.3110 -0.9107  1.1068
   9723SM   C5F13159   2.946   0.899   3.514 -0.5054 -0.5861  0.4321
   9723SM   H5F13160   2.836   0.889   3.518 -0.4957 -0.4164  1.2668
   9723SM   H5G13161   2.980   0.986   3.573  0.3305  0.9856 -2.1649
   9723SM   C6F13162   2.995   0.756   3.559  0.1153 -0.0461  0.3171
   9723SM   H6F13163   3.106   0.762   3.552  0.0364 -0.2341 -1.9829
   9723SM   H6G13164   2.970   0.673   3.490  1.2248  1.6598 -2.3084
   9723SM   C7F13165   2.966   0.726   3.708 -0.1026  0.2420 -0.2070
   9723SM   H7F13166   3.025   0.797   3.770  4.1077 -0.8857 -2.5956
   9723SM   H7G13167   3.013   0.630   3.738  0.0640  1.0793  2.5663
   9723SM   C8F13168   2.814   0.722   3.747 -0.8176  0.4821  0.5227
   9723SM   H8F13169   2.753   0.649   3.691 -0.0425  1.1038 -1.2086
   9723SM   H8G13170   2.769   0.822   3.730 -0.1066  0.4698 -1.8413
   9723SM   C9F13171   2.793   0.689   3.895 -0.2528 -0.4545 -0.8860
   9723SM   H9F13172   2.796   0.580   3.913 -2.8982 -0.7145 -1.6274
   9723SM   H9G13173   2.689   0.721   3.919  0.0701 -1.9069  3.2389
   9723SM  C10F13174   2.872   0.768   4.005 -0.2230  0.6422  0.0799
   9723SM  H10F13175   2.854   0.877   3.994  0.1431  0.5668 -1.4396
   9723SM  H10G13176   2.980   0.743   3.999 -0.4310 -0.6860  1.2092
   9723SM  C11F13177   2.827   0.719   4.138 -0.0098  0.1553 -0.0653
   9723SM  H11F13178   2.859   0.612   4.143  1.3403  0.5449 -0.0314
   9723SM  H11G13179   2.716   0.714   4.127  0.0298  0.1287 -0.5037
   9723SM  C12F13180   2.870   0.790   4.265  0.2306  0.7411  0.0467
   9723SM  H12F13181   2.980   0.808   4.274  0.4299 -0.4169  0.1477
   9723SM  H12G13182   2.837   0.741   4.359  1.4134  0.3655  0.2912
   9723SM  C13F13183   2.814   0.935   4.285 -0.0657  0.1719 -0.6502
   9723SM  H13F13184   2.708   0.941   4.252 -1.1503 -1.7356  2.0870
   9723SM  H13G13185   2.876   0.995   4.215  1.4401  0.9604  1.2939
   9723SM  C14F13186   2.826   0.992   4.427 -0.8986 -0.5602 -0.1799
   9723SM  H14F13187   2.839   1.102   4.423 -2.4098 -0.4059 -1.6314
   9723SM  H14G13188   2.909   0.946   4.486 -0.7790  0.9500  0.8722
   9723SM  C15F13189   2.709   0.983   4.525  0.0675  1.2473  1.0640
   9723SM  H15F13190   2.739   1.030   4.621  0.3799  2.4404  0.4120
   9723SM  H15G13191   2.691   0.874   4.526  1.3836  0.9784 -0.2950
   9723SM  C16F13192   2.582   1.047   4.473  0.6258 -0.2467 -0.4243
   9723SM  H16F13193   2.541   1.001   4.380  0.0904 -0.7322  0.0479
   9723SM  H16G13194   2.595   1.157   4.459  1.0971 -0.2378  0.0428
   9723SM  C17F13195   2.469   1.035   4.587 -0.1187 -0.0819  0.4148
   9723SM  H17F13196   2.454   0.927   4.608  0.8362 -0.5890 -1.2998
   9723SM  H17G13197   2.377   1.069   4.535 -0.1758  0.2329  0.7186
   9723SM  C18F13198   2.496   1.105   4.722  0.8466 -1.0057 -0.2618
   9723SM  H18F13199   2.531   1.210   4.712 -0.7549 -0.6256 -2.4619
   9723SM  H18G13200   2.581   1.061   4.779  0.4793  2.1860  3.1834
   9723SM  C19F13201   2.367   1.106   4.810 -0.6872  0.6611 -0.6104
   9723SM  H19F13202   2.403   1.144   4.909  0.0327  0.7112 -0.8818
   9723SM  H19G13203   2.332   1.003   4.828 -0.4963  0.4267 -1.5282
   9723SM  C20F13204   2.269   1.210   4.765 -0.0740  0.3932  0.0055
   9723SM  H20F13205   2.214   1.173   4.675 -1.1740 -1.3338  1.3199
   9723SM  H20G13206   2.308   1.305   4.724 -2.8484  0.9983 -1.5126
   9723SM  C21F13207   2.162   1.233   4.875  0.0226 -0.8045 -0.3299
   9723SM  H21F13208   2.097   1.317   4.844  0.8345 -0.6429 -1.6848
   9723SM  H21G13209   2.215   1.262   4.968 -0.6746 -1.3144  0.2397
   9723SM  C22F13210   2.071   1.114   4.897 -0.5546  0.5707 -0.5987
   9723SM  H22F13211   2.147   1.035   4.914  0.0316  1.6758  2.7718
   9723SM  H22G13212   2.008   1.095   4.808 -0.0937 -0.0662 -0.7909
   9723SM  C23F13213   1.986   1.118   5.024  0.4920  0.3021 -0.0962
   9723SM  H23F13214   1.921   1.208   5.022 -0.4147 -0.3158  0.5410
   9723SM  H23G13215   2.038   1.127   5.122 -0.3846  0.9130  0.3347
   9723SM  H23H13216   1.923   1.026   5.024  0.2718  0.3470  2.6616
   9823SM     N13217   6.222   1.229   3.041  0.3787 -0.4021  0.0319
   9823SM   C1513218   6.111   1.123   3.067  0.0028  0.5726  0.4849
   9823SM  H15A13219   6.029   1.149   3.001 -0.0707 -0.7368  0.0322
   9823SM  H15B13220   6.076   1.128   3.169 -0.1571  1.5766  0.3932
   9823SM  H15C13221   6.145   1.023   3.047 -0.1118  0.4411  0.9187
   9823SM   C1413222   6.231   1.237   2.888  0.5431 -0.5798 -0.4282
   9823SM  H14A13223   6.145   1.286   2.844  0.3101 -0.8534 -0.2767
   9823SM  H14B13224   6.230   1.137   2.847  0.2308 -1.0089  0.6126
   9823SM  H14C13225   6.317   1.291   2.849  0.3207  1.2127  1.3879
   9823SM   C1313226   6.179   1.359   3.107 -0.8390 -0.3130 -0.3101
   9823SM  H13A13227   6.151   1.339   3.210 -1.7676  1.6878 -0.1099
   9823SM  H13B13228   6.095   1.400   3.053 -0.0109  0.7260 -0.8341
   9823SM  H13C13229   6.263   1.425   3.095 -0.4084 -1.0602 -1.5437
   9823SM   C1213230   6.348   1.183   3.109  0.2768 -0.7346  0.3979
   9823SM  H12A13231   6.331   1.168   3.215 -1.7001  2.3565  0.6527
   9823SM  H12B13232   6.419   1.264   3.105  0.6466 -1.0794 -0.0922
   9823SM   C1113233   6.408   1.060   3.042  1.1379  0.5243 -0.3068
   9823SM  H11A13234   6.507   1.047   3.090  0.7913  1.1769  0.6148
   9823SM  H11B13235   6.434   1.079   2.936  1.4020  0.4800 -0.2503
   9823SM     P13236   6.381   0.793   3.077 -0.1285 -0.0108  0.1662
   9823SM   O1313237   6.270   0.691   3.061 -0.9460  0.3995  0.0180
   9823SM   O1413238   6.498   0.781   2.984  0.1486 -0.4720  0.9512
   9823SM   O1113239   6.425   0.802   3.231  0.4116 -0.1524 -0.2737
   9823SM   O1213240   6.325   0.940   3.055  0.0608  0.4342  0.2439
   9823SM   C1S13241   6.547   0.847   3.275 -0.7355  0.2189 -0.4534
   9823SM   H1S13242   6.610   0.900   3.201  0.2013 -1.3923 -0.8660
   9823SM   H1T13243   6.595   0.751   3.305 -0.9358  0.4604  0.6905
   9823SM    NF13244   6.661   0.998   3.444  0.0781  0.3430 -0.2517
   9823SM   HNF13245   6.740   0.951   3.481  0.4923  1.5544  0.4537
   9823SM   C2S13246   6.536   0.930   3.410 -0.0843  0.6003 -0.3389
   9823SM   H2S13247   6.460   1.006   3.384 -1.1141 -0.7368 -1.3907
   9823SM   C3S13248   6.491   0.833   3.522  0.0600 -0.2910  0.4929
   9823SM   H3S13249   6.560   0.748   3.537  1.4247  0.4607 -1.1668
   9823SM    O313250   6.365   0.772   3.492  0.4655  0.0887  0.6138
   9823SM   HO313251   6.361   0.773   3.396  0.9413 -1.7740  0.5477
   9823SM   C4S13252   6.488   0.913   3.649  0.0792  0.6270  0.5233
   9823SM   H4S13253   6.452   1.015   3.629 -1.5475 -0.1785 -0.9218
   9823SM   C5S13254   6.528   0.875   3.774  0.0708 -0.5282 -0.0374
   9823SM   H5S13255   6.580   0.780   3.791  1.5159  0.0791 -0.8542
   9823SM   C6S13256   6.521   0.968   3.891 -0.4272 -0.5135  0.1345
   9823SM   H6S13257   6.466   0.919   3.975  1.1283  0.3997  1.7595
   9823SM   H6T13258   6.475   1.062   3.856 -0.1894 -0.4944 -0.1289
   9823SM   C7S13259   6.654   1.019   3.943  0.2824 -0.6778 -0.3998
   9823SM   H7S13260   6.631   1.115   3.994  1.4291  0.3912 -1.7829
   9823SM   H7T13261   6.717   1.055   3.859 -0.4203  1.2990 -0.1375
   9823SM   C8S13262   6.723   0.912   4.026  0.3217  0.0593  0.5857
   9823SM   H8S13263   6.795   0.866   3.955  0.7598  2.7117 -0.8161
   9823SM   H8T13264   6.640   0.844   4.056  0.0536 -0.2362 -0.7579
   9823SM   C9S13265   6.802   0.945   4.148  0.7360 -0.5799 -0.2918
   9823SM   H9S13266   6.884   1.012   4.113 -1.2204  2.3204  0.3054
   9823SM   H9T13267   6.848   0.858   4.199  0.3839  0.8496  2.6862
   9823SM  C10S13268   6.720   1.011   4.256 -0.0158 -0.5960  0.5865
   9823SM  H10S13269   6.636   0.948   4.290 -1.2615 -0.0008 -1.2664
   9823SM  H10T13270   6.681   1.106   4.214  2.2585  0.5208  0.8328
   9823SM  C11S13271   6.797   1.069   4.373 -0.7399 -0.2872  0.8747
   9823SM  H11S13272   6.872   1.148   4.352 -1.4918  0.4937  1.0506
   9823SM  H11T13273   6.856   0.983   4.411  1.3097  1.4663  1.8404
   9823SM  C12S13274   6.709   1.119   4.486 -0.0371 -0.1406 -0.1722
   9823SM  H12S13275   6.768   1.140   4.578 -0.6694  1.0471 -0.0111
   9823SM  H12T13276   6.641   1.034   4.508  0.6468 -1.6330 -3.3307
   9823SM  C13S13277   6.634   1.246   4.445  0.2358 -0.5286 -0.0554
   9823SM  H13S13278   6.575   1.293   4.526 -1.1667 -1.0423 -0.7497
   9823SM  H13T13279   6.559   1.223   4.366  1.0117 -2.1746 -0.3776
   9823SM  C14S13280   6.722   1.367   4.398  0.4240  0.2706 -0.9045
   9823SM  H14S13281   6.790   1.335   4.316  1.3317  0.6321 -0.3037
   9823SM  H14T13282   6.790   1.404   4.478 -0.5167  0.1660 -0.0392
   9823SM  C15S13283   6.629   1.473   4.337 -0.2991  0.1646  0.3609
   9823SM  H15S13284   6.529   1.485   4.382 -0.8333  0.8269 -0.9585
   9823SM  H15T13285   6.610   1.447   4.231  1.8135 -1.1681  0.2292
   9823SM  C16S13286   6.697   1.609   4.344 -0.3051  0.1687 -0.1182
   9823SM  H16S13287   6.797   1.612   4.295 -0.1964 -2.9019 -0.2709
   9823SM  H16T13288   6.716   1.620   4.453  1.4257  0.7040 -0.4440
   9823SM  C17S13289   6.612   1.737   4.307 -0.1399 -0.2092  0.4144
   9823SM  H17S13290   6.508   1.725   4.343 -0.8254  0.2207 -1.3264
   9823SM  H17T13291   6.593   1.745   4.198 -1.7229  0.3831  0.7052
   9823SM  C18S13292   6.678   1.871   4.353 -0.3829  0.0256 -1.1853
   9823SM  H18S13293   6.703   1.861   4.461  0.8873  0.6255 -1.4095
   9823SM  H18T13294   6.629   1.968   4.334 -0.9487  0.2250  1.0548
   9823SM  H18U13295   6.771   1.875   4.292  0.3115 -0.6319 -0.1982
   9823SM   C1F13296   6.695   1.116   3.387 -0.5458 -0.8107  0.5589
   9823SM    OF13297   6.623   1.180   3.309  0.4183  0.1542 -0.7904
   9823SM   C2F13298   6.835   1.155   3.408 -0.1266 -0.1750 -0.0148
   9823SM   H2F13299   6.839   1.253   3.461  1.5070  0.4756 -1.2449
   9823SM   H2G13300   6.871   1.181   3.306 -0.5082 -0.0132 -0.1089
   9823SM   C3F13301   6.925   1.053   3.473  0.1329 -0.4031 -0.2008
   9823SM   H3F13302   6.934   0.960   3.414 -1.7166 -0.9467  0.2984
   9823SM   H3G13303   6.896   1.016   3.574 -0.9733 -0.6231 -0.5882
   9823SM   C4F13304   7.068   1.115   3.468  0.5280 -0.2600  0.5723
   9823SM   H4F13305   7.085   1.162   3.369 -1.2665  0.6417  0.6639
   9823SM   H4G13306   7.143   1.034   3.481  0.1576 -0.4989  1.2845
   9823SM   C5F13307   7.098   1.228   3.577 -0.2071  0.6245  0.2605
   9823SM   H5F13308   7.093   1.191   3.682  1.2941  1.0897  0.5255
   9823SM   H5G13309   7.029   1.314   3.568  1.1229  1.5961 -1.1984
   9823SM   C6F13310   7.237   1.298   3.557 -0.4624  0.4650 -0.7086
   9823SM   H6F13311   7.230   1.382   3.485  0.4608  0.9003 -0.3065
   9823SM   H6G13312   7.306   1.226   3.507 -2.4545 -1.8602 -0.2764
   9823SM   C7F13313   7.296   1.338   3.702 -1.0809 -0.3033  0.8236
   9823SM   H7F13314   7.328   1.246   3.755  2.5326  0.2227 -0.1809
   9823SM   H7G13315   7.222   1.397   3.761 -0.5783  1.1607  0.0489
   9823SM   C8F13316   7.424   1.417   3.684 -0.0953 -0.3346  0.6526
   9823SM   H8F13317   7.401   1.509   3.626  0.2180  0.5137  1.8254
   9823SM   H8G13318   7.501   1.358   3.631 -0.0754  0.3156 -0.0550
   9823SM   C9F13319   7.478   1.470   3.825  0.6232  0.2966 -0.1627
   9823SM   H9F13320   7.392   1.512   3.880 -1.3524  0.2170 -2.9874
   9823SM   H9G13321   7.559   1.545   3.811  0.4954  0.6066  0.6753
   9823SM  C10F13322   7.542   1.356   3.906  0.5213 -0.4206  0.7319
   9823SM  H10F13323   7.643   1.337   3.864  0.6989 -0.6470  1.2604
   9823SM  H10G13324   7.479   1.267   3.887 -1.3951  1.2839 -1.5203
   9823SM  C11F13325   7.551   1.389   4.061 -0.0544 -0.6642  0.5867
   9823SM  H11F13326   7.618   1.305   4.091 -2.1022 -4.2098 -3.5886
   9823SM  H11G13327   7.455   1.379   4.116  0.0128  0.7284  0.9875
   9823SM  C12F13328   7.604   1.528   4.099 -0.3683  0.4400  0.1353
   9823SM  H12F13329   7.538   1.608   4.058 -1.5742 -1.2876 -1.4899
   9823SM  H12G13330   7.701   1.541   4.047 -1.8007  2.5384 -2.2827
   9823SM  C13F13331   7.616   1.531   4.249 -0.6526  0.3539 -0.1206
   9823SM  H13F13332   7.513   1.516   4.288 -0.2341 -1.4879  0.3452
   9823SM  H13G13333   7.640   1.637   4.272  1.8075 -0.6294  2.4795
   9823SM  C14F13334   7.697   1.430   4.321 -0.1041  0.0675  0.4974
   9823SM  H14F13335   7.644   1.334   4.303  1.3785 -0.4479 -1.5536
   9823SM  H14G13336   7.693   1.463   4.427 -0.5527  1.6192  0.0222
   9823SM  C15F13337   7.841   1.427   4.270 -0.6599  0.2285  0.5568
   9823SM  H15F13338   7.889   1.526   4.282  1.0495 -0.4993  0.0325
   9823SM  H15G13339   7.839   1.395   4.163  0.0038  1.5088  0.1523
   9823SM  C16F13340   7.920   1.324   4.345 -0.1010 -0.4812 -0.0528
   9823SM  H16F13341   7.908   1.339   4.455 -2.4902 -1.3719 -0.1433
   9823SM  H16G13342   8.028   1.345   4.326 -0.3114 -0.3926 -1.2043
   9823SM  C17F13343   7.880   1.177   4.330  0.1502  0.2799 -0.2811
   9823SM  H17F13344   7.891   1.150   4.222  0.0205  0.5017 -0.3506
   9823SM  H17G13345   7.772   1.159   4.349  0.0005  1.7811  0.4265
   9823SM  C18F13346   7.966   1.085   4.411  0.1452 -0.4047 -0.4535
   9823SM  H18F13347   7.927   1.085   4.515 -3.4833  0.4784 -1.6742
   9823SM  H18G13348   8.071   1.121   4.414  0.1860 -0.5026 -0.6217
   9823SM  C19F13349   7.971   0.939   4.365 -0.0554 -0.5948 -0.1331
   9823SM  H19F13350   7.955   0.947   4.256 -1.3375 -0.5934  0.0422
   9823SM  H19G13351   7.880   0.881   4.390 -1.0695  1.0148  0.0399
   9823SM  C20F13352   8.101   0.873   4.401 -0.3323  0.2703  0.2350
   9823SM  H20F13353   8.185   0.945   4.403  0.4132 -0.6041  1.3661
   9823SM  H20G13354   8.122   0.796   4.323  2.2874  0.2873  0.8476
   9823SM  C21F13355   8.088   0.797   4.533  0.3194  0.1509 -0.1642
   9823SM  H21F13356   8.005   0.726   4.511  1.1231 -0.2671 -2.0710
   9823SM  H21G13357   8.059   0.870   4.612  1.3346  1.0809 -0.6214
   9823SM  C22F13358   8.211   0.717   4.557 -0.8964  0.0326  0.1449
   9823SM  H22F13359   8.299   0.778   4.588 -0.7841  0.6197 -1.2621
   9823SM  H22G13360   8.237   0.659   4.465 -2.1017 -2.0439  1.0467
   9823SM  C23F13361   8.206   0.610   4.669 -0.3606 -0.3554  0.0596
   9823SM  H23F13362   8.118   0.544   4.652  0.8060 -2.0758  0.5067
   9823SM  H23G13363   8.193   0.670   4.762  0.2188 -0.5726  0.2857
   9823SM  H23H13364   8.302   0.555   4.665 -1.1141 -1.8673  1.4598
   9923SM     N13365   7.214   0.147   2.720  0.7537 -0.0124 -0.0591
   9923SM   C1513366   7.191   0.296   2.701  0.1189  0.0531 -0.2195
   9923SM  H15A13367   7.084   0.312   2.692 -0.3546 -1.9419  1.1900
   9923SM  H15B13368   7.240   0.328   2.610  0.1922 -0.1490 -0.2507
   9923SM  H15C13369   7.229   0.354   2.783 -1.2632  1.0061 -0.2156
   9923SM   C1413370   7.137   0.074   2.617  0.5809 -0.0419 -0.0309
   9923SM  H14A13371   7.172   0.090   2.516 -1.5500 -0.5765 -0.8942
   9923SM  H14B13372   7.032   0.097   2.629  1.1816  2.9029  0.4997
   9923SM  H14C13373   7.147  -0.033   2.631 -0.7259  0.0206  1.6481
   9923SM   C1313374   7.361   0.121   2.701 -0.1870 -0.7342 -0.0102
   9923SM  H13A13375   7.430   0.169   2.769  0.8288 -0.2482 -1.3402
   9923SM  H13B13376   7.397   0.145   2.602  1.2277 -0.2747  0.5904
   9923SM  H13C13377   7.379   0.015   2.713 -1.0387 -1.0093 -1.0338
   9923SM   C1213378   7.178   0.112   2.857  0.2468  0.2073  0.5613
   9923SM  H12A13379   7.079   0.148   2.884  0.7900  2.8349 -0.6218
   9923SM  H12B13380   7.255   0.159   2.916  2.3826 -1.6106 -0.6313
   9923SM   C1113381   7.187  -0.039   2.908 -1.0180 -0.1714  0.6814
   9923SM  H11A13382   7.135  -0.096   2.828  0.1029 -2.3662  1.4349
   9923SM  H11B13383   7.143  -0.056   3.009  0.3792 -1.0125  1.1726
   9923SM     P13384   7.368  -0.228   2.877  0.2185 -0.1508 -0.0087
   9923SM   O1313385   7.253  -0.301   2.826 -0.1472 -0.0751  0.1382
   9923SM   O1413386   7.488  -0.222   2.786 -0.7083  0.2696  0.7831
   9923SM   O1113387   7.408  -0.274   3.023  0.1270 -0.0414 -0.0644
   9923SM   O1213388   7.324  -0.083   2.913  0.2046 -0.4420  0.3337
   9923SM   C1S13389   7.314  -0.319   3.116  0.8787  0.6417  0.1835
   9923SM   H1S13390   7.280  -0.425   3.108 -2.6339  1.4172  2.4041
   9923SM   H1T13391   7.221  -0.258   3.108  0.1926 -0.4795 -0.8597
   9923SM    NF13392   7.283  -0.367   3.355 -0.5340 -0.4378 -0.2542
   9923SM   HNF13393   7.224  -0.322   3.422 -0.0622 -0.2169  0.0165
   9923SM   C2S13394   7.363  -0.295   3.261  0.2654  0.2969  0.7351
   9923SM   H2S13395   7.468  -0.330   3.263  0.8604  1.8317 -0.8518
   9923SM   C3S13396   7.362  -0.138   3.295 -0.7477  0.1966  0.7438
   9923SM   H3S13397   7.253  -0.115   3.290 -1.3146 -2.2228  0.7981
   9923SM    O313398   7.430  -0.059   3.200  0.0824  0.0626 -0.3386
   9923SM   HO313399   7.419  -0.116   3.124 -1.8309 -2.6098  1.7709
   9923SM   C4S13400   7.394  -0.113   3.441 -0.0992 -0.5098 -1.1191
   9923SM   H4S13401   7.307  -0.118   3.509  0.1791  1.3239 -0.5779
   9923SM   C5S13402   7.516  -0.102   3.491 -1.1992 -0.2777 -0.7136
   9923SM   H5S13403   7.597  -0.115   3.418 -0.6929 -0.5598 -0.1116
   9923SM   C6S13404   7.556  -0.115   3.633 -0.1917 -0.3471  0.3891
   9923SM   H6S13405   7.603  -0.015   3.649  1.8982 -1.0724 -0.8257
   9923SM   H6T13406   7.636  -0.191   3.641  0.1052 -0.2203 -1.0454
   9923SM   C7S13407   7.440  -0.131   3.729 -0.2866  0.6479  0.4444
   9923SM   H7S13408   7.383  -0.227   3.724  0.4809 -0.0130  2.9354
   9923SM   H7T13409   7.356  -0.060   3.710 -1.0711 -0.2333  0.5253
   9923SM   C8S13410   7.490  -0.109   3.874  0.2060  1.2422  0.0225
   9923SM   H8S13411   7.558  -0.021   3.880  3.2350 -0.8897 -0.4985
   9923SM   H8T13412   7.550  -0.195   3.912 -3.0587 -1.0915  0.3329
   9923SM   C9S13413   7.374  -0.083   3.970 -0.5097 -0.1712 -0.1445
   9923SM   H9S13414   7.310  -0.174   3.975  1.7325 -1.7987  0.8752
   9923SM   H9T13415   7.320  -0.001   3.918  3.0612  1.8205 -1.0516
   9923SM  C10S13416   7.423  -0.035   4.113 -0.2467  0.1539  1.2327
   9923SM  H10S13417   7.398   0.073   4.121  0.2965  0.3876  0.0167
   9923SM  H10T13418   7.534  -0.035   4.122  0.1230  3.1023 -1.6110
   9923SM  C11S13419   7.368  -0.119   4.222  0.0660  0.9862 -0.2209
   9923SM  H11S13420   7.374  -0.229   4.210  1.8923  0.6860  2.5276
   9923SM  H11T13421   7.265  -0.086   4.247  0.5773  1.0200  2.0888
   9923SM  C12S13422   7.444  -0.095   4.356  0.2234  0.1012  0.2219
   9923SM  H12S13423   7.445   0.013   4.381 -1.6233  0.0215  0.8109
   9923SM  H12T13424   7.550  -0.126   4.341  0.1733  0.1589 -0.2702
   9923SM  C13S13425   7.376  -0.182   4.463  0.1108  0.8193  0.4184
   9923SM  H13S13426   7.392  -0.289   4.437 -0.1713  0.8231  0.2152
   9923SM  H13T13427   7.266  -0.170   4.464 -0.0235  0.1820 -1.4525
   9923SM  C14S13428   7.442  -0.165   4.599  0.5077  0.1664 -0.8369
   9923SM  H14S13429   7.550  -0.177   4.575  0.7522  0.1733  0.2208
   9923SM  H14T13430   7.409  -0.253   4.659 -2.4390  0.1363 -2.2928
   9923SM  C15S13431   7.428  -0.035   4.675 -0.4781  0.1239 -0.4799
   9923SM  H15S13432   7.442   0.053   4.608 -1.4061 -0.0739 -0.9492
   9923SM  H15T13433   7.517  -0.027   4.741 -0.0865 -1.4055 -0.7785
   9923SM  C16S13434   7.291  -0.020   4.744  0.0154  0.0037 -0.3042
   9923SM  H16S13435   7.258  -0.121   4.776  1.3334  0.1122  1.5823
   9923SM  H16T13436   7.207   0.010   4.677  0.1693  2.3039  0.4391
   9923SM  C17S13437   7.297   0.076   4.868  0.5742 -0.9367  0.4336
   9923SM  H17S13438   7.396   0.058   4.916  1.9736 -1.2081 -2.3348
   9923SM  H17T13439   7.218   0.051   4.941 -0.7597  1.3252 -0.1257
   9923SM  C18S13440   7.286   0.227   4.841 -0.7021  0.1051 -0.2220
   9923SM  H18S13441   7.289   0.290   4.933 -0.4413  1.6038 -1.2351
   9923SM  H18T13442   7.184   0.252   4.804 -2.1757 -2.5040  1.6912
   9923SM  H18U13443   7.365   0.251   4.767 -0.4526 -0.1608 -0.0459
   9923SM   C1F13444   7.280  -0.506   3.363 -0.1775 -0.8174 -0.4168
   9923SM    OF13445   7.345  -0.569   3.286 -0.1088  0.2643  0.0423
   9923SM   C2F13446   7.180  -0.571   3.448  0.0118 -0.0958 -0.1051
   9923SM   H2F13447   7.132  -0.654   3.391  1.5769  0.3744 -2.2374
   9923SM   H2G13448   7.108  -0.496   3.488  3.5996  1.6447  3.7741
   9923SM   C3F13449   7.252  -0.646   3.566  0.2055  0.5232  0.6049
   9923SM   H3F13450   7.325  -0.723   3.534 -2.7816 -2.6482  0.7923
   9923SM   H3G13451   7.177  -0.712   3.615  1.0922  0.9460  2.6061
   9923SM   C4F13452   7.325  -0.560   3.667 -0.5352 -0.4722 -0.2540
   9923SM   H4F13453   7.259  -0.506   3.738  1.4581 -0.7920  1.9725
   9923SM   H4G13454   7.386  -0.485   3.612 -2.1639  1.8902  1.0046
   9923SM   C5F13455   7.425  -0.632   3.759 -0.0337 -0.3353 -0.0440
   9923SM   H5F13456   7.522  -0.637   3.704  0.8487 -0.0650  1.4044
   9923SM   H5G13457   7.386  -0.731   3.789 -0.5963  0.4505  1.9786
   9923SM   C6F13458   7.443  -0.547   3.888  0.3475  0.6359  0.2767
   9923SM   H6F13459   7.354  -0.533   3.953  0.8624 -1.5290  1.5158
   9923SM   H6G13460   7.471  -0.448   3.846  0.7517  0.0794 -0.7890
   9923SM   C7F13461   7.555  -0.593   3.981  0.1944  0.3756  0.4117
   9923SM   H7F13462   7.653  -0.575   3.932 -0.1549 -0.6859 -0.7405
   9923SM   H7G13463   7.551  -0.703   4.000 -0.4266  0.0917 -1.2228
   9923SM   C8F13464   7.561  -0.518   4.113 -0.3385 -0.4610  0.4365
   9923SM   H8F13465   7.468  -0.537   4.171 -0.7943  2.3561  0.7663
   9923SM   H8G13466   7.571  -0.412   4.082 -1.9596 -0.0145  1.3526
   9923SM   C9F13467   7.677  -0.552   4.211 -0.1962 -0.0151 -0.1179
   9923SM   H9F13468   7.779  -0.528   4.175  1.0911 -0.8014  2.7382
   9923SM   H9G13469   7.678  -0.662   4.220  1.5845  0.1006  1.7294
   9923SM  C10F13470   7.644  -0.492   4.351 -0.2185 -0.0227  0.4241
   9923SM  H10F13471   7.550  -0.539   4.388 -0.4299  0.0317 -0.0417
   9923SM  H10G13472   7.627  -0.383   4.340 -1.1086  0.0778  2.4055
   9923SM  C11F13473   7.752  -0.522   4.454  0.0613 -0.7213  0.1862
   9923SM  H11F13474   7.854  -0.489   4.423 -0.2764 -0.0310 -0.2077
   9923SM  H11G13475   7.767  -0.631   4.466 -2.2765 -1.1127 -0.1525
   9923SM  C12F13476   7.709  -0.453   4.585 -0.1958  0.3425 -0.3755
   9923SM  H12F13477   7.607  -0.478   4.623  0.3712 -0.7258  0.4952
   9923SM  H12G13478   7.720  -0.343   4.586 -0.4042  0.3639  0.7528
   9923SM  C13F13479   7.804  -0.499   4.698  0.2017 -0.5213 -0.3010
   9923SM  H13F13480   7.906  -0.461   4.675  0.2070  1.6774  2.7955
   9923SM  H13G13481   7.803  -0.610   4.704  1.3863 -0.4984  4.5212
   9923SM  C14F13482   7.762  -0.452   4.842 -0.1637  0.6554  0.6835
   9923SM  H14F13483   7.657  -0.482   4.860 -0.7568  3.0548  1.6685
   9923SM  H14G13484   7.769  -0.341   4.842  0.5995  0.6614 -1.3814
   9923SM  C15F13485   7.855  -0.499   4.954  0.0443 -0.4480  0.2576
   9923SM  H15F13486   7.805  -0.453   5.043 -0.0639  1.4098 -0.7139
   9923SM  H15G13487   7.958  -0.457   4.951  0.3217 -0.8751  2.1130
   9923SM  C16F13488   7.872  -0.645   4.968 -0.2987  0.8689  0.2719
   9923SM  H16F13489   7.949  -0.687   4.899 -1.5496 -0.7613 -0.1976
   9923SM  H16G13490   7.781  -0.703   4.943  0.3535  0.3279 -0.9584
   9923SM  C17F13491   7.895  -0.696   5.113 -0.0963  0.2217  1.0737
   9923SM  H17F13492   7.956  -0.618   5.164  1.7980  0.2393 -1.0655
   9923SM  H17G13493   7.956  -0.789   5.114  0.2259  0.4362  1.4155
   9923SM  C18F13494   7.765  -0.726   5.189 -0.3349  0.0849 -0.4038
   9923SM  H18F13495   7.716  -0.819   5.154  0.9926 -1.2999  1.2752
   9923SM  H18G13496   7.694  -0.642   5.172 -1.0156  0.0309  1.8888
   9923SM  C19F13497   7.786  -0.745   5.343  0.0467  0.5512 -0.1198
   9923SM  H19F13498   7.832  -0.654   5.388 -0.4447 -0.0842  1.7541
   9923SM  H19G13499   7.844  -0.836   5.368 -1.6837 -1.0143 -1.5748
   9923SM  C20F13500   7.657  -0.764   5.419 -0.3038 -0.1450  0.1823
   9923SM  H20F13501   7.607  -0.852   5.373  2.3773 -0.0668 -3.3851
   9923SM  H20G13502   7.593  -0.680   5.385  2.4904  0.9420 -2.9741
   9923SM  C21F13503   7.669  -0.784   5.570 -0.3136 -0.2542  0.0931
   9923SM  H21F13504   7.711  -0.690   5.613 -0.1275  1.0726 -2.7415
   9923SM  H21G13505   7.737  -0.868   5.592  1.1643  0.6539 -0.8378
   9923SM  C22F13506   7.533  -0.799   5.636 -0.4338 -0.3202  0.1741
   9923SM  H22F13507   7.483  -0.884   5.587 -0.6976  0.1622 -0.3983
   9923SM  H22G13508   7.467  -0.710   5.630 -0.8581 -0.7236 -1.3638
   9923SM  C23F13509   7.567  -0.826   5.791 -0.5636 -0.3201  0.0094
   9923SM  H23F13510   7.485  -0.892   5.828 -0.4294 -0.4349  0.1054
   9923SM  H23G13511   7.579  -0.737   5.856  1.3188  0.0436 -0.7596
   9923SM  H23H13512   7.658  -0.890   5.795  0.1754  0.6581 -0.6324
  10023SM     N13513   6.828   7.087   2.913 -0.1470 -0.3678  0.1019
  10023SM   C1513514   6.691   7.121   2.960 -0.6880  0.2235  0.5341
  10023SM  H15A13515   6.633   7.030   2.970  0.2923 -0.5919 -0.8997
  10023SM  H15B13516   6.641   7.187   2.891 -0.6383 -1.1296 -0.8510
  10023SM  H15C13517   6.690   7.154   3.063 -0.3020 -1.1378  0.9989
  10023SM   C1413518   6.877   6.974   2.992 -0.5601 -1.1001 -0.9646
  10023SM  H14A13519   6.877   6.995   3.098  1.9756  0.4565 -1.1796
  10023SM  H14B13520   6.980   6.949   2.974  0.1472  0.6508  0.4178
  10023SM  H14C13521   6.814   6.891   2.962  0.1396 -1.4524 -1.4881
  10023SM   C1313522   6.819   7.051   2.765 -0.7113 -0.2441 -0.0053
  10023SM  H13A13523   6.766   7.128   2.709 -0.0657  0.1423 -0.0996
  10023SM  H13B13524   6.771   6.955   2.765 -0.4968 -0.3741 -1.1901
  10023SM  H13C13525   6.914   7.041   2.713 -1.0497  0.1633 -0.7219
  10023SM   C1213526   6.922   7.209   2.927 -0.5239  0.6946  0.5719
  10023SM  H12A13527   6.882   7.286   2.863  0.4768  1.3439  0.7043
  10023SM  H12B13528   7.019   7.192   2.882  0.2059  0.9549  2.0048
  10023SM   C1113529   6.938   7.276   3.063 -0.1833  0.7559  0.1940
  10023SM  H11A13530   7.014   7.356   3.049  0.4033  0.5424  1.8488
  10023SM  H11B13531   6.977   7.205   3.139  1.2814  0.2656 -0.9599
  10023SM     P13532   6.770   7.466   3.062  0.1427 -0.0454  0.4719
  10023SM   O1313533   6.829   7.492   2.928  0.1313 -0.0433 -0.1149
  10023SM   O1413534   6.627   7.487   3.090  0.4030 -0.0991  0.1607
  10023SM   O1113535   6.848   7.552   3.159 -0.1545  0.3999  0.4412
  10023SM   O1213536   6.809   7.318   3.117 -0.0549 -0.2181 -0.1429
  10023SM   C1S13537   6.839   7.524   3.301 -0.2516  0.5959 -0.3507
  10023SM   H1S13538   6.877   7.421   3.319 -0.9211  0.6489  1.5673
  10023SM   H1T13539   6.737   7.542   3.340 -0.3115  1.4978 -0.8986
  10023SM    NF13540   6.919   7.573   3.519 -0.3966  0.5412 -0.5279
  10023SM   HNF13541   6.851   7.608   3.583 -1.1566 -0.8983 -0.5085
  10023SM   C2S13542   6.935   7.611   3.381  0.3066  0.4056 -0.5529
  10023SM   H2S13543   7.038   7.599   3.343  0.0622 -0.8816 -0.8541
  10023SM   C3S13544   6.892   7.755   3.370 -0.0567 -0.6239  0.3537
  10023SM   H3S13545   6.789   7.757   3.411 -0.3874 -0.5149 -0.4611
  10023SM    O313546   6.880   7.808   3.243 -0.4255 -0.9101  0.0633
  10023SM   HO313547   6.853   7.733   3.189  0.2493  0.0272 -1.6561
  10023SM   C4S13548   6.976   7.850   3.456 -0.1957 -0.7880  0.0009
  10023SM   H4S13549   6.922   7.891   3.542  0.7646 -1.2573  0.8452
  10023SM   C5S13550   7.100   7.894   3.435  0.0865  0.4628 -0.4612
  10023SM   H5S13551   7.158   7.861   3.347  0.3047  0.5318 -0.3433
  10023SM   C6S13552   7.176   7.984   3.526  0.2775  0.3136  0.0860
  10023SM   H6S13553   7.102   8.045   3.582 -0.4131 -0.5832  0.1743
  10023SM   H6T13554   7.232   8.057   3.464  0.8680 -0.0482  0.1881
  10023SM   C7S13555   7.274   7.911   3.611  0.1091 -0.0274  1.4606
  10023SM   H7S13556   7.335   7.845   3.545 -3.3032 -1.6937 -0.2885
  10023SM   H7T13557   7.233   7.847   3.692 -0.0768 -1.7732  0.0530
  10023SM   C8S13558   7.376   8.006   3.681 -0.8458 -0.8731 -0.3178
  10023SM   H8S13559   7.324   8.088   3.736  1.0705  0.1874 -0.0310
  10023SM   H8T13560   7.431   8.054   3.598 -0.2960 -1.4240 -0.2752
  10023SM   C9S13561   7.477   7.943   3.778 -0.2774  0.3992  0.0356
  10023SM   H9S13562   7.550   7.875   3.729  1.3179  0.9159  1.5742
  10023SM   H9T13563   7.422   7.874   3.845  1.0089 -1.8420 -1.0962
  10023SM  C10S13564   7.561   8.049   3.847 -0.0853  0.2642 -0.0885
  10023SM  H10S13565   7.498   8.136   3.875 -0.8002  0.2607 -1.6322
  10023SM  H10T13566   7.641   8.090   3.781  0.4447 -0.1105  0.3086
  10023SM  C11S13567   7.633   7.986   3.966  0.1933  0.2825  0.1004
  10023SM  H11S13568   7.702   7.907   3.928  0.5740  0.7649 -0.2201
  10023SM  H11T13569   7.556   7.936   4.030  0.3335 -0.8600 -0.5902
  10023SM  C12S13570   7.696   8.097   4.048  0.5488  0.0753  0.0459
  10023SM  H12S13571   7.625   8.181   4.063  1.9048  1.0660  1.2615
  10023SM  H12T13572   7.777   8.147   3.990  0.2796  2.1315  1.3317
  10023SM  C13S13573   7.751   8.060   4.182  0.4240  0.8351  0.5997
  10023SM  H13S13574   7.829   7.984   4.158 -0.6770  0.1267 -0.8927
  10023SM  H13T13575   7.677   8.003   4.243 -1.5356 -0.1508 -2.4596
  10023SM  C14S13576   7.799   8.169   4.269 -0.4755 -0.7903 -0.0795
  10023SM  H14S13577   7.711   8.215   4.318  0.5481 -1.0635  2.1856
  10023SM  H14T13578   7.851   8.252   4.216  2.4173 -0.6513  2.6571
  10023SM  C15S13579   7.891   8.110   4.378 -0.2017  0.4308 -0.2673
  10023SM  H15S13580   7.831   8.028   4.425  1.2568 -0.7778 -0.4361
  10023SM  H15T13581   7.899   8.192   4.452  2.9580 -0.9758  1.1102
  10023SM  C16S13582   8.027   8.048   4.347  0.0690 -0.2007 -0.2910
  10023SM  H16S13583   8.005   7.950   4.300  2.6739 -0.5919 -0.8229
  10023SM  H16T13584   8.084   8.027   4.440 -0.8436 -1.6510 -0.0257
  10023SM  C17S13585   8.111   8.118   4.234  0.1190  0.2313 -0.0054
  10023SM  H17S13586   8.145   8.223   4.251 -1.7903  0.6959  1.2320
  10023SM  H17T13587   8.055   8.116   4.138  0.6355 -1.0645 -0.3042
  10023SM  C18S13588   8.242   8.046   4.209  0.2863  0.4568 -0.4289
  10023SM  H18S13589   8.311   8.047   4.296  2.9206  1.0550 -2.3922
  10023SM  H18T13590   8.293   8.091   4.121  1.1386  1.4415  0.5345
  10023SM  H18U13591   8.234   7.938   4.186  0.9676  0.3960 -0.4048
  10023SM   C1F13592   6.992   7.472   3.575  0.5052  0.3656  0.2564
  10023SM    OF13593   7.088   7.432   3.514 -0.1979 -0.4204 -0.0646
  10023SM   C2F13594   6.932   7.408   3.698  0.7713  0.4145 -0.7488
  10023SM   H2F13595   6.959   7.300   3.699  3.8275  1.0702  0.3678
  10023SM   H2G13596   6.822   7.415   3.692  0.5040  2.7779  3.5912
  10023SM   C3F13597   6.982   7.473   3.827 -0.5407  0.2850 -0.5118
  10023SM   H3F13598   6.958   7.582   3.824  1.7671  0.9155  1.1410
  10023SM   H3G13599   7.092   7.482   3.835 -0.6278  0.9548  0.0779
  10023SM   C4F13600   6.912   7.418   3.956 -0.0572 -0.0627  0.6365
  10023SM   H4F13601   6.807   7.408   3.921  0.3410  2.0858 -1.4364
  10023SM   H4G13602   6.922   7.487   4.043  0.4654 -1.5091  1.7496
  10023SM   C5F13603   6.963   7.284   4.008 -0.7917  0.9196 -0.1299
  10023SM   H5F13604   7.015   7.235   3.923 -0.0606  2.3845 -0.5765
  10023SM   H5G13605   6.872   7.229   4.038 -0.1025 -0.0554  0.2038
  10023SM   C6F13606   7.058   7.295   4.131  0.7578 -0.4564 -0.0622
  10023SM   H6F13607   7.080   7.400   4.161 -2.1123 -0.0560  1.0092
  10023SM   H6G13608   7.146   7.232   4.109  0.8643 -0.6629  0.8944
  10023SM   C7F13609   7.003   7.229   4.254 -0.5776 -0.0419 -0.3980
  10023SM   H7F13610   6.969   7.126   4.232 -0.6041 -0.2429  0.5575
  10023SM   H7G13611   6.920   7.285   4.301  0.0780 -0.0581  0.8231
  10023SM   C8F13612   7.110   7.228   4.368  0.2821 -0.1599 -0.2726
  10023SM   H8F13613   7.166   7.324   4.374  2.0450 -1.1709  0.3145
  10023SM   H8G13614   7.192   7.154   4.350 -1.1336 -2.0633  0.8062
  10023SM   C9F13615   7.055   7.189   4.509 -0.5405  0.6638  0.2572
  10023SM   H9F13616   7.044   7.079   4.515 -0.4719  0.4652 -2.1585
  10023SM   H9G13617   6.948   7.218   4.510 -1.0591 -1.1439  1.0296
  10023SM  C10F13618   7.137   7.247   4.620 -0.3883 -0.3731  0.4868
  10023SM  H10F13619   7.071   7.221   4.705 -1.0536 -1.9068 -0.4594
  10023SM  H10G13620   7.161   7.354   4.604  0.6635 -0.7992 -1.0305
  10023SM  C11F13621   7.269   7.162   4.635  0.0919 -0.2023 -0.0194
  10023SM  H11F13622   7.354   7.193   4.570  0.5706 -0.3332  0.5334
  10023SM  H11G13623   7.251   7.055   4.614 -0.2811 -0.0715 -0.3635
  10023SM  C12F13624   7.310   7.166   4.787 -0.2037  0.0772  0.6230
  10023SM  H12F13625   7.220   7.130   4.841 -0.0336 -0.1378  0.7593
  10023SM  H12G13626   7.334   7.269   4.822  0.5109  0.0174  0.3274
  10023SM  C13F13627   7.425   7.068   4.819 -0.6453  0.4846  0.1999
  10023SM  H13F13628   7.457   7.084   4.924  3.3646  1.1499 -0.9613
  10023SM  H13G13629   7.505   7.093   4.746 -0.6008  0.2737  0.1756
  10023SM  C14F13630   7.395   6.916   4.808 -0.1127 -0.6167  0.7775
  10023SM  H14F13631   7.344   6.882   4.716 -0.5888  0.2458  0.7208
  10023SM  H14G13632   7.327   6.874   4.885 -0.5487  2.3585  2.1343
  10023SM  C15F13633   7.535   6.841   4.812  0.8019  0.1058  0.0563
  10023SM  H15F13634   7.558   6.839   4.920  0.3782  0.7101  0.1642
  10023SM  H15G13635   7.615   6.902   4.764 -0.1495  2.2590  1.0910
  10023SM  C16F13636   7.525   6.694   4.750  0.1757  0.0141 -0.2744
  10023SM  H16F13637   7.513   6.691   4.640 -1.4044 -1.7746 -0.1126
  10023SM  H16G13638   7.430   6.661   4.796 -1.3234  1.9330 -1.8213
  10023SM  C17F13639   7.627   6.599   4.810 -0.6336 -0.3009 -0.0998
  10023SM  H17F13640   7.605   6.581   4.918  2.0409 -1.7758  0.2716
  10023SM  H17G13641   7.731   6.637   4.803 -0.3874 -0.7444  0.9154
  10023SM  C18F13642   7.616   6.457   4.749  0.1703  0.0098 -0.4722
  10023SM  H18F13643   7.664   6.457   4.649  1.1519 -2.6570 -0.0933
  10023SM  H18G13644   7.508   6.433   4.741 -0.4082  2.3470 -0.4424
  10023SM  C19F13645   7.682   6.342   4.823  1.0146  0.1811 -0.1470
  10023SM  H19F13646   7.649   6.317   4.927  2.7937  0.8954  0.6283
  10023SM  H19G13647   7.787   6.372   4.844  1.0366 -1.1077  1.8983
  10023SM  C20F13648   7.670   6.219   4.740 -0.7127  0.1839 -0.2532
  10023SM  H20F13649   7.680   6.238   4.631 -2.0417  1.9365 -0.1288
  10023SM  H20G13650   7.567   6.184   4.761 -0.8456  0.6999 -0.0142
  10023SM  C21F13651   7.771   6.111   4.775 -0.2340  0.4240 -0.7341
  10023SM  H21F13652   7.873   6.138   4.742 -0.2244  0.5352 -0.6150
  10023SM  H21G13653   7.750   6.019   4.716  0.1574  0.4490 -0.9113
  10023SM  C22F13654   7.773   6.067   4.921 -0.3543 -0.2926  0.0004
  10023SM  H22F13655   7.671   6.060   4.962 -0.6534 -0.0066 -0.6801
  10023SM  H22G13656   7.825   6.146   4.980  2.6538 -1.6100 -0.6929
  10023SM  C23F13657   7.840   5.933   4.943  0.2437  0.4813 -0.1293
  10023SM  H23F13658   7.804   5.864   4.864  2.2569 -0.4113 -0.3420
  10023SM  H23G13659   7.824   5.894   5.046  0.2620  0.5269 -0.1092
  10023SM  H23H13660   7.951   5.931   4.933  0.2021 -0.2245 -0.5084
  101CHL1    C313661   3.738   3.973   6.613 -1.1366  0.2220  0.2359
  101CHL1    H313662   3.647   3.909   6.609 -0.6299 -0.4734 -2.1709
  101CHL1    O313663   3.741   4.052   6.729 -0.2173  0.4499 -0.4498
  101CHL1   H3'13664   3.831   4.039   6.758 -0.9184  0.7959  2.1536
  101CHL1    C413665   3.859   3.885   6.608 -0.2193  0.3347  0.0158
  101CHL1   H4A13666   3.956   3.938   6.612  0.5463 -1.0901  2.4855
  101CHL1   H4B13667   3.859   3.813   6.693 -1.3989 -0.1900 -0.3973
  101CHL1    C513668   3.857   3.801   6.475 -0.2702 -0.7196 -0.8651
  101CHL1    C613669   3.853   3.667   6.480 -0.1945  0.3203  0.3678
  101CHL1    H613670   3.855   3.617   6.579 -0.9457  0.5950  0.5287
  101CHL1    C713671   3.860   3.578   6.353  0.6464 -0.2300 -0.4414
  101CHL1   H7A13672   3.933   3.495   6.365 -0.6041 -1.1315  1.6469
  101CHL1   H7B13673   3.760   3.533   6.337  1.0048 -0.5166 -1.9976
  101CHL1    C813674   3.896   3.652   6.225 -0.3884  0.1218  0.6604
  101CHL1    H813675   4.007   3.663   6.227 -0.3368 -0.1814 -0.3595
  101CHL1   C1413676   3.866   3.571   6.104  0.1660  0.0431 -0.2323
  101CHL1   H1413677   3.755   3.563   6.100  0.2916 -1.9194 -1.0774
  101CHL1   C1513678   3.926   3.434   6.102  0.0464  0.1148 -0.0921
  101CHL1  H15A13679   4.025   3.446   6.150  0.3261  0.9507 -0.8416
  101CHL1  H15B13680   3.873   3.367   6.173 -0.4322  0.5849  0.0073
  101CHL1   C1613681   3.921   3.395   5.951 -0.4037  0.0562 -0.8982
  101CHL1  H16A13682   4.025   3.363   5.926 -0.5730 -1.9042  0.6807
  101CHL1  H16B13683   3.856   3.305   5.957  0.9580 -0.8787  0.6611
  101CHL1   C1713684   3.872   3.526   5.876  0.7824 -0.2723 -0.5416
  101CHL1   H1713685   3.761   3.523   5.879  0.8080 -1.8568 -0.1516
  101CHL1   C1313686   3.907   3.641   5.975  1.0149  0.1299  0.3095
  101CHL1   C1813687   4.063   3.656   5.979  0.5278 -0.3829  0.8299
  101CHL1  H18A13688   4.093   3.688   5.877 -0.6090 -0.9222  0.3080
  101CHL1  H18B13689   4.089   3.747   6.038  0.6664 -0.0658  0.2930
  101CHL1  H18C13690   4.123   3.567   6.006  2.7776  0.6912 -0.3116
  101CHL1   C1213691   3.824   3.773   5.962 -0.4017 -0.1562 -0.3627
  101CHL1  H12A13692   3.866   3.824   5.872  2.0088 -0.9261  0.2605
  101CHL1  H12B13693   3.715   3.756   5.957 -0.3360 -0.2525 -2.7271
  101CHL1   C1113694   3.859   3.867   6.081  0.9205  0.0059  0.2921
  101CHL1  H11A13695   3.964   3.901   6.068  0.2947  1.3195 -1.9531
  101CHL1  H11B13696   3.788   3.951   6.064  2.6123  0.7545 -5.2840
  101CHL1    C913697   3.835   3.790   6.219 -0.9648 -0.4129  0.4152
  101CHL1    H913698   3.728   3.761   6.215 -1.0816 -0.0673  0.9163
  101CHL1   C1013699   3.852   3.879   6.344 -0.6572 -0.0037 -0.3708
  101CHL1   C1913700   3.983   3.954   6.327  0.5594 -0.1299  0.0004
  101CHL1  H19A13701   4.012   4.016   6.414  1.5901  2.8807 -2.3468
  101CHL1  H19B13702   4.067   3.888   6.296  0.0775 -0.0095 -1.6398
  101CHL1  H19C13703   3.972   4.034   6.251  0.7349  0.7864  0.9248
  101CHL1    C113704   3.726   3.974   6.356 -0.9139  0.1376  0.2502
  101CHL1   H1A13705   3.730   4.023   6.257 -2.2081  2.2992  1.2026
  101CHL1   H1B13706   3.635   3.910   6.359 -0.2516 -0.7943  2.9709
  101CHL1    C213707   3.719   4.061   6.488  0.0846  0.0419 -0.2293
  101CHL1   H2A13708   3.623   4.114   6.507  0.0068 -0.8511  2.2654
  101CHL1   H2B13709   3.797   4.139   6.483  0.5161 -0.4353 -1.3909
  101CHL1   C2013710   3.905   3.543   5.735 -0.5142  0.2105  0.3043
  101CHL1   H2013711   4.009   3.584   5.734 -0.4504  0.1515  1.8305
  101CHL1   C2113712   3.809   3.629   5.658  0.4288  0.0125 -0.0837
  101CHL1  H21A13713   3.852   3.631   5.556  0.8099 -0.1940  0.0690
  101CHL1  H21B13714   3.799   3.733   5.696  3.1959 -0.6326  2.8062
  101CHL1  H21C13715   3.713   3.574   5.649  1.0431 -1.0468 -0.3658
  101CHL1   C2213716   3.926   3.406   5.661 -0.3244  1.0703 -0.4082
  101CHL1  H22A13717   3.978   3.325   5.717  1.0470  0.3898 -2.5340
  101CHL1  H22B13718   3.823   3.369   5.640  0.0593 -0.6852  0.6189
  101CHL1   C2313719   4.009   3.416   5.531 -0.2543 -0.0863 -0.3320
  101CHL1  H23A13720   3.955   3.461   5.445  0.3843  0.4583 -0.4527
  101CHL1  H23B13721   4.097   3.481   5.554  1.1650 -2.3454  1.0181
  101CHL1   C2413722   4.072   3.282   5.480  0.5458  0.2883 -0.3825
  101CHL1  H24A13723   4.129   3.223   5.556  1.8014  0.4370 -1.1886
  101CHL1  H24B13724   3.991   3.216   5.441  2.6210 -2.0725 -0.9448
  101CHL1   C2513725   4.171   3.303   5.368  0.4980  0.0818 -0.5997
  101CHL1   H2513726   4.131   3.381   5.300  0.8035  1.0112  0.2743
  101CHL1   C2613727   4.311   3.348   5.413  0.2646  0.5198 -0.4240
  101CHL1  H26A13728   4.356   3.268   5.475  0.8674  1.9196  1.0200
  101CHL1  H26B13729   4.376   3.353   5.323  0.4127  0.1473 -0.3381
  101CHL1  H26C13730   4.309   3.446   5.466 -0.4388  1.0142 -1.3283
  101CHL1   C2713731   4.160   3.167   5.299 -0.1830 -0.1248 -0.3369
  101CHL1  H27A13732   4.244   3.159   5.226  2.1373  1.9863  1.9024
  101CHL1  H27B13733   4.183   3.095   5.380  0.0223  0.4385  0.1067
  101CHL1  H27C13734   4.062   3.148   5.250 -0.3532 -1.3849  0.4639
  102CHL1    C313735   2.273   3.661   6.500  0.4341 -0.2044 -0.7705
  102CHL1    H313736   2.223   3.561   6.500  1.4353 -0.7229 -0.4546
  102CHL1    O313737   2.263   3.720   6.624 -0.0521  0.3348  0.2156
  102CHL1   H3'13738   2.332   3.668   6.666  0.4872 -0.2073 -1.2742
  102CHL1    C413739   2.420   3.650   6.464 -0.6778  0.6622  0.3825
  102CHL1   H4A13740   2.473   3.747   6.458  1.4675 -0.4861 -0.2536
  102CHL1   H4B13741   2.463   3.602   6.554 -1.0681  0.6848  0.5811
  102CHL1    C513742   2.432   3.586   6.330  0.1775 -0.3279  0.1603
  102CHL1    C613743   2.518   3.489   6.305 -0.1447  0.1060 -0.5803
  102CHL1    H613744   2.589   3.456   6.382  1.1460  2.0015 -0.8988
  102CHL1    C713745   2.541   3.418   6.175 -0.2416 -0.2178  0.7689
  102CHL1   H7A13746   2.649   3.395   6.170 -0.3609 -0.9145  1.2682
  102CHL1   H7B13747   2.492   3.319   6.164  1.6054 -1.0865 -0.0566
  102CHL1    C813748   2.498   3.499   6.055 -0.2234 -0.8795  0.1184
  102CHL1    H813749   2.573   3.580   6.038  0.5968 -1.5310  0.5176
  102CHL1   C1413750   2.495   3.419   5.920 -0.4649  0.2527  0.6562
  102CHL1   H1413751   2.416   3.344   5.945  0.3298 -0.1040  2.1897
  102CHL1   C1513752   2.621   3.338   5.883  0.7843  0.2788  0.4878
  102CHL1  H15A13753   2.716   3.395   5.892  1.8530 -1.5362  1.1617
  102CHL1  H15B13754   2.637   3.253   5.953  0.9951  0.9130  1.2245
  102CHL1   C1613755   2.601   3.291   5.739  0.3393 -0.4194 -0.2679
  102CHL1  H16A13756   2.689   3.320   5.678  0.5427 -0.5023 -0.0129
  102CHL1  H16B13757   2.586   3.181   5.733 -1.1199 -0.1830 -2.6869
  102CHL1   C1713758   2.473   3.376   5.695  0.1098  0.8749 -0.1800
  102CHL1   H1713759   2.392   3.301   5.711 -2.2271  3.2053 -0.4231
  102CHL1   C1313760   2.452   3.491   5.795  0.2189  0.5703 -0.5639
  102CHL1   C1813761   2.555   3.601   5.760  0.3447 -0.6701 -0.6725
  102CHL1  H18A13762   2.576   3.669   5.844 -1.6438 -0.7018 -0.1022
  102CHL1  H18B13763   2.648   3.549   5.728  1.3929 -1.1430  2.7619
  102CHL1  H18C13764   2.520   3.659   5.672 -1.3519 -1.6882 -0.7308
  102CHL1   C1213765   2.310   3.548   5.825 -0.1537  0.6243  1.0865
  102CHL1  H12A13766   2.280   3.610   5.738 -1.3292 -2.4947 -0.8948
  102CHL1  H12B13767   2.235   3.467   5.836  1.5483 -1.0651  0.7591
  102CHL1   C1113768   2.311   3.631   5.961 -0.2326 -0.2155 -0.2868
  102CHL1  H11A13769   2.373   3.720   5.936  0.2934 -0.7471 -0.9215
  102CHL1  H11B13770   2.207   3.663   5.985  0.2575  3.3492 -2.1978
  102CHL1    C913771   2.366   3.560   6.082  0.1325  0.3651 -0.5936
  102CHL1    H913772   2.308   3.469   6.106 -1.0653  1.2501 -0.0289
  102CHL1   C1013773   2.355   3.651   6.211 -0.3260 -0.7949 -0.5605
  102CHL1   C1913774   2.434   3.786   6.184  0.6956  0.5437  1.1315
  102CHL1  H19A13775   2.470   3.843   6.272  3.3159  0.0628  0.4802
  102CHL1  H19B13776   2.516   3.752   6.117 -0.9332 -0.4626 -0.4570
  102CHL1  H19C13777   2.375   3.856   6.121  0.1654  1.0387  2.1481
  102CHL1    C113778   2.215   3.690   6.255  0.2919 -0.1985 -0.3416
  102CHL1   H1A13779   2.155   3.753   6.186 -1.2320 -0.3305  0.8134
  102CHL1   H1B13780   2.161   3.593   6.259 -0.5279  0.2219 -1.0024
  102CHL1    C213781   2.207   3.752   6.400  0.4008 -0.9204  0.2483
  102CHL1   H2A13782   2.098   3.761   6.419 -0.0582 -2.4959 -1.3588
  102CHL1   H2B13783   2.266   3.846   6.406  3.2841 -2.6338  0.8286
  102CHL1   C2013784   2.480   3.411   5.547 -0.2734 -0.0862 -0.1873
  102CHL1   H2013785   2.549   3.495   5.521 -2.5210  1.5771 -1.0960
  102CHL1   C2113786   2.348   3.465   5.495  0.2122  0.8609  0.1472
  102CHL1  H21A13787   2.351   3.469   5.384  0.2256 -1.0578  0.0466
  102CHL1  H21B13788   2.319   3.565   5.534  0.9253  1.5468 -1.0137
  102CHL1  H21C13789   2.268   3.391   5.517  1.8065 -0.4367  1.9091
  102CHL1   C2213790   2.522   3.292   5.452  0.0160 -0.6507 -0.0129
  102CHL1  H22A13791   2.531   3.331   5.348  0.2719  0.1620  0.3062
  102CHL1  H22B13792   2.624   3.261   5.483  0.4201  0.6596  0.0498
  102CHL1   C2313793   2.415   3.178   5.440  0.2819  0.4928  0.2450
  102CHL1  H23A13794   2.387   3.139   5.540  2.8518 -0.5019  0.6608
  102CHL1  H23B13795   2.322   3.221   5.396 -0.3307  1.2033  2.1313
  102CHL1   C2413796   2.463   3.075   5.342  0.1963  0.7253  0.4196
  102CHL1  H24A13797   2.475   3.119   5.240 -0.8162  2.3882  0.9883
  102CHL1  H24B13798   2.567   3.038   5.359 -0.4849 -0.8453  1.3096
  102CHL1   C2513799   2.368   2.953   5.326 -0.4431 -0.5587 -0.2072
  102CHL1   H2513800   2.309   2.943   5.419 -0.3505 -0.4821 -0.1406
  102CHL1   C2613801   2.264   2.984   5.216  0.7260  0.0347 -0.0470
  102CHL1  H26A13802   2.199   3.069   5.244 -1.2458 -1.1708 -0.7403
  102CHL1  H26B13803   2.297   3.007   5.112 -1.9760  0.4086 -0.8918
  102CHL1  H26C13804   2.199   2.894   5.215  0.5996  0.1183  0.3806
  102CHL1   C2713805   2.458   2.829   5.292 -0.4279 -0.0049  0.0302
  102CHL1  H27A13806   2.510   2.848   5.196  0.7456  3.7628  1.2198
  102CHL1  H27B13807   2.537   2.806   5.366  1.1647  1.6311 -1.0905
  102CHL1  H27C13808   2.394   2.741   5.267  1.3488 -1.3591  0.1001
  103CHL1    C313809   2.904   2.537   6.366 -0.3999  0.2324  0.4198
  103CHL1    H313810   2.986   2.477   6.410 -0.3891  1.0231  1.5084
  103CHL1    O313811   2.802   2.552   6.465 -0.1976  0.2518  0.0093
  103CHL1   H3'13812   2.725   2.590   6.421 -1.5717 -0.7516  1.4347
  103CHL1    C413813   2.969   2.667   6.330  0.2897 -0.7369 -0.4702
  103CHL1   H4A13814   2.886   2.738   6.310 -1.4033 -2.2741  0.7483
  103CHL1   H4B13815   3.022   2.702   6.421  0.6677  0.0129 -0.9723
  103CHL1    C513816   3.056   2.661   6.207 -0.3523 -0.5582 -0.0045
  103CHL1    C613817   3.186   2.704   6.209  0.0449  0.2896 -0.0370
  103CHL1    H613818   3.221   2.747   6.304 -0.6007 -1.2969  0.9469
  103CHL1    C713819   3.282   2.699   6.096 -0.3311 -0.0253  0.6517
  103CHL1   H7A13820   3.336   2.796   6.092 -1.2323  0.5173  1.3289
  103CHL1   H7B13821   3.360   2.620   6.102  0.4886  0.8395  2.0906
  103CHL1    C813822   3.210   2.681   5.965  0.5152 -0.6761 -0.0026
  103CHL1    H813823   3.161   2.779   5.946  1.1064 -0.2683  0.5219
  103CHL1   C1413824   3.307   2.655   5.846 -0.2546 -0.1953  0.0442
  103CHL1   H1413825   3.365   2.567   5.882 -0.7240  0.1053  1.6369
  103CHL1   C1513826   3.421   2.757   5.816  0.3107  0.0543  0.4503
  103CHL1  H15A13827   3.387   2.862   5.804  0.2300 -0.0932 -0.7056
  103CHL1  H15B13828   3.488   2.747   5.904 -1.9630 -0.9241  2.2025
  103CHL1   C1613829   3.463   2.711   5.678 -0.8114  0.4175 -0.1068
  103CHL1  H16A13830   3.472   2.797   5.609 -0.5576 -0.4606 -1.2017
  103CHL1  H16B13831   3.558   2.653   5.671 -1.7112 -1.3372  1.1987
  103CHL1   C1713832   3.359   2.620   5.621 -0.3072  0.0984  0.0019
  103CHL1   H1713833   3.395   2.518   5.645  0.8525 -0.0047 -2.0118
  103CHL1   C1313834   3.240   2.633   5.713 -0.1912 -0.0453 -0.7241
  103CHL1   C1813835   3.164   2.763   5.673 -0.1428 -0.0303 -0.1911
  103CHL1  H18A13836   3.112   2.754   5.575  0.4214 -1.0689 -0.4111
  103CHL1  H18B13837   3.089   2.792   5.750  0.3361  0.5215  0.0795
  103CHL1  H18C13838   3.226   2.854   5.657 -1.4962  1.1463  0.8944
  103CHL1   C1213839   3.145   2.511   5.738 -0.2868 -0.6088 -0.0336
  103CHL1  H12A13840   3.090   2.497   5.642  1.1261  1.1929 -1.1638
  103CHL1  H12B13841   3.211   2.424   5.757 -1.4040 -1.1730  1.3901
  103CHL1   C1113842   3.030   2.526   5.844  0.2051  0.3479  0.5634
  103CHL1  H11A13843   2.967   2.610   5.807 -0.5944  0.3372  1.8006
  103CHL1  H11B13844   2.961   2.439   5.852 -1.5736  1.6531  0.1514
  103CHL1    C913845   3.099   2.565   5.978  0.1072 -0.0889 -0.2989
  103CHL1    H913846   3.161   2.479   6.011  0.9073  0.1055 -1.2518
  103CHL1   C1013847   2.991   2.593   6.086  0.0602 -0.3729  0.6207
  103CHL1   C1913848   2.879   2.681   6.025  0.5467  0.8815  0.1599
  103CHL1  H19A13849   2.827   2.734   6.107  1.5561  1.7482  0.2483
  103CHL1  H19B13850   2.946   2.747   5.966  0.4924 -0.3500 -1.3688
  103CHL1  H19C13851   2.798   2.636   5.962  0.9354  3.5594 -2.4860
  103CHL1    C113852   2.933   2.457   6.138 -0.5607  0.0486  0.3131
  103CHL1   H1A13853   2.888   2.406   6.050 -0.1687 -0.3154  0.3187
  103CHL1   H1B13854   3.028   2.403   6.159 -0.0995  0.5457 -0.4206
  103CHL1    C213855   2.841   2.468   6.252  0.4986 -0.3457 -0.2941
  103CHL1   H2A13856   2.792   2.371   6.275  2.2299 -1.8819 -2.6086
  103CHL1   H2B13857   2.756   2.535   6.227 -1.3803 -1.2143  3.1354
  103CHL1   C2013858   3.347   2.621   5.465 -0.2460 -0.4887 -0.2739
  103CHL1   H2013859   3.303   2.721   5.446  1.0661  0.2504  0.4150
  103CHL1   C2113860   3.237   2.527   5.415 -0.7395 -1.3105  0.9267
  103CHL1  H21A13861   3.272   2.424   5.436  1.0742 -0.9242 -0.0158
  103CHL1  H21B13862   3.220   2.535   5.306  0.8647  0.4983  0.7408
  103CHL1  H21C13863   3.144   2.549   5.473 -0.5377  1.7782  0.2808
  103CHL1   C2213864   3.484   2.623   5.384 -0.0710  0.4443 -0.3289
  103CHL1  H22A13865   3.558   2.693   5.428  1.3143 -1.1904  0.0355
  103CHL1  H22B13866   3.528   2.526   5.414  1.3467  1.8055  2.3196
  103CHL1   C2313867   3.489   2.627   5.236  0.2863 -1.2673 -0.3148
  103CHL1  H23A13868   3.597   2.609   5.221  0.7812  0.2916  1.0815
  103CHL1  H23B13869   3.433   2.546   5.185  0.7573 -0.8400 -1.5239
  103CHL1   C2413870   3.448   2.763   5.165 -0.7902  0.2007  0.5007
  103CHL1  H24A13871   3.361   2.812   5.213 -0.9255  2.1997 -1.5968
  103CHL1  H24B13872   3.535   2.830   5.185 -1.0677  0.2043  1.8114
  103CHL1   C2513873   3.384   2.744   5.026  0.1415 -0.1364  0.2361
  103CHL1   H2513874   3.294   2.681   5.048  0.8501 -0.9320  0.9230
  103CHL1   C2613875   3.333   2.874   4.971  0.7044 -0.1233  1.1719
  103CHL1  H26A13876   3.267   2.854   4.885  1.1398 -0.9959  1.0269
  103CHL1  H26B13877   3.279   2.922   5.056 -0.7432  0.9645 -0.3137
  103CHL1  H26C13878   3.413   2.946   4.945  0.1987  0.1171  0.2683
  103CHL1   C2713879   3.487   2.672   4.939 -0.0136  0.2968 -0.4901
  103CHL1  H27A13880   3.460   2.647   4.834 -1.7225  0.1355 -0.0395
  103CHL1  H27B13881   3.574   2.741   4.934  1.9129 -2.0913 -3.1148
  103CHL1  H27C13882   3.534   2.582   4.984  2.9186  3.1264  2.7579
  104CHL1    C313883   6.335   5.010   6.507  0.7338 -0.7206  0.3493
  104CHL1    H313884   6.228   5.037   6.490  0.9140  1.2583  1.9763
  104CHL1    O313885   6.370   4.988   6.641 -0.0597  0.2365 -0.2338
  104CHL1   H3'13886   6.331   5.066   6.683 -1.2688  1.1211 -2.7740
  104CHL1    C413887   6.394   4.895   6.428  1.1574  0.3217  0.3531
  104CHL1   H4A13888   6.499   4.879   6.459  1.1837 -1.2772 -0.4546
  104CHL1   H4B13889   6.331   4.806   6.449  1.1294  0.0946 -0.6516
  104CHL1    C513890   6.387   4.915   6.276  0.2410  0.1980 -0.4194
  104CHL1    C613891   6.321   4.821   6.198 -0.0573  0.4491 -0.0357
  104CHL1    H613892   6.271   4.730   6.235 -2.8774  1.5648 -0.7813
  104CHL1    C713893   6.311   4.842   6.045 -0.0096 -1.0717  0.0708
  104CHL1   H7A13894   6.354   4.747   6.005 -0.0226 -0.8240 -0.5479
  104CHL1   H7B13895   6.208   4.848   6.006  1.0812  2.3108 -2.8489
  104CHL1    C813896   6.398   4.955   5.977 -0.5290 -0.1679 -0.1456
  104CHL1    H813897   6.500   4.913   5.966  0.1864  1.1468  1.1106
  104CHL1   C1413898   6.350   4.983   5.838 -0.1550  0.0267  0.7545
  104CHL1   H1413899   6.241   5.008   5.840 -0.0214  0.8618 -0.9479
  104CHL1   C1513900   6.351   4.875   5.730  0.0728 -0.0645 -0.1323
  104CHL1  H15A13901   6.449   4.823   5.738  0.0310 -0.3441 -1.2774
  104CHL1  H15B13902   6.271   4.798   5.730  0.3357 -0.3436  0.4007
  104CHL1   C1613903   6.343   4.950   5.597 -0.1539 -0.3871  0.2986
  104CHL1  H16A13904   6.435   4.938   5.536 -0.9235 -0.0652 -0.9533
  104CHL1  H16B13905   6.255   4.921   5.535  1.8289  1.0159 -3.5242
  104CHL1   C1713906   6.337   5.102   5.639  0.7953 -0.9471  0.0855
  104CHL1   H1713907   6.230   5.124   5.656  0.5253 -1.9740 -0.1744
  104CHL1   C1313908   6.407   5.109   5.773  0.3324  0.3357  0.3448
  104CHL1   C1813909   6.554   5.091   5.742 -0.0674  0.7943 -0.0664
  104CHL1  H18A13910   6.572   5.005   5.674  0.3011 -0.3505  1.4235
  104CHL1  H18B13911   6.604   5.181   5.700 -1.7305  1.3796 -0.8879
  104CHL1  H18C13912   6.621   5.068   5.827 -0.6304 -1.5791 -0.2056
  104CHL1   C1213913   6.390   5.234   5.858 -0.1194  0.3355 -0.1012
  104CHL1  H12A13914   6.437   5.327   5.821  0.0168 -0.3136 -1.6187
  104CHL1  H12B13915   6.280   5.250   5.865 -0.9108 -2.5184 -3.3458
  104CHL1   C1113916   6.448   5.198   5.999 -0.5687 -0.7611  0.0217
  104CHL1  H11A13917   6.559   5.197   5.993 -0.3163  1.7305  2.4184
  104CHL1  H11B13918   6.426   5.288   6.060 -0.7148  0.4884 -1.7931
  104CHL1    C913919   6.389   5.075   6.067  0.4594 -0.6097 -0.0992
  104CHL1    H913920   6.279   5.091   6.068  0.5088 -0.2195 -0.4367
  104CHL1   C1013921   6.435   5.046   6.217  0.6936 -1.3273 -0.5784
  104CHL1   C1913922   6.592   5.047   6.219  0.2303 -0.0314 -0.3265
  104CHL1  H19A13923   6.622   5.017   6.321  0.1868 -0.6258 -0.4865
  104CHL1  H19B13924   6.622   4.963   6.153  0.6448 -0.3318  0.2329
  104CHL1  H19C13925   6.643   5.139   6.185  0.3177  0.7095  1.6881
  104CHL1    C113926   6.380   5.165   6.312  0.3904  0.1259  0.6842
  104CHL1   H1A13927   6.412   5.269   6.288 -0.2133 -0.2121 -1.9009
  104CHL1   H1B13928   6.272   5.178   6.290  0.4667 -0.4781 -0.1366
  104CHL1    C213929   6.410   5.133   6.457  0.1494  0.1115  0.7454
  104CHL1   H2A13930   6.368   5.219   6.514 -0.8536  0.4054 -0.3745
  104CHL1   H2B13931   6.520   5.127   6.470  0.0461 -0.5315  1.3868
  104CHL1   C2013932   6.370   5.208   5.525 -0.0662  0.0419 -0.0411
  104CHL1   H2013933   6.479   5.225   5.530 -0.1523  0.1596  2.2213
  104CHL1   C2113934   6.297   5.336   5.567  0.3886 -0.2640  0.0493
  104CHL1  H21A13935   6.331   5.423   5.507  1.8344  0.5172  1.8925
  104CHL1  H21B13936   6.301   5.350   5.677  1.6109 -1.2895  0.1677
  104CHL1  H21C13937   6.192   5.315   5.539  0.9683 -3.9668  0.0887
  104CHL1   C2213938   6.329   5.163   5.385  0.1489  0.4171 -0.7452
  104CHL1  H22A13939   6.364   5.061   5.361 -0.9243 -0.1256 -0.1083
  104CHL1  H22B13940   6.218   5.156   5.386  0.2324 -2.0101  1.0635
  104CHL1   C2313941   6.366   5.263   5.273 -0.3910 -0.4281  0.3167
  104CHL1  H23A13942   6.319   5.363   5.288 -0.8882 -0.6733  0.4416
  104CHL1  H23B13943   6.476   5.273   5.284 -0.2964 -0.5219 -0.5309
  104CHL1   C2413944   6.326   5.216   5.136  0.5489  0.7571  0.7910
  104CHL1  H24A13945   6.372   5.116   5.123 -0.2992  0.5303 -0.6892
  104CHL1  H24B13946   6.218   5.196   5.123  0.2806  3.0550 -1.3811
  104CHL1   C2513947   6.369   5.304   5.013  0.1452  0.7066 -0.0194
  104CHL1   H2513948   6.465   5.355   5.037 -0.4671  1.6458  0.4907
  104CHL1   C2613949   6.396   5.202   4.898 -0.0055  0.3065  0.4894
  104CHL1  H26A13950   6.430   5.253   4.805 -0.9366  0.0039 -0.0261
  104CHL1  H26B13951   6.485   5.140   4.920 -0.1678  0.3635  1.3593
  104CHL1  H26C13952   6.305   5.142   4.875  0.8303 -0.6632 -0.3761
  104CHL1   C2713953   6.280   5.427   4.988  0.1400 -0.2481  0.3130
  104CHL1  H27A13954   6.283   5.487   5.081  0.2485 -1.6864  1.2655
  104CHL1  H27B13955   6.317   5.491   4.905  0.7001 -2.0685 -0.9045
  104CHL1  H27C13956   6.174   5.401   4.966  0.3574 -3.4400  2.4820
  105CHL1    C313957   6.199   3.949   6.354  0.4972  0.2976  0.7109
  105CHL1    H313958   6.141   3.872   6.299  0.5067  0.5765  0.3071
  105CHL1    O313959   6.217   3.904   6.484 -0.2723 -0.0910 -0.2942
  105CHL1   H3'13960   6.276   3.968   6.526 -0.4024 -0.7158  0.8586
  105CHL1    C413961   6.327   3.991   6.289 -0.0126 -0.4189 -0.2185
  105CHL1   H4A13962   6.373   4.064   6.358 -1.9151 -0.5072  1.2422
  105CHL1   H4B13963   6.402   3.910   6.273  1.8494  0.4368  3.2030
  105CHL1    C513964   6.311   4.068   6.152 -0.1789 -0.4671  0.1531
  105CHL1    C613965   6.380   4.030   6.042  0.4278  0.3169  0.5619
  105CHL1    H613966   6.449   3.944   6.037 -1.4879 -1.2785  0.3492
  105CHL1    C713967   6.368   4.094   5.911  0.2539 -0.0790 -0.6245
  105CHL1   H7A13968   6.468   4.093   5.862  0.4864  1.7989 -0.2899
  105CHL1   H7B13969   6.306   4.037   5.839  0.7490 -1.3118 -0.0955
  105CHL1    C813970   6.295   4.229   5.921  0.7376 -0.1414  0.0587
  105CHL1    H813971   6.368   4.300   5.966  0.7083  1.2391 -1.9170
  105CHL1   C1413972   6.253   4.275   5.781 -0.4351  0.5666 -0.2849
  105CHL1   H1413973   6.196   4.188   5.743  4.4332 -2.4884 -1.4843
  105CHL1   C1513974   6.361   4.281   5.673  0.4933  0.2471  0.4314
  105CHL1  H15A13975   6.450   4.329   5.719  2.9538 -1.7066 -1.9195
  105CHL1  H15B13976   6.398   4.185   5.630 -1.8855 -0.1445 -0.8619
  105CHL1   C1613977   6.302   4.367   5.564  0.4062 -0.0261  0.3457
  105CHL1  H16A13978   6.380   4.446   5.554  1.5560 -1.3148 -1.4565
  105CHL1  H16B13979   6.296   4.315   5.466  1.3879 -2.2928  1.4264
  105CHL1   C1713980   6.169   4.430   5.617  0.1111  0.7238 -0.2214
  105CHL1   H1713981   6.087   4.366   5.580 -0.5193  1.3138  0.1119
  105CHL1   C1313982   6.177   4.408   5.766 -0.1077  0.2542  0.0595
  105CHL1   C1813983   6.273   4.517   5.824 -0.5464 -0.4534  0.1527
  105CHL1  H18A13984   6.314   4.495   5.925 -1.1606 -0.7213  0.3465
  105CHL1  H18B13985   6.351   4.543   5.749 -1.2109 -0.5036 -0.5668
  105CHL1  H18C13986   6.209   4.607   5.839  0.2851 -0.1139  1.9675
  105CHL1   C1213987   6.047   4.383   5.846 -0.4863 -0.1990 -0.3733
  105CHL1  H12A13988   5.992   4.479   5.856 -1.3689 -0.9208  3.5028
  105CHL1  H12B13989   5.984   4.302   5.803  1.5757 -3.4869  2.1950
  105CHL1   C1113990   6.074   4.349   5.995  0.2320  0.3152  0.3235
  105CHL1  H11A13991   6.124   4.438   6.040 -0.4946  0.7698  0.2391
  105CHL1  H11B13992   5.981   4.346   6.056 -2.1703 -0.7797 -3.0979
  105CHL1    C913993   6.166   4.223   6.007 -0.4172  0.2376 -0.0695
  105CHL1    H913994   6.104   4.143   5.962  1.7283 -1.8888  0.5256
  105CHL1   C1013995   6.203   4.179   6.154 -0.1936  0.1832  0.5042
  105CHL1   C1913996   6.260   4.307   6.235 -0.0274 -0.1525 -0.2647
  105CHL1  H19A13997   6.278   4.275   6.340  3.0004  0.4878 -0.5145
  105CHL1  H19B13998   6.357   4.343   6.196 -0.5562  0.0102 -1.5047
  105CHL1  H19C13999   6.177   4.381   6.234 -0.1062 -0.1803  1.4322
  105CHL1    C114000   6.069   4.130   6.220 -0.6693 -0.0425 -0.9891
  105CHL1   H1A14001   5.991   4.209   6.225 -0.1195  0.4839 -0.3700
  105CHL1   H1B14002   6.034   4.044   6.160  3.0908 -2.1600 -0.5038
  105CHL1    C214003   6.094   4.069   6.359  0.8166  0.3190  0.3634
  105CHL1   H2A14004   6.003   4.020   6.400  0.4301  1.1532  0.5445
  105CHL1   H2B14005   6.130   4.139   6.438 -0.2776  1.6429 -0.2686
  105CHL1   C2014006   6.129   4.562   5.556  0.2294  0.2957  0.2657
  105CHL1   H2014007   6.217   4.629   5.572  0.5489 -0.3701  1.3381
  105CHL1   C2114008   6.004   4.623   5.619  1.1210  0.2485 -0.0098
  105CHL1  H21A14009   5.926   4.546   5.606  1.0650  0.3787 -0.4421
  105CHL1  H21B14010   5.987   4.724   5.576 -1.5904  0.5543  1.5494
  105CHL1  H21C14011   6.021   4.640   5.728  2.0195  1.1712 -0.2756
  105CHL1   C2214012   6.123   4.552   5.402 -0.1769 -0.4896  0.0477
  105CHL1  H22A14013   6.185   4.471   5.357  0.7913  0.1942  0.1317
  105CHL1  H22B14014   6.015   4.548   5.372  0.2966  0.5850 -2.0070
  105CHL1   C2314015   6.179   4.682   5.337  0.9020 -0.3847  0.1463
  105CHL1  H23A14016   6.108   4.764   5.362  1.1445 -0.2232  0.3116
  105CHL1  H23B14017   6.276   4.717   5.379  1.0647 -1.8443  1.0434
  105CHL1   C2414018   6.196   4.675   5.185  0.5376  0.3322 -0.5198
  105CHL1  H24A14019   6.251   4.581   5.161 -3.3766 -2.3299 -0.0378
  105CHL1  H24B14020   6.093   4.664   5.145  0.5601 -0.9092 -0.2916
  105CHL1   C2514021   6.258   4.789   5.116 -0.2146  0.5156 -0.1248
  105CHL1   H2514022   6.218   4.882   5.161 -1.2674 -0.5936  1.3370
  105CHL1   C2614023   6.407   4.802   5.139  0.3250  0.2421 -0.9854
  105CHL1  H26A14024   6.435   4.797   5.246  0.0903 -1.1086 -0.9652
  105CHL1  H26B14025   6.456   4.724   5.076  1.1416 -0.9426  1.0354
  105CHL1  H26C14026   6.448   4.897   5.100 -0.0503 -0.0207 -2.0517
  105CHL1   C2714027   6.231   4.792   4.963  1.0667 -0.4251 -0.2823
  105CHL1  H27A14028   6.122   4.803   4.942  0.6833 -2.4997  0.4701
  105CHL1  H27B14029   6.277   4.885   4.922  0.0144  0.2604  0.0483
  105CHL1  H27C14030   6.267   4.695   4.922 -0.3500 -1.5766  1.0824
  106CHL1    C314031   1.579   1.222   6.296  0.0431 -0.6853  0.0530
  106CHL1    H314032   1.549   1.116   6.308  2.6011 -1.5210 -0.3258
  106CHL1    O314033   1.511   1.297   6.392 -0.0126  0.4182  0.4693
  106CHL1   H3'14034   1.535   1.386   6.367  1.2443 -0.0202  0.0486
  106CHL1    C414035   1.735   1.235   6.310 -0.6696  0.1194 -0.4444
  106CHL1   H4A14036   1.757   1.343   6.318 -1.7356  0.3508 -0.4618
  106CHL1   H4B14037   1.769   1.194   6.408 -0.1968 -0.2083 -0.7418
  106CHL1    C514038   1.806   1.172   6.186  0.5043 -0.0258 -0.1036
  106CHL1    C614039   1.896   1.069   6.206  0.1792 -0.0966 -0.4024
  106CHL1    H614040   1.916   1.053   6.313  0.9666  1.4100 -0.3002
  106CHL1    C714041   1.965   0.978   6.104  0.6299 -0.4991 -0.0545
  106CHL1   H7A14042   2.067   0.945   6.131  1.0044  1.7584  1.6008
  106CHL1   H7B14043   1.909   0.882   6.098  0.8824 -0.6064 -0.7494
  106CHL1    C814044   1.947   1.043   5.959 -0.2591  0.1300 -0.3717
  106CHL1    H814045   2.016   1.130   5.957 -0.6134  0.4379  0.2050
  106CHL1   C1414046   1.994   0.941   5.850  0.0511 -0.2759  0.3943
  106CHL1   H1414047   1.912   0.866   5.853 -0.7588  0.5777  0.0542
  106CHL1   C1514048   2.126   0.856   5.864 -0.0365 -0.3168 -0.0392
  106CHL1  H15A14049   2.203   0.927   5.901 -0.9681 -1.5393  4.9226
  106CHL1  H15B14050   2.116   0.780   5.944  1.5465 -2.2080 -1.5295
  106CHL1   C1614051   2.152   0.804   5.725  0.2303 -1.1203  0.1224
  106CHL1  H16A14052   2.250   0.839   5.687 -0.5050  1.0223  0.0977
  106CHL1  H16B14053   2.142   0.693   5.725 -1.0486 -1.0292 -0.8478
  106CHL1   C1714054   2.041   0.865   5.637  0.1631  1.0128  0.0828
  106CHL1   H1714055   1.961   0.788   5.626 -1.5506  2.6967  0.3207
  106CHL1   C1314056   1.988   0.997   5.706 -0.7470  0.4898 -0.2264
  106CHL1   C1814057   2.094   1.110   5.691 -0.1265  0.1225  0.2152
  106CHL1  H18A14058   2.052   1.197   5.746 -2.6578 -0.5339 -0.5168
  106CHL1  H18B14059   2.195   1.078   5.725  1.2852  2.2906 -1.6136
  106CHL1  H18C14060   2.101   1.149   5.587 -0.6966  0.0705  0.1537
  106CHL1   C1214061   1.840   1.045   5.683  0.3913  0.0479  0.1534
  106CHL1  H12A14062   1.816   1.084   5.581  0.1540  0.4673  0.3665
  106CHL1  H12B14063   1.782   0.954   5.705  1.6429 -0.6051  0.8817
  106CHL1   C1114064   1.785   1.147   5.784 -0.1370  0.1184 -0.3718
  106CHL1  H11A14065   1.841   1.241   5.766  1.2359 -0.3516  1.2572
  106CHL1  H11B14066   1.675   1.164   5.780 -0.2034 -0.3828 -1.0503
  106CHL1    C914067   1.805   1.093   5.932 -0.0427 -0.8555  0.4643
  106CHL1    H914068   1.752   0.996   5.939  0.9944 -1.3361  2.6397
  106CHL1   C1014069   1.755   1.195   6.040 -0.2888 -0.7197  0.2187
  106CHL1   C1914070   1.800   1.339   5.996 -0.2799 -0.6006  0.5296
  106CHL1  H19A14071   1.905   1.343   5.961 -0.1700  1.7887  0.9621
  106CHL1  H19B14072   1.739   1.371   5.909 -0.7779 -1.8408  0.3987
  106CHL1  H19C14073   1.789   1.417   6.075  1.8572 -0.1303  0.4267
  106CHL1    C114074   1.597   1.179   6.052 -0.0519 -0.5036  0.1932
  106CHL1   H1A14075   1.551   1.206   5.955 -0.3235  0.6796  0.6310
  106CHL1   H1B14076   1.571   1.073   6.072 -0.8574 -0.0640  1.6872
  106CHL1    C214077   1.527   1.270   6.156 -0.5102  0.6162  0.1486
  106CHL1   H2A14078   1.418   1.251   6.162 -0.3181 -0.0740  2.6390
  106CHL1   H2B14079   1.553   1.375   6.131 -0.1968  0.4623 -0.1734
  106CHL1   C2014080   2.095   0.884   5.497 -0.2704  0.0016  0.3878
  106CHL1   H2014081   2.181   0.955   5.495  1.7299 -2.2280 -2.4706
  106CHL1   C2114082   1.987   0.935   5.407 -0.7815  0.7920  0.0975
  106CHL1  H21A14083   1.890   0.886   5.429 -0.1421 -0.1716  0.8856
  106CHL1  H21B14084   2.014   0.907   5.303  0.4367 -1.8229  1.0223
  106CHL1  H21C14085   1.988   1.045   5.422  1.4953  0.9821 -0.9146
  106CHL1   C2214086   2.170   0.756   5.434 -0.9140 -0.2374 -0.2737
  106CHL1  H22A14087   2.224   0.791   5.344  0.6255 -0.5174  0.5115
  106CHL1  H22B14088   2.237   0.715   5.513  0.0663  3.6959  1.1662
  106CHL1   C2314089   2.084   0.635   5.389  0.0492  0.3272  0.5369
  106CHL1  H23A14090   2.011   0.610   5.470 -1.9837  1.1432 -0.9640
  106CHL1  H23B14091   2.020   0.664   5.303  0.8444  1.2032  0.2344
  106CHL1   C2414092   2.170   0.514   5.350 -0.9621 -0.0111 -0.0081
  106CHL1  H24A14093   2.261   0.545   5.293 -0.6261 -1.9125 -0.5664
  106CHL1  H24B14094   2.203   0.446   5.431  0.0278 -0.4099 -0.7219
  106CHL1   C2514095   2.098   0.406   5.264  1.2802  0.1409  0.1539
  106CHL1   H2514096   2.079   0.452   5.164 -1.2941  1.5453  1.2103
  106CHL1   C2614097   2.186   0.287   5.239  0.0379 -0.0237 -0.6217
  106CHL1  H26A14098   2.207   0.231   5.333  1.1400  1.9631  0.3946
  106CHL1  H26B14099   2.139   0.218   5.167  0.1644  0.0097 -0.7370
  106CHL1  H26C14100   2.282   0.330   5.203  0.2083 -0.5432 -0.7913
  106CHL1   C2714101   1.968   0.361   5.321  0.2878  0.0040  0.1638
  106CHL1  H27A14102   1.899   0.445   5.346  0.8184 -0.1410  2.2482
  106CHL1  H27B14103   1.915   0.279   5.266 -0.5881 -0.7368  2.0297
  106CHL1  H27C14104   1.995   0.323   5.422 -0.1923 -0.7386  0.0258
  107CHL1    C314105   3.694   5.555   6.482  0.3486  0.0804 -0.3161
  107CHL1    H314106   3.612   5.498   6.432 -0.5793  0.4006  0.7909
  107CHL1    O314107   3.663   5.547   6.623 -0.1349 -0.0907  0.0247
  107CHL1   H3'14108   3.742   5.511   6.664 -0.4828 -1.9743 -0.8901
  107CHL1    C414109   3.828   5.499   6.450 -0.8657  0.3004 -0.0502
  107CHL1   H4A14110   3.898   5.549   6.520 -0.9356 -1.0586  1.0240
  107CHL1   H4B14111   3.839   5.393   6.481 -0.1798  0.7079  1.1625
  107CHL1    C514112   3.859   5.511   6.304 -0.3761  0.1787 -0.0884
  107CHL1    C614113   3.891   5.405   6.231  0.4531  0.5186 -0.0395
  107CHL1    H614114   3.915   5.313   6.286 -0.7269 -1.2471 -2.3110
  107CHL1    C714115   3.918   5.389   6.082  0.1149  0.5089  0.4159
  107CHL1   H7A14116   4.005   5.323   6.062 -1.0599 -0.9316 -0.1516
  107CHL1   H7B14117   3.832   5.346   6.025 -0.6328  0.5496  1.4775
  107CHL1    C814118   3.950   5.528   6.025  0.2595 -0.6523  0.3149
  107CHL1    H814119   4.053   5.558   6.054 -0.1496  2.2069 -0.8264
  107CHL1   C1414120   3.936   5.525   5.869  0.0939  0.9908 -0.0526
  107CHL1   H1414121   3.827   5.519   5.852  0.3809  0.3165 -1.8320
  107CHL1   C1514122   4.012   5.423   5.790 -0.1276 -0.0677  0.0375
  107CHL1  H15A14123   4.116   5.409   5.828 -0.2984 -0.5537  0.3369
  107CHL1  H15B14124   3.972   5.320   5.797  2.0754 -0.9032  1.6925
  107CHL1   C1614125   4.019   5.480   5.647  0.1541  0.1728 -0.2510
  107CHL1  H16A14126   4.124   5.483   5.611  0.3546  0.7245  0.3589
  107CHL1  H16B14127   3.964   5.416   5.575 -0.9031  0.8306 -0.0524
  107CHL1   C1714128   3.964   5.626   5.658 -0.1457  0.1626  0.2517
  107CHL1   H1714129   3.856   5.628   5.632 -0.7023 -0.5370  2.3866
  107CHL1   C1314130   3.960   5.663   5.807 -0.3356 -0.6690 -0.5274
  107CHL1   C1814131   4.111   5.705   5.833  0.9484  0.2917 -0.0711
  107CHL1  H18A14132   4.130   5.716   5.942 -1.8918 -1.9082  0.7767
  107CHL1  H18B14133   4.174   5.621   5.797 -0.3721 -0.4182 -0.8139
  107CHL1  H18C14134   4.132   5.804   5.787  1.2542  0.5705  0.6584
  107CHL1   C1214135   3.854   5.765   5.865 -0.5783 -0.8055  0.0832
  107CHL1  H12A14136   3.860   5.866   5.818  0.6081 -0.2723  1.2987
  107CHL1  H12B14137   3.754   5.722   5.843 -0.8020  0.5002 -1.7558
  107CHL1   C1114138   3.866   5.772   6.018 -0.0507  0.3097  0.1639
  107CHL1  H11A14139   3.965   5.819   6.040  0.6870 -1.2067  0.1981
  107CHL1  H11B14140   3.790   5.842   6.059 -1.5555 -0.3552 -1.4173
  107CHL1    C914141   3.853   5.634   6.082  0.5282 -0.4301  0.1614
  107CHL1    H914142   3.753   5.597   6.051 -0.0008 -0.0808  1.3604
  107CHL1   C1014143   3.839   5.643   6.239 -0.8247 -0.2262 -0.2282
  107CHL1   C1914144   3.963   5.721   6.293  0.2035 -0.0811  0.0816
  107CHL1  H19A14145   3.971   5.741   6.402 -1.7515  0.4080  0.1723
  107CHL1  H19B14146   4.058   5.672   6.262  0.8323  1.1416  0.0224
  107CHL1  H19C14147   3.958   5.818   6.240  2.7052 -1.0318 -2.1200
  107CHL1    C114148   3.707   5.713   6.288  0.6677 -0.4472  0.0762
  107CHL1   H1A14149   3.706   5.818   6.251  0.0304 -0.9874 -1.5455
  107CHL1   H1B14150   3.625   5.660   6.235  1.0802 -1.2090  0.1846
  107CHL1    C214151   3.682   5.702   6.438 -0.2131 -0.3226  0.4212
  107CHL1   H2A14152   3.583   5.739   6.472 -0.7198 -0.0543 -1.2427
  107CHL1   H2B14153   3.764   5.756   6.491 -1.4945  0.5529  1.5687
  107CHL1   C2014154   4.033   5.716   5.558 -0.1740  1.1182 -0.6898
  107CHL1   H2014155   4.143   5.719   5.575  0.0354 -1.1871 -1.2225
  107CHL1   C2114156   3.981   5.863   5.564  0.5086 -0.5967 -0.4148
  107CHL1  H21A14157   3.873   5.865   5.539  0.1799 -1.5050  0.8241
  107CHL1  H21B14158   4.034   5.932   5.495 -1.5108  0.5358 -0.9153
  107CHL1  H21C14159   3.994   5.904   5.666  0.7144 -0.5147 -0.4740
  107CHL1   C2214160   4.022   5.659   5.409  0.9484 -0.4249 -0.3721
  107CHL1  H22A14161   4.049   5.741   5.338 -3.1504  0.2169 -1.4523
  107CHL1  H22B14162   4.079   5.565   5.392 -0.1583 -1.2809  0.5185
  107CHL1   C2314163   3.878   5.613   5.381 -0.1468  0.1184  0.3084
  107CHL1  H23A14164   3.845   5.530   5.447  0.7207  1.1006  2.0505
  107CHL1  H23B14165   3.808   5.697   5.400 -0.1396 -0.0470  1.1025
  107CHL1   C2414166   3.871   5.576   5.234 -0.0004  0.1833  0.0219
  107CHL1  H24A14167   3.916   5.654   5.170 -1.7978 -1.1079 -3.0001
  107CHL1  H24B14168   3.945   5.495   5.216  1.9326  2.1742 -1.5486
  107CHL1   C2514169   3.735   5.545   5.178  0.4741  0.2921 -0.2279
  107CHL1   H2514170   3.663   5.624   5.210  1.2204  0.9805 -0.2249
  107CHL1   C2614171   3.748   5.546   5.026 -0.4837 -0.2972 -0.6796
  107CHL1  H26A14172   3.780   5.647   4.993 -0.2831  0.3094  1.2096
  107CHL1  H26B14173   3.827   5.477   4.990  1.6070  0.2894  2.3539
  107CHL1  H26C14174   3.649   5.526   4.980 -1.1433  1.4986 -0.1074
  107CHL1   C2714175   3.675   5.402   5.215 -0.1177 -0.5779 -0.7190
  107CHL1  H27A14176   3.671   5.394   5.326  3.0392 -2.0414 -0.6022
  107CHL1  H27B14177   3.585   5.382   5.154  0.2639 -1.9279 -0.8739
  107CHL1  H27C14178   3.754   5.329   5.186 -0.0436 -0.8598  0.1472
  108CHL1    C314179   5.606   1.951   6.500  0.1422  1.0152 -0.8553
  108CHL1    H314180   5.578   1.853   6.456  0.4723  1.3715 -1.8862
  108CHL1    O314181   5.598   1.946   6.641 -0.8928  0.0405 -0.1712
  108CHL1   H3'14182   5.626   2.032   6.673 -0.9246 -0.4284  1.1481
  108CHL1    C414183   5.753   1.982   6.461 -0.1825 -0.2124  0.0123
  108CHL1   H4A14184   5.770   2.073   6.522 -1.1526  0.2459 -0.3689
  108CHL1   H4B14185   5.819   1.903   6.502 -1.3420  0.1242  2.7292
  108CHL1    C514186   5.766   2.017   6.313  0.0029  0.6569  0.4940
  108CHL1    C614187   5.858   1.966   6.224  0.0830 -0.1162 -0.0466
  108CHL1    H614188   5.932   1.892   6.258  0.1207 -0.6368 -1.2406
  108CHL1    C714189   5.879   2.017   6.089 -0.5721  0.2940  0.2114
  108CHL1   H7A14190   5.985   2.048   6.072 -1.2139  2.1174 -0.7628
  108CHL1   H7B14191   5.852   1.942   6.012  1.9916  0.4022 -0.8957
  108CHL1    C814192   5.811   2.153   6.053  0.2881 -0.3130 -0.0968
  108CHL1    H814193   5.860   2.237   6.106 -0.9965  2.1630 -2.6379
  108CHL1   C1414194   5.809   2.178   5.903 -0.1720 -0.6620  0.2358
  108CHL1   H1414195   5.750   2.089   5.872 -0.1622 -0.2271 -1.1012
  108CHL1   C1514196   5.939   2.179   5.821  0.0783  0.1246 -0.4999
  108CHL1  H15A14197   6.014   2.237   5.879 -0.8513 -0.2692  1.1441
  108CHL1  H15B14198   5.970   2.075   5.798  2.3104  0.7347 -0.4732
  108CHL1   C1614199   5.904   2.255   5.693  0.2027  0.0919  0.7263
  108CHL1  H16A14200   5.971   2.343   5.682 -1.2982  1.3542  1.4824
  108CHL1  H16B14201   5.910   2.193   5.600  2.0698 -0.7714  1.3624
  108CHL1   C1714202   5.759   2.302   5.718 -0.6710  0.0105  0.2612
  108CHL1   H1714203   5.688   2.221   5.693 -1.3878  1.1913 -1.7308
  108CHL1   C1314204   5.735   2.312   5.872  0.3491 -0.0860  0.2941
  108CHL1   C1814205   5.794   2.442   5.928 -0.6538  0.1488  0.0636
  108CHL1  H18A14206   5.896   2.453   5.886 -1.2740 -0.3058 -1.6425
  108CHL1  H18B14207   5.737   2.533   5.900 -0.5355  0.6592  1.3971
  108CHL1  H18C14208   5.805   2.429   6.038  1.8962  2.2456  0.1645
  108CHL1   C1214209   5.592   2.302   5.916  0.5516 -0.4079 -0.5736
  108CHL1  H12A14210   5.546   2.397   5.882  1.4455  0.4768  0.6068
  108CHL1  H12B14211   5.547   2.215   5.863 -0.1312 -0.6670  0.4051
  108CHL1   C1114212   5.584   2.283   6.071 -0.0009  0.1602  0.5108
  108CHL1  H11A14213   5.627   2.378   6.110  2.3041  0.3925 -2.2117
  108CHL1  H11B14214   5.479   2.266   6.101 -0.3300 -0.1122 -0.7217
  108CHL1    C914215   5.661   2.158   6.110 -0.0804  0.0263 -0.1160
  108CHL1    H914216   5.609   2.071   6.066 -0.4927 -0.1729  0.7649
  108CHL1   C1014217   5.665   2.130   6.265  0.2825  0.2579  0.4769
  108CHL1   C1914218   5.697   2.266   6.334 -0.2322  0.2445 -0.3080
  108CHL1  H19A14219   5.613   2.338   6.329  1.1344  2.1915  2.2940
  108CHL1  H19B14220   5.706   2.247   6.443  1.9046 -1.6351 -0.7202
  108CHL1  H19C14221   5.786   2.320   6.296  1.3086 -0.8306  1.5664
  108CHL1    C114222   5.527   2.090   6.308  0.8819  0.1184  0.4639
  108CHL1   H1A14223   5.453   2.169   6.284  2.0291  1.0438 -0.0992
  108CHL1   H1B14224   5.496   1.998   6.254 -0.7340 -1.0007  3.0909
  108CHL1    C214225   5.505   2.062   6.460 -0.2293 -0.0825  0.1264
  108CHL1   H2A14226   5.400   2.027   6.470  0.3459 -2.3886 -1.1371
  108CHL1   H2B14227   5.511   2.159   6.513 -1.6951 -0.0871  0.3337
  108CHL1   C2014228   5.701   2.420   5.630  0.4229 -0.3887  0.4456
  108CHL1   H2014229   5.612   2.456   5.687  0.0609  0.4748 -0.6290
  108CHL1   C2114230   5.664   2.353   5.492  0.2817  0.0701  0.3305
  108CHL1  H21A14231   5.751   2.302   5.446 -0.0807 -1.4049  1.2010
  108CHL1  H21B14232   5.618   2.432   5.429  0.0883  1.2666  1.8899
  108CHL1  H21C14233   5.591   2.269   5.500  0.6177 -0.3985 -1.1785
  108CHL1   C2214234   5.792   2.542   5.606 -0.2462 -0.3961  0.3672
  108CHL1  H22A14235   5.843   2.574   5.699 -1.3474  1.6883  0.3123
  108CHL1  H22B14236   5.874   2.515   5.536  0.2815  3.4257 -0.6708
  108CHL1   C2314237   5.724   2.667   5.550 -0.4514  0.2313  0.1928
  108CHL1  H23A14238   5.651   2.617   5.483 -1.7098  2.2896 -0.0517
  108CHL1  H23B14239   5.664   2.719   5.629 -0.3774 -0.2483  0.5710
  108CHL1   C2414240   5.814   2.762   5.482  0.1321 -0.3476  0.2993
  108CHL1  H24A14241   5.876   2.824   5.549 -0.8835 -0.3162  1.2361
  108CHL1  H24B14242   5.889   2.708   5.421  1.4363 -0.6839  2.1400
  108CHL1   C2514243   5.744   2.858   5.383  0.0808  0.0149 -0.0882
  108CHL1   H2514244   5.682   2.801   5.311  0.5712 -0.8970  0.1936
  108CHL1   C2614245   5.654   2.951   5.460 -0.1026  0.1669  0.9381
  108CHL1  H26A14246   5.633   3.041   5.398  0.4729  0.7222  1.5235
  108CHL1  H26B14247   5.559   2.903   5.492 -0.3954 -0.3519 -0.6634
  108CHL1  H26C14248   5.707   2.999   5.546  1.2661  1.9809 -0.8326
  108CHL1   C2714249   5.844   2.946   5.306  0.6956 -0.5837 -0.4772
  108CHL1  H27A14250   5.787   3.010   5.236 -0.0410 -1.0773 -0.3467
  108CHL1  H27B14251   5.912   2.996   5.377  0.3442 -1.8725  0.8324
  108CHL1  H27C14252   5.918   2.889   5.246  0.4853 -1.9812  0.5362
  109CHL1    C314253   2.495   4.980   6.509 -0.3014  0.8402  0.1690
  109CHL1    H314254   2.514   5.084   6.546  1.5029  0.0458  1.6476
  109CHL1    O314255   2.514   4.889   6.614  0.3350  0.5162 -0.2334
  109CHL1   H3'14256   2.492   4.804   6.575  0.8987  0.9185 -1.4597
  109CHL1    C414257   2.348   4.959   6.460  0.0089 -0.0655 -0.4146
  109CHL1   H4A14258   2.327   4.852   6.442  0.8040 -0.4655  0.9342
  109CHL1   H4B14259   2.282   4.989   6.544 -0.4403 -0.7299 -0.5192
  109CHL1    C514260   2.314   5.043   6.343 -0.6610  0.7085  0.7374
  109CHL1    C614261   2.202   5.118   6.338  0.6998 -0.5776  0.7591
  109CHL1    H614262   2.128   5.124   6.420 -1.6482  0.2012 -1.2751
  109CHL1    C714263   2.168   5.197   6.214  0.3935 -0.1599  0.6707
  109CHL1   H7A14264   2.063   5.194   6.178  0.3103  4.9194 -0.2324
  109CHL1   H7B14265   2.171   5.302   6.250 -1.7049  0.5539 -1.0192
  109CHL1    C814266   2.263   5.185   6.093  0.1882 -0.5783  0.5402
  109CHL1    H814267   2.222   5.106   6.025 -0.2423 -1.6870  2.0343
  109CHL1   C1414268   2.275   5.321   6.022  0.1170  0.1364  0.2247
  109CHL1   H1414269   2.333   5.390   6.087  1.5150  1.1814 -1.9926
  109CHL1   C1514270   2.140   5.388   5.993  0.3883 -0.1104 -0.3132
  109CHL1  H15A14271   2.075   5.316   5.939 -0.1893  1.7801 -2.2963
  109CHL1  H15B14272   2.080   5.433   6.075 -0.0561 -1.4577  0.1235
  109CHL1   C1614273   2.190   5.498   5.899 -0.4662 -0.4275  0.2805
  109CHL1  H16A14274   2.119   5.501   5.814 -1.1895  0.1396  0.8851
  109CHL1  H16B14275   2.185   5.591   5.960 -0.8110  1.2154 -2.1139
  109CHL1   C1714276   2.333   5.470   5.843 -0.5672 -0.5898  0.0761
  109CHL1   H1714277   2.397   5.523   5.917  0.4941 -2.0626  0.2448
  109CHL1   C1314278   2.349   5.325   5.884 -0.2321  1.2834 -0.5210
  109CHL1   C1814279   2.273   5.224   5.790  0.0904  0.5130  0.1912
  109CHL1  H18A14280   2.268   5.117   5.818 -2.2865  0.4795 -0.0989
  109CHL1  H18B14281   2.180   5.275   5.756  0.6285  1.9192  0.7529
  109CHL1  H18C14282   2.329   5.218   5.694 -0.5620  1.1067 -0.2372
  109CHL1   C1214283   2.492   5.276   5.919  0.5381 -0.5124  0.5499
  109CHL1  H12A14284   2.555   5.262   5.828  0.1131  1.1640 -0.0435
  109CHL1  H12B14285   2.542   5.356   5.978 -0.1153 -1.6577  2.7572
  109CHL1   C1114286   2.502   5.146   6.000 -0.1560 -0.1198  0.5621
  109CHL1  H11A14287   2.476   5.063   5.931  0.9461  2.8681 -3.8357
  109CHL1  H11B14288   2.607   5.122   6.027  0.5481 -0.7330 -2.4181
  109CHL1    C914289   2.410   5.149   6.132  0.5330  0.1302  0.5438
  109CHL1    H914290   2.447   5.239   6.186 -0.4844  1.9306 -1.5949
  109CHL1   C1014291   2.426   5.030   6.233  0.4341  0.7046  0.1964
  109CHL1   C1914292   2.395   4.906   6.149 -0.2792  0.4767  0.2110
  109CHL1  H19A14293   2.292   4.924   6.110  0.1848  0.4320 -1.0852
  109CHL1  H19B14294   2.465   4.884   6.065  1.2496  0.5150  1.4377
  109CHL1  H19C14295   2.399   4.816   6.212 -0.3620  0.9657  0.9251
  109CHL1    C114296   2.576   5.021   6.279  0.2237 -0.3790 -0.7031
  109CHL1   H1A14297   2.643   5.000   6.193  0.9855  0.9827 -0.4623
  109CHL1   H1B14298   2.598   5.122   6.319 -0.2867 -1.0432  1.3692
  109CHL1    C214299   2.590   4.934   6.401 -0.8242 -0.0584 -0.8995
  109CHL1   H2A14300   2.694   4.945   6.440 -1.4139  1.0213  0.4582
  109CHL1   H2B14301   2.591   4.827   6.370  2.1229 -0.2506 -0.4829
  109CHL1   C2014302   2.344   5.508   5.697 -0.2767  0.1791  0.3235
  109CHL1   H2014303   2.265   5.447   5.647 -1.4064  1.0887  0.9619
  109CHL1   C2114304   2.483   5.475   5.638 -0.0413  0.1636  0.1112
  109CHL1  H21A14305   2.565   5.498   5.710 -2.1450 -1.1375  3.1441
  109CHL1  H21B14306   2.502   5.528   5.543 -0.1509 -1.3956 -0.8291
  109CHL1  H21C14307   2.496   5.367   5.614  2.2780  0.5432 -0.5429
  109CHL1   C2214308   2.318   5.659   5.664  0.0916 -0.4727  0.5826
  109CHL1  H22A14309   2.236   5.702   5.725 -0.9632 -0.7443 -0.5902
  109CHL1  H22B14310   2.410   5.720   5.674  2.0271 -2.8536 -1.2643
  109CHL1   C2314311   2.275   5.673   5.514  0.6118 -0.0566 -0.0673
  109CHL1  H23A14312   2.358   5.661   5.442  0.4955  0.9408 -0.3808
  109CHL1  H23B14313   2.208   5.590   5.485  0.5255  0.1272 -0.3931
  109CHL1   C2414314   2.204   5.807   5.477  0.2610 -0.3381  0.8154
  109CHL1  H24A14315   2.106   5.822   5.528 -0.8086  0.2841 -1.2997
  109CHL1  H24B14316   2.269   5.894   5.503 -0.6688  0.7912 -0.4724
  109CHL1   C2514317   2.158   5.827   5.333 -0.2489 -0.0328 -0.0170
  109CHL1   H2514318   2.104   5.735   5.301  0.2927 -0.5206  0.4304
  109CHL1   C2614319   2.063   5.945   5.329  0.6695  0.3157  0.6938
  109CHL1  H26A14320   2.127   6.034   5.350  0.8723  0.5065 -0.6177
  109CHL1  H26B14321   2.036   5.951   5.222 -1.0812 -1.0164  1.0291
  109CHL1  H26C14322   1.970   5.940   5.390 -0.7456 -0.9268 -1.4571
  109CHL1   C2714323   2.277   5.855   5.242 -0.2004  0.1896 -0.8326
  109CHL1  H27A14324   2.338   5.933   5.293 -0.1943 -0.4136  0.1038
  109CHL1  H27B14325   2.345   5.768   5.238  0.2805  0.4746  0.5778
  109CHL1  H27C14326   2.252   5.887   5.139  1.5661  0.0768 -1.3238
  110CHL1    C314327   0.381   5.254   6.454 -0.1071 -0.3679  0.4532
  110CHL1    H314328   0.344   5.155   6.418  0.1696  0.2989 -1.8185
  110CHL1    O314329   0.291   5.295   6.558  0.5955 -0.2224 -0.2205
  110CHL1   H3'14330   0.201   5.273   6.533  0.1313  1.3970 -0.0990
  110CHL1    C414331   0.519   5.221   6.508 -0.2780  0.6253 -0.7165
  110CHL1   H4A14332   0.554   5.308   6.566 -0.8011 -1.2087  2.6418
  110CHL1   H4B14333   0.517   5.145   6.589 -1.5930  3.1878  1.8331
  110CHL1    C514334   0.614   5.185   6.394 -0.2121 -0.6710  0.0596
  110CHL1    C614335   0.678   5.072   6.388  0.1910  0.8124  0.7148
  110CHL1    H614336   0.672   5.011   6.480  2.9022  0.6191  0.8220
  110CHL1    C714337   0.780   5.033   6.287 -1.0254  0.0297 -0.3961
  110CHL1   H7A14338   0.872   5.015   6.346 -1.3239 -0.6462 -0.1279
  110CHL1   H7B14339   0.743   4.942   6.235 -0.7108  0.2223 -0.9595
  110CHL1    C814340   0.818   5.150   6.188  0.7142  0.4425  0.3271
  110CHL1    H814341   0.895   5.216   6.234 -1.1775  2.6562  0.5216
  110CHL1   C1414342   0.887   5.083   6.065  0.0537 -0.6776 -0.4947
  110CHL1   H1414343   0.814   5.006   6.032 -1.8158  0.8209 -0.0695
  110CHL1   C1514344   1.018   5.005   6.088  0.2195 -0.0457 -0.7370
  110CHL1  H15A14345   1.083   5.062   6.157 -2.8224  0.7784  1.6834
  110CHL1  H15B14346   0.995   4.904   6.129 -2.7992  0.2350 -1.5153
  110CHL1   C1614347   1.073   5.005   5.939  0.5627 -0.6524 -0.1870
  110CHL1  H16A14348   1.163   5.069   5.932  0.4258 -0.4870 -0.4823
  110CHL1  H16B14349   1.090   4.899   5.911 -2.7382 -1.3668  0.0625
  110CHL1   C1714350   0.965   5.071   5.851  0.5321 -0.0130  0.6046
  110CHL1   H1714351   0.888   4.992   5.844  0.1221  0.4501 -0.1816
  110CHL1   C1314352   0.899   5.177   5.939 -0.6263 -0.4811 -0.3786
  110CHL1   C1814353   1.001   5.293   5.969  0.6651  0.5407 -0.3914
  110CHL1  H18A14354   1.104   5.253   5.984  0.3339 -0.3203 -0.3192
  110CHL1  H18B14355   0.986   5.372   5.892 -0.4237  0.9139  0.1922
  110CHL1  H18C14356   0.972   5.344   6.063  0.0130  0.0989 -0.3438
  110CHL1   C1214357   0.758   5.230   5.911  0.2489  1.0869 -0.0929
  110CHL1  H12A14358   0.767   5.296   5.822 -0.2305  2.0686  0.5706
  110CHL1  H12B14359   0.698   5.138   5.894  0.6349  0.3909  2.0141
  110CHL1   C1114360   0.698   5.311   6.028  0.0309 -0.0927  0.4698
  110CHL1  H11A14361   0.752   5.406   6.044 -1.2898  0.5460  1.2992
  110CHL1  H11B14362   0.596   5.336   5.991 -0.2089  1.7302  2.2483
  110CHL1    C914363   0.691   5.224   6.150 -0.1687 -0.0501  0.2586
  110CHL1    H914364   0.623   5.145   6.112  0.2209  0.7908 -2.3770
  110CHL1   C1014365   0.622   5.290   6.277  0.3550 -0.6997 -0.0260
  110CHL1   C1914366   0.698   5.416   6.325 -0.8176  0.1064  0.1835
  110CHL1  H19A14367   0.803   5.382   6.338 -1.4734 -2.7632 -1.2255
  110CHL1  H19B14368   0.699   5.488   6.241 -0.2258 -0.2354 -0.1085
  110CHL1  H19C14369   0.654   5.465   6.415 -1.3037 -1.4732  0.8526
  110CHL1    C114370   0.480   5.325   6.235  0.6643  0.2403  0.0545
  110CHL1   H1A14371   0.485   5.411   6.165 -0.2656 -0.0751 -0.4135
  110CHL1   H1B14372   0.431   5.245   6.177 -0.8159  1.1572 -0.0031
  110CHL1    C214373   0.387   5.368   6.349  0.4306 -0.3642 -0.0803
  110CHL1   H2A14374   0.286   5.378   6.303  1.3935 -1.1206 -2.4922
  110CHL1   H2B14375   0.432   5.458   6.397 -0.8698 -1.0235  2.5522
  110CHL1   C2014376   0.996   5.113   5.706 -0.1165 -0.0929  0.0238
  110CHL1   H2014377   1.013   5.223   5.708  0.9950 -0.2679  0.7651
  110CHL1   C2114378   0.872   5.090   5.617  0.4638  0.1515  0.6355
  110CHL1  H21A14379   0.883   5.136   5.517  0.0819 -4.5195 -1.8467
  110CHL1  H21B14380   0.780   5.134   5.661 -0.4368  0.7988 -1.7481
  110CHL1  H21C14381   0.859   4.982   5.593  1.3910  0.0500  0.5501
  110CHL1   C2214382   1.135   5.061   5.651 -0.6046 -0.1421 -0.6103
  110CHL1  H22A14383   1.214   5.103   5.718 -0.5364 -0.3039 -0.5880
  110CHL1  H22B14384   1.135   4.950   5.662 -0.3052 -0.1109 -0.2661
  110CHL1   C2314385   1.173   5.088   5.509  0.1724 -1.0792 -1.0036
  110CHL1  H23A14386   1.120   5.032   5.428  1.7074 -0.1628 -2.6889
  110CHL1  H23B14387   1.146   5.194   5.493  2.7797 -0.2395 -0.2849
  110CHL1   C2414388   1.321   5.066   5.482  0.4707 -0.1387  0.1015
  110CHL1  H24A14389   1.374   5.128   5.557 -2.1517  1.4076  0.7706
  110CHL1  H24B14390   1.342   4.957   5.492 -1.2636 -0.5337 -0.2819
  110CHL1   C2514391   1.366   5.124   5.349  0.3188  0.4516  0.1018
  110CHL1   H2514392   1.313   5.219   5.326  0.4074  0.9278  1.7411
  110CHL1   C2614393   1.508   5.174   5.354 -0.2643  0.3757  0.0196
  110CHL1  H26A14394   1.546   5.235   5.269 -1.8733  0.4202 -0.6995
  110CHL1  H26B14395   1.523   5.246   5.437  1.4118 -1.1783  1.1378
  110CHL1  H26C14396   1.568   5.083   5.377  0.3802  1.1071  1.3207
  110CHL1   C2714397   1.354   5.027   5.225 -0.0624 -0.8460 -0.5187
  110CHL1  H27A14398   1.377   5.083   5.132  3.1809  0.2153  0.7773
  110CHL1  H27B14399   1.438   4.954   5.234  2.4026  1.6245 -1.8554
  110CHL1  H27C14400   1.254   4.979   5.220 -0.6878  0.3951 -0.0966
  111CHL1    C314401   1.898   7.314   6.542 -0.3204  0.0484 -0.0807
  111CHL1    H314402   1.905   7.214   6.494 -1.0383 -0.6768  1.2709
  111CHL1    O314403   1.896   7.325   6.679  0.1167  0.1033 -0.6570
  111CHL1   H3'14404   1.836   7.397   6.702 -0.3219 -0.3536 -0.3551
  111CHL1    C414405   2.020   7.405   6.494 -0.2298  0.0696  0.4064
  111CHL1   H4A14406   2.011   7.501   6.548 -0.3231 -0.5860  1.5763
  111CHL1   H4B14407   2.118   7.356   6.515 -1.1559 -1.6769  0.8881
  111CHL1    C514408   2.013   7.424   6.340  0.3853 -0.8652 -0.5435
  111CHL1    C614409   2.112   7.403   6.252  0.5668 -0.0094 -0.4681
  111CHL1    H614410   2.206   7.376   6.303  0.1143 -1.3571 -0.3086
  111CHL1    C714411   2.107   7.440   6.109 -0.1328 -0.3541  0.2155
  111CHL1   H7A14412   2.200   7.497   6.087 -0.1885 -0.0752  0.6814
  111CHL1   H7B14413   2.103   7.345   6.051 -2.0363 -0.7076  0.8767
  111CHL1    C814414   1.985   7.534   6.068 -0.0504  0.0740 -0.3427
  111CHL1    H814415   2.023   7.635   6.096  1.2848 -0.6295  0.4881
  111CHL1   C1414416   1.966   7.524   5.920  0.3383  0.1973  0.4462
  111CHL1   H1414417   1.951   7.417   5.892 -3.2705  0.9178 -1.0003
  111CHL1   C1514418   2.093   7.570   5.838 -0.2428 -0.4152  0.4414
  111CHL1  H15A14419   2.147   7.664   5.863  1.3756 -1.5455  1.4475
  111CHL1  H15B14420   2.170   7.489   5.832 -0.7116 -0.7471 -2.2519
  111CHL1   C1614421   2.030   7.589   5.698 -0.6741 -0.8427  0.4306
  111CHL1  H16A14422   2.045   7.694   5.666 -1.8629 -1.5497 -2.8150
  111CHL1  H16B14423   2.069   7.521   5.619  0.7608 -0.6514  0.9428
  111CHL1   C1714424   1.870   7.585   5.714 -0.2241  0.1678 -0.5432
  111CHL1   H1714425   1.841   7.480   5.695  0.2315 -0.1290  0.3533
  111CHL1   C1314426   1.845   7.605   5.867  0.3524 -0.4079 -0.1733
  111CHL1   C1814427   1.862   7.754   5.903  0.4984 -0.0572 -0.0773
  111CHL1  H18A14428   1.953   7.785   5.847  0.3493  0.0892 -0.2406
  111CHL1  H18B14429   1.768   7.813   5.891 -0.1914 -0.7886  1.4934
  111CHL1  H18C14430   1.878   7.764   6.012 -3.8981 -0.3407  0.7789
  111CHL1   C1214431   1.719   7.547   5.938  0.0242 -0.1010 -0.2310
  111CHL1  H12A14432   1.636   7.607   5.895 -1.2091 -1.4687  0.1309
  111CHL1  H12B14433   1.702   7.442   5.903  2.2451 -0.2236 -1.0835
  111CHL1   C1114434   1.729   7.560   6.088  0.1650  0.3854 -0.5246
  111CHL1  H11A14435   1.726   7.667   6.118  1.6811  0.1314  0.6971
  111CHL1  H11B14436   1.638   7.524   6.140 -0.2431  3.2129  0.9412
  111CHL1    C914437   1.860   7.486   6.140 -0.5398 -0.0500  0.0206
  111CHL1    H914438   1.847   7.381   6.106  2.1823 -1.3688  2.5855
  111CHL1   C1014439   1.875   7.483   6.294  0.3130 -0.4016  0.3529
  111CHL1   C1914440   1.849   7.623   6.358 -0.1771 -0.3808 -0.0950
  111CHL1  H19A14441   1.842   7.624   6.469 -3.7105  0.6771 -0.1950
  111CHL1  H19B14442   1.917   7.702   6.320 -1.2414  1.4379  1.5888
  111CHL1  H19C14443   1.750   7.668   6.334 -1.3645 -1.0928  2.9216
  111CHL1    C114444   1.761   7.388   6.346  0.5061  0.1642 -0.0435
  111CHL1   H1A14445   1.662   7.431   6.318 -0.8793 -0.3991  3.5113
  111CHL1   H1B14446   1.778   7.290   6.296  0.0488 -0.9446  1.9004
  111CHL1    C214447   1.766   7.369   6.498 -0.1839 -0.0320 -0.3478
  111CHL1   H2A14448   1.687   7.297   6.525 -1.7032  2.3641  2.1321
  111CHL1   H2B14449   1.739   7.462   6.554  2.9480  0.7189  0.1322
  111CHL1   C2014450   1.791   7.674   5.612 -0.4355  0.2249  0.5208
  111CHL1   H2014451   1.814   7.783   5.620 -0.5115  0.2356  0.6072
  111CHL1   C2114452   1.636   7.669   5.641 -0.1172  0.4381 -0.2698
  111CHL1  H21A14453   1.572   7.712   5.561  1.5964 -0.1646 -2.0407
  111CHL1  H21B14454   1.616   7.719   5.738  2.7461 -0.6523  0.9886
  111CHL1  H21C14455   1.600   7.565   5.654 -3.4795  1.6993  1.7995
  111CHL1   C2214456   1.804   7.638   5.467  0.1879  0.1297  0.1190
  111CHL1  H22A14457   1.913   7.643   5.444 -0.1639  2.6054 -1.4351
  111CHL1  H22B14458   1.763   7.538   5.438 -1.9663  1.6766 -2.6793
  111CHL1   C2314459   1.738   7.746   5.370 -0.5515 -0.5234 -0.2946
  111CHL1  H23A14460   1.630   7.724   5.371 -0.6028 -0.2771  1.0846
  111CHL1  H23B14461   1.756   7.853   5.395 -2.2679 -0.4795  0.8712
  111CHL1   C2414462   1.779   7.711   5.230 -0.6429  0.1016  0.3164
  111CHL1  H24A14463   1.885   7.743   5.220 -0.5950 -0.4620 -1.1226
  111CHL1  H24B14464   1.780   7.604   5.200 -1.8138 -0.3084  1.6097
  111CHL1   C2514465   1.708   7.785   5.113 -0.5122  0.6236  0.0277
  111CHL1   H2514466   1.716   7.893   5.137  0.0951 -0.0857  3.5034
  111CHL1   C2614467   1.786   7.750   4.983  0.2746 -0.3025 -0.3600
  111CHL1  H26A14468   1.736   7.800   4.897  1.8830  0.7156 -0.7450
  111CHL1  H26B14469   1.883   7.801   4.998  0.2851 -0.1110 -1.0456
  111CHL1  H26C14470   1.800   7.641   4.969 -3.1197 -0.7638 -1.0801
  111CHL1   C2714471   1.559   7.745   5.102 -0.2890  0.1849  0.2271
  111CHL1  H27A14472   1.547   7.635   5.096  0.2761  0.1132  0.4021
  111CHL1  H27B14473   1.496   7.789   5.182 -0.7154 -0.0398  0.0227
  111CHL1  H27C14474   1.517   7.784   5.006 -3.0318 -1.6769  0.5415
  112CHL1    C314475   4.124   0.647   6.544  0.6927  0.2476  0.4484
  112CHL1    H314476   4.224   0.609   6.514  1.6390  2.3929  0.6445
  112CHL1    O314477   4.112   0.624   6.682 -0.4294  0.0466  0.1754
  112CHL1   H3'14478   4.129   0.533   6.707 -0.5547 -0.5073 -1.6241
  112CHL1    C414479   4.129   0.798   6.512  0.0715  0.2908 -0.2808
  112CHL1   H4A14480   4.048   0.853   6.563 -0.7536  0.4466 -1.7227
  112CHL1   H4B14481   4.223   0.833   6.561  1.7658 -2.1565 -1.5600
  112CHL1    C514482   4.125   0.827   6.361 -0.0864 -0.0468  0.2673
  112CHL1    C614483   4.214   0.908   6.297  0.1872 -0.1638  0.2095
  112CHL1    H614484   4.288   0.960   6.359  0.2430 -1.3356  1.1850
  112CHL1    C714485   4.216   0.935   6.150 -0.4355  0.8490 -0.2309
  112CHL1   H7A14486   4.239   1.040   6.122 -2.5274  1.3359 -0.2754
  112CHL1   H7B14487   4.302   0.875   6.113 -0.2397  0.9801  0.0174
  112CHL1    C814488   4.085   0.899   6.075 -0.0504 -0.8293  0.1815
  112CHL1    H814489   4.015   0.981   6.104 -1.6418 -1.8805 -0.5561
  112CHL1   C1414490   4.099   0.898   5.930 -0.4966 -0.0509 -0.6562
  112CHL1   H1414491   4.158   0.805   5.913  0.6627 -0.1561  3.0938
  112CHL1   C1514492   4.178   1.010   5.855  0.8890 -0.1636  0.7738
  112CHL1  H15A14493   4.147   1.111   5.888 -0.2812  0.2398 -1.3087
  112CHL1  H15B14494   4.287   1.002   5.873  1.2817 -1.1655 -1.6458
  112CHL1   C1614495   4.139   0.983   5.712 -0.2742  0.1488  0.0749
  112CHL1  H16A14496   4.112   1.082   5.670 -1.8142  0.3348  1.4228
  112CHL1  H16B14497   4.231   0.944   5.662 -1.5815 -2.0406 -0.7486
  112CHL1   C1714498   4.038   0.869   5.706  0.9353 -0.5069  0.1398
  112CHL1   H1714499   4.087   0.770   5.696 -2.4462 -2.1796 -1.2031
  112CHL1   C1314500   3.973   0.869   5.846 -0.6074 -0.4763 -0.2276
  112CHL1   C1814501   3.873   0.995   5.860 -0.2345 -0.4021  0.5475
  112CHL1  H18A14502   3.922   1.083   5.813 -0.2400 -0.9151 -0.4395
  112CHL1  H18B14503   3.775   0.978   5.810 -1.5736 -0.5935  3.0698
  112CHL1  H18C14504   3.846   1.014   5.966 -1.0850 -0.7370  0.3974
  112CHL1   C1214505   3.921   0.734   5.892 -0.1140  0.3871  0.1718
  112CHL1  H12A14506   3.829   0.700   5.840 -1.6905  0.3808  2.7874
  112CHL1  H12B14507   3.990   0.653   5.860 -1.2234 -0.3521 -0.4324
  112CHL1   C1114508   3.899   0.729   6.047  0.3087  0.1469  0.8527
  112CHL1  H11A14509   3.824   0.810   6.065 -0.1057 -0.1565  0.4933
  112CHL1  H11B14510   3.863   0.630   6.081  1.5090  0.5025  3.4723
  112CHL1    C914511   4.028   0.764   6.126 -0.9055 -0.1147 -0.0083
  112CHL1    H914512   4.094   0.677   6.104 -0.9749 -0.0508 -0.4920
  112CHL1   C1014513   4.018   0.756   6.281  0.0551  0.2666 -1.1245
  112CHL1   C1914514   3.882   0.822   6.321 -1.0082 -0.3692 -0.0248
  112CHL1  H19A14515   3.794   0.775   6.272 -1.4130  0.9502 -0.6109
  112CHL1  H19B14516   3.843   0.809   6.425 -0.7912 -0.2172  0.0772
  112CHL1  H19C14517   3.877   0.931   6.299 -1.1716  0.4610  3.4692
  112CHL1    C114518   4.025   0.611   6.325  0.0740 -0.0287 -0.4541
  112CHL1   H1A14519   3.939   0.568   6.270  1.1542  0.7504 -2.8953
  112CHL1   H1B14520   4.109   0.550   6.286  1.4126  1.2842  0.2707
  112CHL1    C214521   4.003   0.581   6.481 -0.6909 -0.4258  0.2832
  112CHL1   H2A14522   4.002   0.471   6.494  0.9357 -0.3233  1.5914
  112CHL1   H2B14523   3.917   0.642   6.517 -1.1063 -1.8463  1.7965
  112CHL1   C2014524   3.940   0.891   5.585  0.2927 -0.3313 -0.1657
  112CHL1   H2014525   3.890   0.989   5.603  1.7272  0.6460 -1.3098
  112CHL1   C2114526   3.827   0.790   5.591  0.6207  0.2058 -0.1600
  112CHL1  H21A14527   3.765   0.789   5.499 -1.1425  0.2488  0.9841
  112CHL1  H21B14528   3.768   0.815   5.681  1.4727 -0.1890  0.5171
  112CHL1  H21C14529   3.882   0.695   5.607 -1.0144 -0.4123  2.1286
  112CHL1   C2214530   4.015   0.897   5.452 -0.4268  0.1306  0.0336
  112CHL1  H22A14531   4.067   0.995   5.465 -0.7750  0.3861 -0.4892
  112CHL1  H22B14532   4.096   0.822   5.439 -2.1013 -1.5673 -0.8674
  112CHL1   C2314533   3.928   0.907   5.324  0.1833 -0.1644  0.0249
  112CHL1  H23A14534   3.864   0.816   5.316 -2.2372  1.4040  0.4288
  112CHL1  H23B14535   3.857   0.991   5.338  0.4256  0.6393 -3.0071
  112CHL1   C2414536   4.007   0.945   5.197  0.0497 -0.4895 -1.3644
  112CHL1  H24A14537   4.080   1.028   5.213 -1.5921  0.4092  2.7803
  112CHL1  H24B14538   4.073   0.859   5.172 -0.1543 -0.5465 -1.6978
  112CHL1   C2514539   3.935   0.980   5.071  0.4413  0.3271  0.5317
  112CHL1   H2514540   3.860   0.904   5.042  0.6939  0.8267 -1.5548
  112CHL1   C2614541   3.856   1.114   5.097  0.1684  0.4010  0.9507
  112CHL1  H26A14542   3.770   1.101   5.165 -0.6989  1.8949  0.1791
  112CHL1  H26B14543   3.925   1.186   5.145  1.2362  0.7093 -0.9305
  112CHL1  H26C14544   3.812   1.148   5.001 -0.8069  0.0226  1.2504
  112CHL1   C2714545   4.027   1.009   4.957 -0.3250  0.5042  0.0192
  112CHL1  H27A14546   4.100   1.085   4.990 -1.0934 -0.0573  3.2883
  112CHL1  H27B14547   4.082   0.914   4.936 -0.0912 -0.4258  4.1415
  112CHL1  H27C14548   3.969   1.034   4.865  2.5222  1.0236 -1.7556
  113CHL1    C314549   0.499   4.553   6.278 -0.5394  0.2039  0.1168
  113CHL1    H314550   0.415   4.625   6.269 -1.3237 -0.2650  2.9698
  113CHL1    O314551   0.485   4.520   6.416 -0.3113 -0.4980  0.2569
  113CHL1   H3'14552   0.544   4.446   6.434  0.2666 -0.2353 -0.5118
  113CHL1    C414553   0.486   4.428   6.199  0.1561  0.3406  0.4605
  113CHL1   H4A14554   0.561   4.351   6.226 -1.8233 -1.9971 -0.3087
  113CHL1   H4B14555   0.384   4.389   6.220 -0.3924  1.3232 -0.2450
  113CHL1    C514556   0.504   4.458   6.052 -0.5089 -0.4732 -0.0497
  113CHL1    C614557   0.410   4.434   5.963 -0.2083 -0.5316  0.5767
  113CHL1    H614558   0.309   4.398   5.988 -0.2127 -0.6281  0.4209
  113CHL1    C714559   0.434   4.443   5.814 -0.5172 -0.4926  1.6752
  113CHL1   H7A14560   0.409   4.343   5.773 -0.6892 -0.2414  1.1536
  113CHL1   H7B14561   0.370   4.524   5.773  0.3234 -0.3091  0.6866
  113CHL1    C814562   0.579   4.477   5.775 -0.3948 -0.0522 -0.3582
  113CHL1    H814563   0.644   4.387   5.779  0.7025  0.7261 -0.1519
  113CHL1   C1414564   0.587   4.539   5.635 -0.7272  0.3334 -0.6231
  113CHL1   H1414565   0.539   4.639   5.645 -0.6473  0.1676  1.9225
  113CHL1   C1514566   0.521   4.452   5.525  0.2107  0.2170 -0.0086
  113CHL1  H15A14567   0.538   4.344   5.541  0.9883  0.1371 -1.2293
  113CHL1  H15B14568   0.411   4.468   5.519  0.1124  0.2266  1.5554
  113CHL1   C1614569   0.596   4.504   5.407 -0.5666 -0.1485  0.4914
  113CHL1  H16A14570   0.634   4.412   5.357 -0.0704 -0.5820  1.6138
  113CHL1  H16B14571   0.524   4.549   5.336 -2.0058 -1.4805  1.0615
  113CHL1   C1714572   0.711   4.607   5.445 -0.4818 -0.0547 -0.2602
  113CHL1   H1714573   0.661   4.707   5.445 -1.8256 -0.6968 -0.9016
  113CHL1   C1314574   0.730   4.572   5.592 -0.4327 -0.1822  0.4426
  113CHL1   C1814575   0.829   4.449   5.603 -0.4884  0.9153 -0.3134
  113CHL1  H18A14576   0.833   4.414   5.708 -0.1735  0.5613 -0.4382
  113CHL1  H18B14577   0.791   4.375   5.529  0.7808 -1.4389  1.2387
  113CHL1  H18C14578   0.933   4.475   5.572  0.2776 -1.9567 -0.5297
  113CHL1   C1214579   0.781   4.684   5.684  0.1318 -0.7562 -0.6395
  113CHL1  H12A14580   0.889   4.702   5.667  0.1839  0.5892  0.7980
  113CHL1  H12B14581   0.730   4.779   5.659  1.0295 -0.3091 -0.8262
  113CHL1   C1114582   0.775   4.650   5.833  0.0791 -0.4161  0.3699
  113CHL1  H11A14583   0.843   4.562   5.838 -1.1480 -1.4644 -0.7140
  113CHL1  H11B14584   0.808   4.733   5.899 -2.6151  0.9250  0.1735
  113CHL1    C914585   0.634   4.583   5.875  0.0044 -0.4166  0.6603
  113CHL1    H914586   0.564   4.670   5.879 -0.5034 -0.7050 -1.2124
  113CHL1   C1014587   0.646   4.519   6.012 -0.0534  0.0159 -0.2384
  113CHL1   C1914588   0.768   4.423   6.036  0.8551  0.0845  0.0743
  113CHL1  H19A14589   0.764   4.376   6.136  0.3129  0.2321  0.1248
  113CHL1  H19B14590   0.771   4.339   5.964 -1.3302 -0.2095  0.2692
  113CHL1  H19C14591   0.861   4.483   6.046  1.6903 -0.8523 -1.6687
  113CHL1    C114592   0.665   4.642   6.108  0.0285 -0.2028 -0.7705
  113CHL1   H1A14593   0.771   4.673   6.093  0.3695 -0.7873  0.3115
  113CHL1   H1B14594   0.596   4.722   6.074  0.2605  0.7600  0.9140
  113CHL1    C214595   0.637   4.614   6.255 -0.0278  0.8367 -0.2057
  113CHL1   H2A14596   0.642   4.704   6.320 -0.4865  0.4032  0.4371
  113CHL1   H2B14597   0.723   4.559   6.300  2.7245  1.9965 -3.5570
  113CHL1   C2014598   0.826   4.601   5.340 -0.5505 -0.7412  1.0838
  113CHL1   H2014599   0.868   4.499   5.334  2.0220  0.3230 -1.5653
  113CHL1   C2114600   0.939   4.698   5.375  0.3081  0.2776  0.7971
  113CHL1  H21A14601   0.903   4.797   5.412  0.5717  0.5423  0.3594
  113CHL1  H21B14602   0.998   4.717   5.283 -0.4435  1.8251  0.5844
  113CHL1  H21C14603   1.010   4.649   5.445 -0.8966 -0.4325  1.5454
  113CHL1   C2214604   0.776   4.621   5.191 -0.5262  0.0577  0.0210
  113CHL1  H22A14605   0.863   4.601   5.125 -1.7658 -0.6067 -1.4699
  113CHL1  H22B14606   0.706   4.538   5.166 -1.2100  0.0910  1.6945
  113CHL1   C2314607   0.716   4.755   5.162 -0.3500 -0.1506  0.1455
  113CHL1  H23A14608   0.630   4.769   5.232  0.7222  4.4982  0.8417
  113CHL1  H23B14609   0.790   4.833   5.190  1.8550 -1.6138 -1.2976
  113CHL1   C2414610   0.679   4.773   5.011  0.6769 -0.4023  0.4430
  113CHL1  H24A14611   0.605   4.699   4.974  2.2073 -1.2162 -1.1440
  113CHL1  H24B14612   0.634   4.875   5.004  1.1529 -0.3083 -1.6020
  113CHL1   C2514613   0.791   4.748   4.914 -0.7494  0.0901  0.0828
  113CHL1   H2514614   0.810   4.639   4.916  0.0802  0.2355  0.6649
  113CHL1   C2614615   0.754   4.794   4.776 -0.3737  0.1578  0.5490
  113CHL1  H26A14616   0.732   4.903   4.773  3.0309  0.9949  1.4718
  113CHL1  H26B14617   0.823   4.770   4.692 -0.1845  1.0310  0.4373
  113CHL1  H26C14618   0.656   4.747   4.752 -1.0470  0.9977  1.5780
  113CHL1   C2714619   0.926   4.818   4.941  0.0350 -0.4224 -0.9704
  113CHL1  H27A14620   0.974   4.781   5.034 -0.7376 -1.9440 -1.1527
  113CHL1  H27B14621   0.999   4.789   4.862  1.0720 -1.0651  0.1873
  113CHL1  H27C14622   0.913   4.928   4.946 -1.4810 -0.5910 -0.9927
  114CHL1    C314623   5.072   0.576   6.284  0.1449  0.2079 -0.6342
  114CHL1    H314624   5.146   0.656   6.260 -0.7055  0.9372 -0.8697
  114CHL1    O314625   5.014   0.596   6.420 -0.3759 -0.2624  0.1732
  114CHL1   H3'14626   4.969   0.513   6.441 -1.2724  0.1585 -0.0435
  114CHL1    C414627   4.965   0.589   6.169 -0.0413 -0.0695 -0.1456
  114CHL1   H4A14628   4.878   0.525   6.199  1.3615 -1.9118  0.2005
  114CHL1   H4B14629   4.937   0.696   6.175 -1.0387 -0.3763  1.1112
  114CHL1    C514630   5.009   0.542   6.031  0.3932 -0.5206 -0.1211
  114CHL1    C614631   5.009   0.627   5.925 -0.6793 -1.0280  0.0650
  114CHL1    H614632   4.971   0.730   5.934  0.3138 -0.7834  2.0250
  114CHL1    C714633   5.053   0.595   5.785  0.1578  0.1692 -0.0214
  114CHL1   H7A14634   4.971   0.636   5.722 -0.0717 -0.5174 -0.1753
  114CHL1   H7B14635   5.149   0.645   5.761  0.3657 -0.4520 -0.4976
  114CHL1    C814636   5.069   0.435   5.764  0.3579 -0.0055 -0.6810
  114CHL1    H814637   4.965   0.395   5.764 -0.2005  1.3788  0.2067
  114CHL1   C1414638   5.153   0.399   5.645  0.1336  0.4579 -0.5166
  114CHL1   H1414639   5.251   0.445   5.670 -0.4804  1.2577  0.5535
  114CHL1   C1514640   5.109   0.457   5.516  0.1087  0.0609 -0.3556
  114CHL1  H15A14641   5.000   0.438   5.504 -0.7361  3.5236  0.7477
  114CHL1  H15B14642   5.127   0.566   5.501 -1.1417  0.1800 -1.1439
  114CHL1   C1614643   5.185   0.370   5.412  0.2028 -0.5977  0.2549
  114CHL1  H16A14644   5.112   0.318   5.346  0.9021 -0.8439 -0.3319
  114CHL1  H16B14645   5.257   0.423   5.346 -0.8783  1.1315  0.4019
  114CHL1   C1714646   5.261   0.266   5.485  0.3626  0.4720  0.2405
  114CHL1   H1714647   5.357   0.318   5.504  0.0122  0.7607  1.3081
  114CHL1   C1314648   5.181   0.248   5.615 -0.1137  0.0918  0.3606
  114CHL1   C1814649   5.050   0.175   5.581 -0.8387  0.0216  0.0443
  114CHL1  H18A14650   4.997   0.206   5.487 -0.4772 -0.0335 -0.1789
  114CHL1  H18B14651   5.061   0.066   5.566  3.4712  0.1272  1.2981
  114CHL1  H18C14652   4.976   0.189   5.663 -1.4532  0.2789 -0.5373
  114CHL1   C1214653   5.255   0.189   5.733 -0.1076 -0.0495 -0.0385
  114CHL1  H12A14654   5.248   0.079   5.731  1.0129 -0.1656  1.0254
  114CHL1  H12B14655   5.362   0.219   5.736 -0.4648  1.3024 -0.0463
  114CHL1   C1114656   5.182   0.225   5.863  0.4138  0.5119 -0.6987
  114CHL1  H11A14657   5.098   0.157   5.886  0.8171  0.7090  1.6244
  114CHL1  H11B14658   5.249   0.202   5.948  0.0385  1.4854 -0.1187
  114CHL1    C914659   5.142   0.377   5.885 -0.9414  0.5493  0.8461
  114CHL1    H914660   5.244   0.422   5.887  0.4125 -2.1069 -1.4887
  114CHL1   C1014661   5.071   0.401   6.022  0.1614  0.9436  0.0113
  114CHL1   C1914662   4.956   0.296   6.035 -0.0138 -0.9245  0.0417
  114CHL1  H19A14663   4.884   0.299   5.951 -0.4168 -1.3697  0.3631
  114CHL1  H19B14664   5.003   0.196   6.049  2.2568 -0.1313 -1.3686
  114CHL1  H19C14665   4.876   0.321   6.108 -0.3338  2.1518 -1.2230
  114CHL1    C114666   5.179   0.392   6.134 -0.0422  0.1285  0.1761
  114CHL1   H1A14667   5.217   0.287   6.138 -0.0239 -0.0880 -3.0661
  114CHL1   H1B14668   5.265   0.456   6.107 -1.3763  2.2019  0.6384
  114CHL1    C214669   5.140   0.437   6.273  0.2549 -0.2386 -0.2928
  114CHL1   H2A14670   5.232   0.427   6.335  0.7790  0.2005 -0.9786
  114CHL1   H2B14671   5.061   0.370   6.313  0.9074 -0.0199  1.4440
  114CHL1   C2014672   5.294   0.141   5.393 -0.1100  0.0839  0.4563
  114CHL1   H2014673   5.206   0.074   5.388  1.2173 -1.6253 -1.9891
  114CHL1   C2114674   5.398   0.061   5.470  0.2496  0.4112  0.0669
  114CHL1  H21A14675   5.426  -0.028   5.410 -2.9235 -0.5261 -0.2069
  114CHL1  H21B14676   5.360   0.011   5.562 -1.9828  0.2803 -0.8711
  114CHL1  H21C14677   5.486   0.126   5.489 -0.0707  0.0577  3.3275
  114CHL1   C2214678   5.350   0.182   5.249  0.4604  0.6896 -0.7211
  114CHL1  H22A14679   5.371   0.083   5.202 -0.0842 -1.1251  2.5137
  114CHL1  H22B14680   5.275   0.226   5.181  0.8860 -2.8566 -3.8065
  114CHL1   C2314681   5.478   0.261   5.249 -0.6978  0.8228  0.1198
  114CHL1  H23A14682   5.473   0.345   5.322  1.3703 -0.3304  1.7083
  114CHL1  H23B14683   5.562   0.208   5.299 -3.0233 -0.8546  2.5496
  114CHL1   C2414684   5.512   0.318   5.113 -0.0808  0.5975  0.3487
  114CHL1  H24A14685   5.433   0.395   5.097 -0.6946  0.0070  0.4715
  114CHL1  H24B14686   5.605   0.378   5.114 -0.3134  0.9550  1.4770
  114CHL1   C2514687   5.507   0.214   4.993 -0.5544 -0.0948 -0.2922
  114CHL1   H2514688   5.407   0.166   4.998 -0.8048  0.2331 -1.6204
  114CHL1   C2614689   5.499   0.281   4.858  0.2307 -0.4223  0.5597
  114CHL1  H26A14690   5.596   0.334   4.847  0.1925 -0.4816 -0.1439
  114CHL1  H26B14691   5.483   0.221   4.766 -0.1576 -0.2534  0.5148
  114CHL1  H26C14692   5.418   0.357   4.859 -0.1605 -0.7874 -0.8242
  114CHL1   C2714693   5.624   0.107   4.995  0.6684 -0.0748 -0.0775
  114CHL1  H27A14694   5.635   0.070   5.099 -1.9697  1.8000  0.9886
  114CHL1  H27B14695   5.589   0.028   4.925  0.7118  1.0205 -1.3698
  114CHL1  H27C14696   5.711   0.156   4.947 -1.3987  2.2080 -1.8046
  115CHL1    C314697   1.416   7.582   6.508 -0.0094 -0.0060 -0.2538
  115CHL1    H314698   1.474   7.514   6.441  2.2843  1.3989  0.2021
  115CHL1    O314699   1.464   7.573   6.642 -0.4289 -0.1882  0.6320
  115CHL1   H3'14700   1.531   7.642   6.648  0.1488 -0.4794 -1.4475
  115CHL1    C414701   1.421   7.725   6.442 -0.9078  0.7981 -0.4517
  115CHL1   H4A14702   1.368   7.797   6.510  1.7233  1.5085  0.9818
  115CHL1   H4B14703   1.527   7.757   6.454 -1.0645  1.3233 -0.4130
  115CHL1    C514704   1.364   7.732   6.304 -0.2094 -1.0429 -0.2755
  115CHL1    C614705   1.435   7.774   6.196 -0.5597 -0.6135  0.2783
  115CHL1    H614706   1.536   7.809   6.222 -1.3479  1.3261  0.8929
  115CHL1    C714707   1.392   7.777   6.056  0.6623  0.2470  0.9699
  115CHL1   H7A14708   1.424   7.870   6.005  0.3309 -1.3830 -2.4841
  115CHL1   H7B14709   1.429   7.687   6.003  0.4358 -0.0758  1.3518
  115CHL1    C814710   1.238   7.773   6.051 -0.2199  0.1832  0.7025
  115CHL1    H814711   1.213   7.875   6.088  0.0696  1.1511 -1.6188
  115CHL1   C1414712   1.180   7.753   5.912  0.3874  0.6646 -0.1475
  115CHL1   H1414713   1.219   7.655   5.876  4.1413  1.6500  0.7131
  115CHL1   C1514714   1.216   7.853   5.793  0.3872  0.1669 -0.0001
  115CHL1  H15A14715   1.205   7.952   5.841 -2.2725 -0.8066  1.6213
  115CHL1  H15B14716   1.319   7.831   5.757  0.2027 -0.0052 -0.4380
  115CHL1   C1614717   1.107   7.832   5.687 -0.1978  0.5270  0.8694
  115CHL1  H16A14718   1.051   7.920   5.650 -0.4002 -0.0880 -0.3359
  115CHL1  H16B14719   1.152   7.787   5.596  1.0097  0.1294  1.6354
  115CHL1   C1714720   1.003   7.735   5.748 -0.6018  0.4797 -0.4378
  115CHL1   H1714721   1.033   7.632   5.718 -1.6251  0.0402 -0.0046
  115CHL1   C1314722   1.029   7.740   5.905 -0.3995  0.1474  0.1778
  115CHL1   C1814723   0.958   7.865   5.960 -0.7043  0.4287 -0.0226
  115CHL1  H18A14724   0.851   7.854   5.984 -0.7937  2.0415  0.3789
  115CHL1  H18B14725   1.005   7.909   6.050 -0.8344  3.3528 -1.2764
  115CHL1  H18C14726   0.963   7.943   5.881  0.1715  1.4058  0.9618
  115CHL1   C1214727   0.987   7.611   5.983 -0.0355  0.2025 -0.3038
  115CHL1  H12A14728   0.876   7.600   5.985 -0.4023  3.1716 -0.1167
  115CHL1  H12B14729   1.030   7.515   5.947  1.1141  1.3722 -2.2232
  115CHL1   C1114730   1.037   7.631   6.127  0.1049  0.6113  0.4002
  115CHL1  H11A14731   0.973   7.713   6.167  1.7962  2.1821  0.0317
  115CHL1  H11B14732   1.011   7.547   6.194  0.2505  0.3874  0.1765
  115CHL1    C914733   1.187   7.659   6.147  0.0827 -0.5204  0.3656
  115CHL1    H914734   1.246   7.570   6.118  1.8090  0.6750  0.0834
  115CHL1   C1014735   1.219   7.676   6.292  0.6415 -0.4217 -0.4443
  115CHL1   C1914736   1.115   7.778   6.365  0.2143 -0.1232  0.7562
  115CHL1  H19A14737   1.019   7.723   6.378  0.1451 -0.5045 -1.1357
  115CHL1  H19B14738   1.161   7.812   6.460  0.9289  2.6302 -0.4821
  115CHL1  H19C14739   1.105   7.868   6.301 -1.1254 -1.2545 -0.7027
  115CHL1    C114740   1.206   7.545   6.372  0.3562 -0.2020  0.3189
  115CHL1   H1A14741   1.098   7.539   6.397  0.3645  1.2970  0.8088
  115CHL1   H1B14742   1.238   7.458   6.310  1.2944  0.9683 -0.8797
  115CHL1    C214743   1.271   7.535   6.509 -0.1518  0.6901 -0.0157
  115CHL1   H2A14744   1.257   7.433   6.551 -1.5723  0.1789 -1.6368
  115CHL1   H2B14745   1.211   7.591   6.584  1.5673  1.4418  0.8674
  115CHL1   C2014746   0.855   7.747   5.699 -0.0546  0.5474 -0.4708
  115CHL1   H2014747   0.791   7.811   5.763 -0.8023 -0.4380 -0.2237
  115CHL1   C2114748   0.786   7.608   5.699  0.2973  0.2467 -0.2802
  115CHL1  H21A14749   0.786   7.556   5.798  0.5263  0.0419 -0.3855
  115CHL1  H21B14750   0.836   7.536   5.630 -1.3620 -0.7942 -0.4426
  115CHL1  H21C14751   0.676   7.619   5.687  0.2326  0.2362  0.2670
  115CHL1   C2214752   0.841   7.814   5.560  0.3422  0.6810 -0.0333
  115CHL1  H22A14753   0.871   7.921   5.559 -1.6232  1.2671 -0.6473
  115CHL1  H22B14754   0.909   7.757   5.493 -1.8217 -2.2835  0.1136
  115CHL1   C2314755   0.699   7.814   5.503  0.3012 -0.0596 -0.1939
  115CHL1  H23A14756   0.662   7.710   5.489 -2.0584  0.5561  0.9540
  115CHL1  H23B14757   0.629   7.867   5.570  0.7565  0.0190  0.2232
  115CHL1   C2414758   0.678   7.873   5.362 -0.3790 -0.1633 -0.2792
  115CHL1  H24A14759   0.683   7.984   5.353 -4.5498  0.1978 -0.0349
  115CHL1  H24B14760   0.745   7.822   5.290  0.8326 -1.3373  1.5977
  115CHL1   C2514761   0.534   7.856   5.311  0.7383 -0.1925 -0.3152
  115CHL1   H2514762   0.520   7.754   5.269  0.1700 -0.3748  0.2958
  115CHL1   C2614763   0.420   7.867   5.419  0.0003  0.5597 -0.0429
  115CHL1  H26A14764   0.418   7.775   5.482  0.7146  0.6422  0.1113
  115CHL1  H26B14765   0.445   7.948   5.490 -1.0933 -0.0586  1.0745
  115CHL1  H26C14766   0.324   7.890   5.368  0.0053  0.8765  0.0913
  115CHL1   C2714767   0.515   7.946   5.187 -0.3924 -0.0652 -0.5546
  115CHL1  H27A14768   0.539   8.050   5.217  0.3207 -0.7216  1.3490
  115CHL1  H27B14769   0.576   7.907   5.103  2.2112 -0.8031  1.5532
  115CHL1  H27C14770   0.409   7.948   5.155 -0.4604  2.0653 -0.3010
  116CHL1    C314771   1.863   6.662   6.613 -0.5611 -0.1929 -0.7849
  116CHL1    H314772   1.764   6.613   6.604 -2.3751  2.3687  2.7172
  116CHL1    O314773   1.914   6.628   6.736 -0.5716  0.3431 -0.9121
  116CHL1   H3'14774   1.857   6.661   6.806  0.2809 -1.7823  0.8877
  116CHL1    C414775   1.967   6.619   6.510  0.0320 -1.1915  0.0429
  116CHL1   H4A14776   2.070   6.658   6.525 -0.3530  0.5852 -1.4709
  116CHL1   H4B14777   1.972   6.509   6.516 -0.3620 -1.2767 -0.8897
  116CHL1    C514778   1.918   6.675   6.380  0.4626 -0.0992 -0.2745
  116CHL1    C614779   1.911   6.591   6.273 -0.1867 -0.2186  0.1452
  116CHL1    H614780   1.936   6.486   6.288  1.8405  0.1722 -0.2693
  116CHL1    C714781   1.890   6.649   6.137  0.2862 -0.4456  0.3869
  116CHL1   H7A14782   1.952   6.583   6.072  1.8441 -1.5086  2.7965
  116CHL1   H7B14783   1.785   6.619   6.119  0.6413 -0.5257 -1.7643
  116CHL1    C814784   1.912   6.799   6.114  0.2038  0.1408 -0.4930
  116CHL1    H814785   2.020   6.822   6.122 -0.1086  2.1312 -1.2892
  116CHL1   C1414786   1.857   6.838   5.978  0.1891  0.2622  0.1480
  116CHL1   H1414787   1.752   6.806   5.967 -0.0659  1.8514 -3.0791
  116CHL1   C1514788   1.921   6.783   5.852  0.7008  0.0107 -0.8242
  116CHL1  H15A14789   2.032   6.792   5.863  0.6600  0.1890 -0.5400
  116CHL1  H15B14790   1.904   6.675   5.835  1.9598 -0.2469 -0.5543
  116CHL1   C1614791   1.873   6.871   5.739  0.0497  0.1175 -0.1851
  116CHL1  H16A14792   1.960   6.914   5.685 -0.0872  0.4399 -0.1506
  116CHL1  H16B14793   1.800   6.816   5.675  2.2215 -0.5024 -2.2528
  116CHL1   C1714794   1.791   6.988   5.802  0.4087  0.2525 -0.3147
  116CHL1   H1714795   1.684   6.958   5.806 -0.5832  3.5643  0.4360
  116CHL1   C1314796   1.836   6.987   5.948  0.2645 -0.3227 -0.1337
  116CHL1   C1814797   1.971   7.056   5.963  0.1850 -0.6556  0.1735
  116CHL1  H18A14798   1.962   7.167   5.968 -0.3162 -0.7184  0.6892
  116CHL1  H18B14799   2.022   7.024   6.056  1.9470 -0.7130 -0.7656
  116CHL1  H18C14800   2.039   7.041   5.876  0.9206 -0.7206  0.7476
  116CHL1   C1214801   1.739   7.039   6.058  0.2648  0.4323 -0.8533
  116CHL1  H12A14802   1.725   7.149   6.048 -1.5744  0.6714  2.5817
  116CHL1  H12B14803   1.638   6.995   6.042  0.7170 -0.5071 -1.1872
  116CHL1   C1114804   1.795   7.006   6.199  0.1693 -0.6321 -0.0201
  116CHL1  H11A14805   1.877   7.077   6.219 -2.0979  2.2659 -0.3090
  116CHL1  H11B14806   1.717   7.053   6.263  1.5426  3.9414 -1.3457
  116CHL1    C914807   1.830   6.861   6.221  0.2426  0.2040 -0.7146
  116CHL1    H914808   1.732   6.810   6.210  2.1165 -3.3807 -2.5723
  116CHL1   C1014809   1.887   6.831   6.367  0.0681  0.6491 -0.2721
  116CHL1   C1914810   2.025   6.902   6.392  0.2714  0.1680 -0.2501
  116CHL1  H19A14811   2.066   6.862   6.487 -0.1702 -0.1913 -0.2076
  116CHL1  H19B14812   2.097   6.889   6.308  0.2900 -1.7350  0.0247
  116CHL1  H19C14813   2.004   7.009   6.414  1.0071  0.3576 -0.4270
  116CHL1    C114814   1.785   6.860   6.473  0.2757 -0.3557 -0.9892
  116CHL1   H1A14815   1.761   6.969   6.476 -3.0585 -0.9962  0.9792
  116CHL1   H1B14816   1.689   6.817   6.438  0.9894 -0.4304 -2.9999
  116CHL1    C214817   1.829   6.814   6.614 -0.7997 -0.0661  0.5917
  116CHL1   H2A14818   1.741   6.818   6.681 -0.9996 -1.8658  0.4679
  116CHL1   H2B14819   1.904   6.887   6.651  1.7844 -2.7238  0.9458
  116CHL1   C2014820   1.779   7.116   5.711  0.4782 -0.1278  0.0568
  116CHL1   H2014821   1.876   7.168   5.722  0.4139 -0.0320  0.1688
  116CHL1   C2114822   1.662   7.204   5.761  0.1024 -0.5741 -0.2972
  116CHL1  H21A14823   1.663   7.221   5.871  2.7976 -0.8273 -0.2155
  116CHL1  H21B14824   1.561   7.171   5.729  0.0234 -0.0414 -0.5991
  116CHL1  H21C14825   1.677   7.309   5.729 -0.3777  0.0606  1.4316
  116CHL1   C2214826   1.768   7.097   5.554 -0.2448 -0.6338 -0.2743
  116CHL1  H22A14827   1.856   7.046   5.510 -1.2073 -0.3209 -2.7163
  116CHL1  H22B14828   1.689   7.020   5.551 -0.9374  0.0914 -2.3767
  116CHL1   C2314829   1.726   7.219   5.470  0.0509 -0.1470 -0.1480
  116CHL1  H23A14830   1.641   7.278   5.511  0.4458 -0.1017  0.6251
  116CHL1  H23B14831   1.817   7.280   5.450 -0.5488  0.4177 -1.1875
  116CHL1   C2414832   1.690   7.165   5.325  0.7766  0.3468 -0.1691
  116CHL1  H24A14833   1.781   7.110   5.290  0.8933 -0.7342  1.6849
  116CHL1  H24B14834   1.600   7.101   5.332  0.8629  0.3302  0.8514
  116CHL1   C2514835   1.661   7.277   5.228  0.0787 -0.3707 -0.2621
  116CHL1   H2514836   1.727   7.364   5.249 -2.0009  1.7434 -1.8026
  116CHL1   C2614837   1.690   7.226   5.086 -0.4745  0.6519  0.2322
  116CHL1  H26A14838   1.673   7.316   5.023  0.0616  0.0428 -0.8128
  116CHL1  H26B14839   1.795   7.192   5.071 -0.4056  0.1019  1.7652
  116CHL1  H26C14840   1.614   7.149   5.062 -0.2123 -0.3250  2.3031
  116CHL1   C2714841   1.522   7.332   5.236  0.4724  0.5163  0.0095
  116CHL1  H27A14842   1.510   7.375   5.337 -0.0580  0.9135 -0.2183
  116CHL1  H27B14843   1.503   7.417   5.166  1.4790 -0.5256 -1.5994
  116CHL1  H27C14844   1.448   7.251   5.218  1.8880 -1.0243  0.8410
  117CHL1    C314845   5.583   0.544   6.155 -0.2598 -0.3262 -0.7609
  117CHL1    H314846   5.505   0.586   6.088 -1.1291  0.4939  0.7339
  117CHL1    O314847   5.544   0.551   6.291  0.0856 -0.0138  0.0600
  117CHL1   H3'14848   5.620   0.510   6.333  0.5470  0.3221 -0.4386
  117CHL1    C414849   5.597   0.396   6.125  0.6164 -0.4605  0.1624
  117CHL1   H4A14850   5.666   0.350   6.200  0.3213  1.2775  1.5704
  117CHL1   H4B14851   5.499   0.345   6.132  0.2094  0.2158 -0.4696
  117CHL1    C514852   5.661   0.366   5.988 -0.7489 -0.2673 -1.1565
  117CHL1    C614853   5.596   0.290   5.905  0.6106  0.2997  0.6015
  117CHL1    H614854   5.507   0.237   5.941  1.6646 -0.5523  2.0713
  117CHL1    C714855   5.656   0.260   5.765 -0.0100 -0.6216 -0.0258
  117CHL1   H7A14856   5.656   0.149   5.756 -0.2511 -0.5977 -0.3151
  117CHL1   H7B14857   5.592   0.304   5.686  0.7534 -1.2214 -1.0100
  117CHL1    C814858   5.800   0.303   5.749 -0.0795 -0.1858  0.2645
  117CHL1    H814859   5.867   0.226   5.792  0.6410 -0.8099 -1.8650
  117CHL1   C1414860   5.837   0.301   5.600  0.0621  0.5234  0.2200
  117CHL1   H1414861   5.779   0.380   5.548  1.9810  2.0994  0.3370
  117CHL1   C1514862   5.813   0.169   5.518 -0.0095  0.2289  0.6001
  117CHL1  H15A14863   5.828   0.087   5.592 -2.2771  0.5752  1.5141
  117CHL1  H15B14864   5.712   0.170   5.472  1.2393  0.5950 -2.3973
  117CHL1   C1614865   5.924   0.180   5.406 -0.1237  0.3229 -0.0443
  117CHL1  H16A14866   5.993   0.096   5.427  0.1760  1.2000  2.8937
  117CHL1  H16B14867   5.877   0.170   5.305  0.2209  2.0632 -0.4073
  117CHL1   C1714868   6.006   0.314   5.431  0.9605 -0.1005  0.3148
  117CHL1   H1714869   5.954   0.398   5.381  0.4585  0.0559  1.0848
  117CHL1   C1314870   5.984   0.340   5.582  0.2235  0.0626  0.2872
  117CHL1   C1814871   6.083   0.253   5.657  0.5123  0.1396  0.0431
  117CHL1  H18A14872   6.060   0.240   5.765  1.6263  2.9200  0.7071
  117CHL1  H18B14873   6.068   0.157   5.604 -0.3920  0.8079 -0.9639
  117CHL1  H18C14874   6.183   0.300   5.647  0.3742  0.6604  0.9203
  117CHL1   C1214875   6.001   0.480   5.633 -0.0823  0.3063 -0.5338
  117CHL1  H12A14876   6.106   0.515   5.625  0.2504 -0.1123  1.4149
  117CHL1  H12B14877   5.925   0.537   5.576  0.2933  0.6239 -0.7212
  117CHL1   C1114878   5.966   0.491   5.782 -0.0232 -0.3295  0.0273
  117CHL1  H11A14879   6.044   0.431   5.834  0.7470  0.4331 -0.2399
  117CHL1  H11B14880   5.983   0.597   5.808 -1.2257 -0.3506  0.9799
  117CHL1    C914881   5.826   0.433   5.815  0.2593 -0.5247  0.2147
  117CHL1    H914882   5.758   0.507   5.767  0.1514  0.2050  1.4647
  117CHL1   C1014883   5.790   0.440   5.964  0.1463 -0.3556 -0.2699
  117CHL1   C1914884   5.902   0.388   6.051 -0.1798  1.1800  0.1623
  117CHL1  H19A14885   5.992   0.452   6.038 -0.4171  1.5701  0.4092
  117CHL1  H19B14886   5.878   0.406   6.158  0.8039  1.0249  0.4119
  117CHL1  H19C14887   5.922   0.281   6.029 -0.5242  0.4528  2.9209
  117CHL1    C114888   5.769   0.593   6.001  0.6116 -0.2798 -0.1028
  117CHL1   H1A14889   5.861   0.645   5.970  1.3141 -1.9137 -0.8719
  117CHL1   H1B14890   5.692   0.628   5.929 -1.2876 -2.5761  0.6572
  117CHL1    C214891   5.717   0.620   6.144  0.1306 -0.2284  0.3861
  117CHL1   H2A14892   5.691   0.726   6.161  1.1803 -0.1554  1.7361
  117CHL1   H2B14893   5.783   0.593   6.229  0.2464  0.4453  0.5150
  117CHL1   C2014894   6.146   0.315   5.384 -0.5678 -0.1241 -0.0511
  117CHL1   H2014895   6.219   0.275   5.458 -0.6221 -0.0935  0.0184
  117CHL1   C2114896   6.196   0.464   5.366  0.3847  0.0486 -0.3759
  117CHL1  H21A14897   6.220   0.515   5.461  0.5338  1.0048 -0.9104
  117CHL1  H21B14898   6.126   0.525   5.305  2.0444  1.5728 -0.8282
  117CHL1  H21C14899   6.287   0.460   5.302  0.1677 -2.6245 -0.6305
  117CHL1   C2214900   6.178   0.247   5.250 -0.2139  0.3800  0.3892
  117CHL1  H22A14901   6.288   0.261   5.250 -0.2728  0.8804  0.8966
  117CHL1  H22B14902   6.162   0.137   5.261  2.6982 -0.2035 -0.4333
  117CHL1   C2314903   6.114   0.309   5.122 -0.9863  0.4550 -0.0802
  117CHL1  H23A14904   6.003   0.308   5.132 -0.8324 -0.7283  2.0738
  117CHL1  H23B14905   6.153   0.412   5.106  0.0809 -0.0207 -0.6263
  117CHL1   C2414906   6.162   0.221   5.008  0.5241  0.8605  0.0546
  117CHL1  H24A14907   6.272   0.222   5.024  0.7767 -2.9748 -0.4818
  117CHL1  H24B14908   6.124   0.118   5.024  0.5127  0.6479 -1.2447
  117CHL1   C2514909   6.122   0.271   4.863 -0.2962  0.6448 -0.2553
  117CHL1   H2514910   6.167   0.193   4.798 -0.4553 -1.0586  1.5664
  117CHL1   C2614911   5.969   0.258   4.847 -0.1092 -0.1275 -0.0671
  117CHL1  H26A14912   5.922   0.340   4.905 -0.1561  0.7757 -1.3302
  117CHL1  H26B14913   5.923   0.281   4.749 -2.1807  2.4959  1.3802
  117CHL1  H26C14914   5.933   0.160   4.883  0.9625 -0.1083  1.1422
  117CHL1   C2714915   6.182   0.410   4.832  0.2134  0.0404 -0.5467
  117CHL1  H27A14916   6.132   0.490   4.890  1.7873  0.4741  0.2760
  117CHL1  H27B14917   6.289   0.419   4.863  1.2408  1.4198 -4.0221
  117CHL1  H27C14918   6.178   0.437   4.724 -0.5256 -0.9525 -0.7733
  118CHL1    C314919   7.350   0.945   6.526  0.8843  0.3819  0.3796
  118CHL1    H314920   7.335   0.850   6.471  0.3845 -0.2635  1.5998
  118CHL1    O314921   7.288   0.937   6.652  0.2887 -0.7417 -0.5108
  118CHL1   H3'14922   7.205   0.891   6.638 -0.3274 -0.1283  0.9028
  118CHL1    C414923   7.505   0.966   6.545  0.1350  0.1769 -0.5955
  118CHL1   H4A14924   7.521   1.061   6.599  0.3560  0.1121 -0.5491
  118CHL1   H4B14925   7.553   0.880   6.596  1.6772  0.2050 -1.9388
  118CHL1    C514926   7.570   0.977   6.412 -0.1506  0.1145  0.3144
  118CHL1    C614927   7.652   0.883   6.366 -0.1168  0.2216  0.8074
  118CHL1    H614928   7.675   0.794   6.425  0.4483 -0.5518 -0.5236
  118CHL1    C714929   7.712   0.887   6.224 -0.2088 -0.0518 -0.7464
  118CHL1   H7A14930   7.805   0.826   6.228 -1.6835 -2.4147 -0.5997
  118CHL1   H7B14931   7.643   0.837   6.154 -2.4260  1.8242 -0.0341
  118CHL1    C814932   7.721   1.025   6.159 -0.4843  0.1150  0.2367
  118CHL1    H814933   7.794   1.085   6.216 -0.9303 -0.8858  1.9103
  118CHL1   C1414934   7.750   1.016   6.006  0.8191 -0.2594 -0.0501
  118CHL1   H1414935   7.673   0.950   5.963  0.8548 -0.7255  0.5882
  118CHL1   C1514936   7.889   0.953   5.973  0.3324  0.3693  0.3640
  118CHL1  H15A14937   7.975   1.001   6.025 -1.9475  2.8036  2.1843
  118CHL1  H15B14938   7.885   0.842   5.982 -0.3739  0.2457 -1.1621
  118CHL1   C1614939   7.888   0.973   5.822 -0.4452 -0.3634 -0.0263
  118CHL1  H16A14940   7.988   1.012   5.792  1.4777 -5.3451 -0.9543
  118CHL1  H16B14941   7.868   0.876   5.772 -1.4696 -0.0909 -0.1525
  118CHL1   C1714942   7.781   1.084   5.791  0.1677 -0.1341  0.3256
  118CHL1   H1714943   7.687   1.035   5.756  0.3098 -0.0186 -0.2253
  118CHL1   C1314944   7.736   1.140   5.927  0.3506  0.6512  0.3565
  118CHL1   C1814945   7.847   1.239   5.969  0.1595 -0.3186  0.1986
  118CHL1  H18A14946   7.832   1.262   6.077 -0.5664 -0.4946  0.1402
  118CHL1  H18B14947   7.953   1.211   5.954  0.4829  1.2175 -0.6220
  118CHL1  H18C14948   7.838   1.337   5.916 -1.5899 -0.6407 -0.1658
  118CHL1   C1214949   7.595   1.192   5.947 -0.2674 -0.5404 -0.0018
  118CHL1  H12A14950   7.589   1.289   5.894  1.7712  0.1716  0.9407
  118CHL1  H12B14951   7.527   1.123   5.893 -0.9887  0.3450 -0.2392
  118CHL1   C1114952   7.560   1.215   6.095 -0.2054  0.2950  0.8541
  118CHL1  H11A14953   7.627   1.288   6.144  1.4510 -1.0442  0.6949
  118CHL1  H11B14954   7.453   1.245   6.096 -0.4564 -0.4016 -0.7415
  118CHL1    C914955   7.581   1.083   6.178 -0.1563  0.0389 -0.1049
  118CHL1    H914956   7.519   1.008   6.125  0.8515  0.7503 -2.4267
  118CHL1   C1014957   7.523   1.103   6.327  0.0475  0.2218  0.0629
  118CHL1   C1914958   7.579   1.231   6.392  0.5359 -0.6492 -0.4002
  118CHL1  H19A14959   7.539   1.323   6.344  0.5330 -0.7135 -0.5195
  118CHL1  H19B14960   7.540   1.233   6.496  1.6924 -2.7549  0.1215
  118CHL1  H19C14961   7.690   1.238   6.397  0.4430  2.8205 -0.7096
  118CHL1    C114962   7.366   1.105   6.324  0.6642 -0.0042  0.2111
  118CHL1   H1A14963   7.338   1.202   6.277  0.0034 -1.2153 -2.0319
  118CHL1   H1B14964   7.338   1.036   6.241  1.8288 -0.9464  0.5783
  118CHL1    C214965   7.292   1.066   6.453  0.0748 -0.2828 -0.5776
  118CHL1   H2A14966   7.190   1.049   6.414  1.2005 -1.7790 -3.1141
  118CHL1   H2B14967   7.305   1.148   6.527 -0.2568  0.8079 -1.6775
  118CHL1   C2014968   7.821   1.186   5.682 -0.1238 -0.2853 -0.0188
  118CHL1   H2014969   7.914   1.233   5.720 -0.7877  0.6992  0.4494
  118CHL1   C2114970   7.710   1.291   5.658 -0.6873  0.1678  0.6405
  118CHL1  H21A14971   7.727   1.344   5.562  0.7266 -2.3858 -0.6191
  118CHL1  H21B14972   7.699   1.364   5.740  0.8421 -0.7442  1.6978
  118CHL1  H21C14973   7.611   1.241   5.645 -0.6764  0.5410 -1.1644
  118CHL1   C2214974   7.847   1.123   5.543 -0.2033  0.6919 -0.4678
  118CHL1  H22A14975   7.899   1.026   5.558 -0.1817  0.7859  0.1113
  118CHL1  H22B14976   7.751   1.107   5.488 -0.4605  0.5721  0.0053
  118CHL1   C2314977   7.945   1.200   5.451 -0.3909  0.6018  0.1582
  118CHL1  H23A14978   7.968   1.133   5.365  0.0346 -1.3285  1.7028
  118CHL1  H23B14979   7.894   1.292   5.417  0.4928  1.5956  1.4052
  118CHL1   C2414980   8.083   1.232   5.513  0.0546 -0.3267 -0.0024
  118CHL1  H24A14981   8.079   1.286   5.610  0.1463  1.8337 -1.1446
  118CHL1  H24B14982   8.119   1.130   5.538  1.2150  0.3495  1.2448
  118CHL1   C2514983   8.177   1.310   5.417  0.4474 -0.3127 -0.4600
  118CHL1   H2514984   8.117   1.389   5.368 -1.0034 -2.8057 -2.9930
  118CHL1   C2614985   8.307   1.363   5.483  0.2527 -0.2955 -0.6717
  118CHL1  H26A14986   8.354   1.432   5.411 -1.1872  2.9790  1.2719
  118CHL1  H26B14987   8.289   1.422   5.576 -0.2388  0.5194 -1.2716
  118CHL1  H26C14988   8.361   1.267   5.499  0.6053 -0.0613 -0.4475
  118CHL1   C2714989   8.231   1.220   5.299  0.5117 -0.1414 -0.2334
  118CHL1  H27A14990   8.296   1.138   5.336  1.3372  0.2119 -0.8823
  118CHL1  H27B14991   8.142   1.169   5.254 -1.0895  0.4133  2.1350
  118CHL1  H27C14992   8.280   1.282   5.221 -0.3668 -0.2181 -0.8630
  119CHL1    C314993   0.868   0.129   6.771 -0.4603 -0.1940 -0.0799
  119CHL1    H314994   0.957   0.144   6.706 -0.7117 -0.5124 -0.5096
  119CHL1    O314995   0.918   0.157   6.903  0.3293  0.2551  0.2223
  119CHL1   H3'14996   0.843   0.122   6.952  0.6110 -1.2815 -0.3851
  119CHL1    C414997   0.759   0.218   6.726 -0.0859 -0.2205  0.0422
  119CHL1   H4A14998   0.673   0.218   6.797  0.4461  0.5673  0.7113
  119CHL1   H4B14999   0.791   0.325   6.728 -0.5388  0.1369 -4.0131
  119CHL1    C515000   0.723   0.173   6.585  0.4392  0.0035 -0.4058
  119CHL1    C615001   0.724   0.256   6.484 -0.4206 -0.7380 -0.3497
  119CHL1    H615002   0.756   0.360   6.502  1.3931 -1.1010 -1.2163
  119CHL1    C715003   0.690   0.230   6.342  0.0137 -0.3339 -0.0630
  119CHL1   H7A15004   0.619   0.301   6.296  0.9638 -0.0649 -1.1741
  119CHL1   H7B15005   0.784   0.235   6.282 -0.6049  2.6725 -0.9710
  119CHL1    C815006   0.610   0.102   6.338  0.5008  0.1285  0.5439
  119CHL1    H815007   0.510   0.127   6.378 -0.4106 -0.3232 -1.3773
  119CHL1   C1415008   0.596   0.052   6.192  0.2343  0.4068 -0.4463
  119CHL1   H1415009   0.703   0.026   6.172  0.7309 -0.3826  2.7006
  119CHL1   C1515010   0.541   0.148   6.084 -0.2675 -0.1510  0.5527
  119CHL1  H15A15011   0.453   0.207   6.117  1.6266  3.3297 -0.1112
  119CHL1  H15B15012   0.622   0.222   6.065 -2.6102  2.6818  0.9380
  119CHL1   C1615013   0.511   0.058   5.966 -0.0438 -0.1290  0.2741
  119CHL1  H16A15014   0.410   0.073   5.923  1.3497 -1.2878 -3.8317
  119CHL1  H16B15015   0.592   0.081   5.893 -0.9829  2.6407 -0.0376
  119CHL1   C1715016   0.525  -0.082   6.014 -0.2629 -0.1390 -0.2702
  119CHL1   H1715017   0.625  -0.123   5.987 -0.5514 -2.0388  1.3544
  119CHL1   C1315018   0.517  -0.073   6.171 -0.2186  1.0610  0.7382
  119CHL1   C1815019   0.367  -0.061   6.217 -0.1378  0.6313  0.3940
  119CHL1  H18A15020   0.320   0.031   6.175  0.2414 -0.5011 -2.8071
  119CHL1  H18B15021   0.315  -0.148   6.171 -0.4795  0.7004  0.6424
  119CHL1  H18C15022   0.350  -0.054   6.327  1.4495 -2.4108  0.9303
  119CHL1   C1215023   0.588  -0.190   6.248 -0.3619  0.3150 -0.7899
  119CHL1  H12A15024   0.523  -0.280   6.243 -0.1552  0.2168 -1.9223
  119CHL1  H12B15025   0.684  -0.217   6.200  0.3342  0.0535  0.7205
  119CHL1   C1115026   0.597  -0.154   6.393 -0.2669  0.1723  0.4927
  119CHL1  H11A15027   0.496  -0.149   6.437 -0.1716  2.2531  0.5629
  119CHL1  H11B15028   0.650  -0.233   6.451 -1.6223 -1.4563 -0.4231
  119CHL1    C915029   0.669  -0.013   6.413  0.2841  0.8843 -0.6729
  119CHL1    H915030   0.770  -0.021   6.367  0.0476  0.5752 -1.1445
  119CHL1   C1015031   0.688   0.027   6.567  0.3687  1.0799  0.0330
  119CHL1   C1915032   0.550  -0.007   6.636 -0.5423  0.3927 -0.0740
  119CHL1  H19A15033   0.556   0.031   6.740  0.6294  0.4871 -0.1623
  119CHL1  H19B15034   0.471   0.047   6.578 -2.1151 -2.7502 -1.1244
  119CHL1  H19C15035   0.523  -0.114   6.649  0.9221 -0.0701 -0.6606
  119CHL1    C115036   0.791  -0.065   6.625 -0.9970 -0.4855 -0.5111
  119CHL1   H1A15037   0.751  -0.169   6.625 -0.8836 -0.5574 -2.2415
  119CHL1   H1B15038   0.881  -0.076   6.561  0.4752 -1.2497  1.5920
  119CHL1    C215039   0.837  -0.022   6.764 -0.6122 -0.3201  0.0978
  119CHL1   H2A15040   0.928  -0.081   6.789 -0.1965  0.7269  1.1461
  119CHL1   H2B15041   0.767  -0.050   6.846 -1.6788  0.1279 -0.6244
  119CHL1   C2015042   0.440  -0.181   5.945 -0.3116  0.4004 -0.4457
  119CHL1   H2015043   0.336  -0.147   5.968  0.0619  1.6441 -0.4860
  119CHL1   C2115044   0.462  -0.323   6.002 -0.0266 -0.1958 -0.2259
  119CHL1  H21A15045   0.446  -0.390   5.915  0.1529 -0.9602  0.3205
  119CHL1  H21B15046   0.396  -0.346   6.088  0.4184 -0.8783 -0.0573
  119CHL1  H21C15047   0.568  -0.328   6.036 -0.1786 -0.3274  0.2368
  119CHL1   C2215048   0.449  -0.181   5.790 -0.1773 -0.5477  0.2952
  119CHL1  H22A15049   0.471  -0.083   5.743 -1.2287  0.3683  1.6488
  119CHL1  H22B15050   0.535  -0.244   5.757  0.4103  1.4770 -2.3199
  119CHL1   C2315051   0.320  -0.226   5.726  0.1183  0.0572  0.2639
  119CHL1  H23A15052   0.284  -0.321   5.771 -1.1568 -0.3771 -1.5557
  119CHL1  H23B15053   0.235  -0.160   5.753 -1.5752 -1.5766 -0.7630
  119CHL1   C2415054   0.331  -0.260   5.578 -1.1543 -0.2742  0.1793
  119CHL1  H24A15055   0.370  -0.168   5.530  1.2040 -2.3386 -2.2137
  119CHL1  H24B15056   0.404  -0.336   5.542  0.4102  1.5583 -0.6809
  119CHL1   C2515057   0.199  -0.296   5.516 -0.1420 -0.2852 -0.2547
  119CHL1   H2515058   0.121  -0.220   5.540 -0.9200 -0.3928 -2.2761
  119CHL1   C2615059   0.212  -0.287   5.363 -0.0982  0.2644  0.1589
  119CHL1  H26A15060   0.252  -0.187   5.334 -2.4849  1.7293  1.6248
  119CHL1  H26B15061   0.283  -0.364   5.324 -2.0857 -1.5808  0.0222
  119CHL1  H26C15062   0.118  -0.301   5.307 -0.4329 -0.7634  0.9439
  119CHL1   C2715063   0.146  -0.432   5.552 -0.3938  0.4898  0.4230
  119CHL1  H27A15064   0.042  -0.447   5.514 -0.6733 -0.2939  1.4557
  119CHL1  H27B15065   0.211  -0.513   5.512 -2.2087 -0.2718 -1.1757
  119CHL1  H27C15066   0.139  -0.445   5.662  1.8020 -2.8643  0.3201
  120CHL1    C315067   0.014   7.498   6.713 -0.4204  0.2559 -0.5156
  120CHL1    H315068  -0.087   7.542   6.727 -0.7168 -0.0074 -1.7279
  120CHL1    O315069   0.077   7.509   6.842  0.5457 -0.2721 -0.2670
  120CHL1   H3'15070   0.030   7.447   6.898  0.9425  0.1809  0.5772
  120CHL1    C415071   0.007   7.349   6.664  0.7707 -0.1578 -0.2067
  120CHL1   H4A15072   0.110   7.305   6.666  1.3186  1.1060  0.2642
  120CHL1   H4B15073  -0.044   7.283   6.738  0.3956 -0.6672 -0.9183
  120CHL1    C515074  -0.044   7.330   6.525  0.3374 -0.6336  0.3382
  120CHL1    C615075  -0.139   7.238   6.496  0.7896 -0.0605 -0.2499
  120CHL1    H615076  -0.185   7.181   6.578  0.1127 -1.9152 -1.8624
  120CHL1    C715077  -0.198   7.219   6.360 -0.0328  0.2405 -0.1997
  120CHL1   H7A15078  -0.214   7.111   6.341 -4.4471  0.1643  2.4712
  120CHL1   H7B15079  -0.294   7.274   6.353  0.9606  1.9488 -1.0870
  120CHL1    C815080  -0.108   7.276   6.243 -0.5887 -0.2850  0.0706
  120CHL1    H815081  -0.024   7.208   6.218  0.5284 -0.0725  2.9034
  120CHL1   C1415082  -0.186   7.296   6.110 -0.1122  0.2188 -0.2358
  120CHL1   H1415083  -0.265   7.374   6.122  0.8387  1.2992 -0.7971
  120CHL1   C1515084  -0.259   7.177   6.050 -0.2190 -0.3269 -0.3392
  120CHL1  H15A15085  -0.189   7.091   6.038  1.4669  1.0470 -0.6994
  120CHL1  H15B15086  -0.350   7.147   6.107 -0.9948  1.0724 -0.7887
  120CHL1   C1615087  -0.301   7.228   5.910  0.6491 -0.4775 -0.4778
  120CHL1  H16A15088  -0.288   7.140   5.843  0.1793 -1.4684  0.6820
  120CHL1  H16B15089  -0.411   7.247   5.903  0.5909 -0.9664 -0.9921
  120CHL1   C1715090  -0.219   7.359   5.882  0.2071 -0.2152 -0.0117
  120CHL1   H1715091  -0.294   7.438   5.902 -2.2055 -2.0933 -1.1865
  120CHL1   C1315092  -0.112   7.362   5.993 -0.1848 -0.7926 -0.1205
  120CHL1   C1815093   0.004   7.267   5.945 -0.3119 -0.3756 -0.1271
  120CHL1  H18A15094   0.031   7.301   5.842 -3.0103 -0.3178 -0.8981
  120CHL1  H18B15095   0.097   7.268   6.005 -0.7073  0.1784  0.4813
  120CHL1  H18C15096  -0.023   7.162   5.920  0.7263 -0.4490 -1.0368
  120CHL1   C1215097  -0.054   7.497   6.038 -0.5778  0.0341  0.1910
  120CHL1  H12A15098   0.010   7.543   5.959 -1.3979 -0.8269 -1.0124
  120CHL1  H12B15099  -0.138   7.568   6.051  0.7295  1.8834 -0.8294
  120CHL1   C1115100   0.028   7.481   6.171 -0.3331 -0.0835 -0.2225
  120CHL1  H11A15101   0.126   7.428   6.169  1.4374  2.3718  4.7776
  120CHL1  H11B15102   0.048   7.588   6.193  1.0161  0.1208 -2.1499
  120CHL1    C915103  -0.048   7.412   6.282  0.1471  0.5023  0.1031
  120CHL1    H915104  -0.139   7.472   6.303  1.7175  3.3657 -0.6531
  120CHL1   C1015105   0.026   7.418   6.414 -0.4133  0.1632 -0.5046
  120CHL1   C1915106   0.166   7.356   6.399 -0.5648 -0.0632 -0.0027
  120CHL1  H19A15107   0.230   7.415   6.330  1.6156 -1.8226  0.3642
  120CHL1  H19B15108   0.216   7.366   6.498  1.7785 -2.5221 -0.8146
  120CHL1  H19C15109   0.154   7.251   6.365 -0.7289  0.6948 -2.3973
  120CHL1    C115110   0.033   7.568   6.473  0.7087  0.0431 -0.1409
  120CHL1   H1A15111   0.085   7.623   6.392 -0.2601  1.3370  0.0866
  120CHL1   H1B15112  -0.072   7.604   6.485  1.6490  2.3155  2.3172
  120CHL1    C215113   0.100   7.577   6.613  0.3055 -0.7229 -0.0393
  120CHL1   H2A15114   0.104   7.679   6.657  0.2161 -1.6859  2.3523
  120CHL1   H2B15115   0.205   7.540   6.611 -0.0046 -1.6175 -0.7813
  120CHL1   C2015116  -0.188   7.377   5.728 -0.0574 -1.0677 -0.7353
  120CHL1   H2015117  -0.119   7.293   5.704  2.1287  0.6096 -0.5436
  120CHL1   C2115118  -0.113   7.507   5.694 -0.1033 -0.8278 -0.1525
  120CHL1  H21A15119  -0.030   7.523   5.765 -0.4510  0.8900 -0.1072
  120CHL1  H21B15120  -0.175   7.598   5.702  0.9635  0.0746 -1.7174
  120CHL1  H21C15121  -0.072   7.519   5.591  1.0573  0.3054  0.4226
  120CHL1   C2215122  -0.302   7.360   5.630  0.6529 -0.0801 -0.9226
  120CHL1  H22A15123  -0.359   7.268   5.657  0.8450  0.0891  0.1016
  120CHL1  H22B15124  -0.374   7.443   5.645 -1.2301 -1.4330 -1.9423
  120CHL1   C2315125  -0.262   7.352   5.483  0.4633 -0.5546  0.3593
  120CHL1  H23A15126  -0.229   7.449   5.440 -0.5573 -1.0944 -1.8342
  120CHL1  H23B15127  -0.181   7.276   5.483  0.6302 -0.4405  2.8760
  120CHL1   C2415128  -0.376   7.295   5.408  0.3365 -0.0839 -0.2864
  120CHL1  H24A15129  -0.388   7.192   5.448  1.0545 -0.2841 -0.5589
  120CHL1  H24B15130  -0.467   7.356   5.421 -0.3084 -0.9925 -0.4178
  120CHL1   C2515131  -0.335   7.278   5.259 -0.1816 -0.5413 -0.8578
  120CHL1   H2515132  -0.415   7.232   5.197  1.9953 -0.5760 -3.8629
  120CHL1   C2615133  -0.327   7.418   5.187  0.5485 -0.6030  0.0246
  120CHL1  H26A15134  -0.319   7.404   5.077  0.2862  3.0175 -0.5855
  120CHL1  H26B15135  -0.418   7.477   5.210  0.4372 -0.4439 -0.8024
  120CHL1  H26C15136  -0.237   7.469   5.228  0.2059 -1.0981  1.4411
  120CHL1   C2715137  -0.214   7.194   5.224  0.1747 -0.4865 -0.3031
  120CHL1  H27A15138  -0.201   7.194   5.114  0.4711 -2.1446 -0.2919
  120CHL1  H27B15139  -0.128   7.241   5.277  0.3807 -0.2248 -0.8602
  120CHL1  H27C15140  -0.218   7.087   5.254  2.2654 -0.3551  0.6314
  121CHL1    C315141   4.883   3.278   3.392  0.0561 -0.6330  0.0082
  121CHL1    H315142   4.906   3.173   3.419 -1.3373 -1.1365 -0.6756
  121CHL1    O315143   4.844   3.284   3.262 -0.2455 -0.3164  0.5779
  121CHL1   H3'15144   4.908   3.234   3.211 -2.0294 -2.1294 -0.0665
  121CHL1    C415145   4.776   3.338   3.492 -0.1731 -0.8259  0.0568
  121CHL1   H4A15146   4.757   3.441   3.456 -0.0201 -0.6853  0.3758
  121CHL1   H4B15147   4.681   3.283   3.474  1.5759 -3.3023 -2.7580
  121CHL1    C515148   4.822   3.338   3.634 -0.7718  0.4043 -0.3617
  121CHL1    C615149   4.759   3.263   3.731 -0.2380 -0.0148 -0.3330
  121CHL1    H615150   4.662   3.217   3.708  0.3674 -2.5258  1.6823
  121CHL1    C715151   4.802   3.265   3.876 -0.2202 -0.3752  0.3428
  121CHL1   H7A15152   4.721   3.280   3.949  1.1250  0.8671  1.6420
  121CHL1   H7B15153   4.851   3.174   3.916  1.9030  0.5499 -0.0144
  121CHL1    C815154   4.900   3.379   3.914 -0.5284  0.0845 -0.7904
  121CHL1    H815155   4.843   3.474   3.907  3.0175  2.3727 -0.6997
  121CHL1   C1415156   4.963   3.348   4.056  0.5295 -0.0850  0.5211
  121CHL1   H1415157   5.001   3.244   4.053 -1.8588 -1.0166 -1.1064
  121CHL1   C1515158   4.864   3.349   4.175 -0.3879  0.9134 -0.0570
  121CHL1  H15A15159   4.799   3.438   4.158 -2.7306 -0.9380 -1.3919
  121CHL1  H15B15160   4.805   3.256   4.169  1.7336 -0.4403 -1.2074
  121CHL1   C1615161   4.970   3.352   4.285 -0.3932 -0.9222 -0.6253
  121CHL1  H16A15162   4.941   3.426   4.363  0.3171  1.1916 -2.2880
  121CHL1  H16B15163   4.959   3.256   4.341 -3.8433 -0.6126 -0.5587
  121CHL1   C1715164   5.111   3.378   4.229 -0.1370  0.0606  0.3372
  121CHL1   H1715165   5.159   3.278   4.216  0.3659  0.4781 -1.2076
  121CHL1   C1315166   5.076   3.442   4.094  0.3417 -0.6495  0.6589
  121CHL1   C1815167   5.026   3.589   4.104 -0.4346 -0.3834 -0.6339
  121CHL1  H18A15168   5.110   3.661   4.106 -1.1959  0.8262 -4.4850
  121CHL1  H18B15169   4.964   3.610   4.014 -2.2294 -0.1536  0.6034
  121CHL1  H18C15170   4.965   3.605   4.195  0.9557 -0.2638  0.3087
  121CHL1   C1215171   5.186   3.432   3.985 -0.0518  0.8831 -0.0301
  121CHL1  H12A15172   5.276   3.485   4.024  0.6964 -0.9265  0.8028
  121CHL1  H12B15173   5.224   3.329   3.970  0.1484  1.0778 -0.9158
  121CHL1   C1115174   5.132   3.472   3.846  0.0499 -0.0826 -0.1564
  121CHL1  H11A15175   5.110   3.581   3.849 -0.3508 -0.1217 -1.1512
  121CHL1  H11B15176   5.217   3.456   3.776  0.0792 -1.0330  0.0788
  121CHL1    C915177   5.007   3.391   3.804  0.0675 -0.3187  0.1078
  121CHL1    H915178   5.050   3.289   3.795 -1.0731 -0.6386 -2.5610
  121CHL1   C1015179   4.948   3.417   3.661 -0.7986  0.1216  0.5859
  121CHL1   C1915180   4.939   3.571   3.645 -0.0100 -0.4804  0.0171
  121CHL1  H19A15181   5.040   3.613   3.627  0.1732 -1.5740 -1.7721
  121CHL1  H19B15182   4.887   3.595   3.549 -0.9916  0.1744  0.6903
  121CHL1  H19C15183   4.899   3.627   3.732  0.1283 -1.6866  0.8843
  121CHL1    C115184   5.047   3.360   3.554  0.4402 -0.4624 -0.3090
  121CHL1   H1A15185   5.140   3.421   3.566 -2.1057  4.4974 -2.8480
  121CHL1   H1B15186   5.072   3.255   3.579  1.0378 -0.0293  1.0314
  121CHL1    C215187   5.009   3.370   3.407  0.2637 -0.4322  0.7631
  121CHL1   H2A15188   5.093   3.324   3.351  1.0512  1.1266  0.6267
  121CHL1   H2B15189   4.984   3.471   3.368 -0.9779 -0.1660  2.1577
  121CHL1   C2015190   5.214   3.459   4.316 -0.5497 -0.5294  0.6274
  121CHL1   H2015191   5.235   3.558   4.270 -0.1081 -0.3508  1.2058
  121CHL1   C2115192   5.351   3.391   4.308  0.5030  1.0664 -0.0972
  121CHL1  H21A15193   5.387   3.383   4.203  1.3692 -1.7885  0.3400
  121CHL1  H21B15194   5.347   3.291   4.355 -0.9603  0.7616 -0.7979
  121CHL1  H21C15195   5.432   3.456   4.348 -0.4484  2.6792 -0.7022
  121CHL1   C2215196   5.182   3.475   4.467 -0.2412 -0.2097  0.1804
  121CHL1  H22A15197   5.082   3.522   4.475 -1.1146 -2.0957  0.6842
  121CHL1  H22B15198   5.172   3.371   4.504  0.6237 -0.5629 -0.5366
  121CHL1   C2315199   5.274   3.573   4.546 -0.3612 -0.4910  0.2890
  121CHL1  H23A15200   5.381   3.547   4.531 -0.3579  0.2809 -1.2794
  121CHL1  H23B15201   5.256   3.670   4.495  3.1659 -0.7606 -1.8436
  121CHL1   C2415202   5.253   3.589   4.700  1.1708 -0.0792 -0.3058
  121CHL1  H24A15203   5.144   3.608   4.709  0.8234 -2.3477  1.4196
  121CHL1  H24B15204   5.265   3.489   4.748  0.7159  0.4353  0.9193
  121CHL1   C2515205   5.348   3.683   4.780 -0.4063 -0.0627 -0.2942
  121CHL1   H2515206   5.453   3.655   4.762 -0.8270 -2.0083  0.1060
  121CHL1   C2615207   5.322   3.832   4.753  0.6239  0.2315 -0.3541
  121CHL1  H26A15208   5.380   3.893   4.825 -1.2168  2.0524 -0.3028
  121CHL1  H26B15209   5.360   3.847   4.650  2.9502 -1.0207  0.2558
  121CHL1  H26C15210   5.213   3.855   4.761  0.7956  1.0301 -0.1938
  121CHL1   C2715211   5.326   3.663   4.934  0.5391  0.3674  0.0250
  121CHL1  H27A15212   5.412   3.711   4.985  2.1588 -0.4552 -1.7841
  121CHL1  H27B15213   5.232   3.718   4.955 -1.3161 -2.1173 -1.1405
  121CHL1  H27C15214   5.319   3.554   4.956  1.3381  0.1221 -0.8478
  122CHL1    C315215   3.206   3.311   3.698 -0.3755  0.6794 -1.1063
  122CHL1    H315216   3.136   3.396   3.713  1.6664  2.4688 -1.2496
  122CHL1    O315217   3.196   3.255   3.569 -0.2064 -0.0555  0.0207
  122CHL1   H3'15218   3.173   3.324   3.507 -0.6491 -1.7742 -1.8224
  122CHL1    C415219   3.345   3.367   3.725 -0.0582 -0.1957  0.4911
  122CHL1   H4A15220   3.416   3.302   3.670  1.6196  2.9742 -1.3219
  122CHL1   H4B15221   3.361   3.459   3.666  1.2202 -2.0363 -2.2525
  122CHL1    C515222   3.372   3.389   3.874  0.2642  0.5703 -0.0531
  122CHL1    C615223   3.432   3.499   3.919  0.0602 -0.3983 -0.2146
  122CHL1    H615224   3.466   3.577   3.848 -2.9557  2.6472  1.4047
  122CHL1    C715225   3.473   3.531   4.061  0.0809 -0.4813  1.1624
  122CHL1   H7A15226   3.582   3.554   4.061 -0.5010  2.6891  0.8445
  122CHL1   H7B15227   3.420   3.620   4.101 -0.6076  0.8637 -2.3790
  122CHL1    C815228   3.443   3.409   4.155  0.5414 -0.2441  0.0832
  122CHL1    H815229   3.529   3.339   4.154  0.4338 -0.3752 -0.0428
  122CHL1   C1415230   3.440   3.454   4.299 -0.1360  0.1063 -0.8710
  122CHL1   H1415231   3.355   3.526   4.305  2.4928  3.3674  2.4902
  122CHL1   C1515232   3.550   3.548   4.347 -0.2538  0.4236  0.1934
  122CHL1  H15A15233   3.652   3.528   4.309  0.7292  3.7424  0.7973
  122CHL1  H15B15234   3.532   3.656   4.333  1.7932  0.7418 -0.2787
  122CHL1   C1615235   3.544   3.521   4.500  0.3805  0.3269 -0.4251
  122CHL1  H16A15236   3.650   3.499   4.526  0.7663  1.3816 -1.0548
  122CHL1  H16B15237   3.540   3.620   4.549  0.6939  0.8361 -1.4100
  122CHL1   C1715238   3.432   3.424   4.534  1.0296  0.6136 -0.2327
  122CHL1   H1715239   3.336   3.477   4.548  0.9144  0.2034  0.6456
  122CHL1   C1315240   3.421   3.341   4.401 -0.0276  0.8180  0.5881
  122CHL1   C1815241   3.532   3.238   4.391  0.5177  0.1246 -0.2898
  122CHL1  H18A15242   3.534   3.192   4.290  0.7487 -1.4048  0.3843
  122CHL1  H18B15243   3.632   3.283   4.403  0.5654 -0.0971  0.1928
  122CHL1  H18C15244   3.525   3.158   4.468  1.9600  1.2585  1.0697
  122CHL1   C1215245   3.282   3.285   4.371  0.9750  0.1246 -0.4607
  122CHL1  H12A15246   3.265   3.205   4.446 -0.6262  2.4192  1.7939
  122CHL1  H12B15247   3.204   3.359   4.399  0.4095 -0.2777 -0.9423
  122CHL1   C1115248   3.264   3.243   4.222 -0.2217 -1.1675 -0.1570
  122CHL1  H11A15249   3.311   3.142   4.222  2.8579  0.0997  2.3864
  122CHL1  H11B15250   3.156   3.220   4.204 -0.9071  1.0387  0.8035
  122CHL1    C915251   3.313   3.345   4.115  0.0791  0.5282 -0.0292
  122CHL1    H915252   3.235   3.425   4.112  1.4518  1.9034 -0.8280
  122CHL1   C1015253   3.321   3.281   3.973  0.1243 -0.9170  0.6405
  122CHL1   C1915254   3.414   3.163   3.978  0.3231 -0.1858  0.5141
  122CHL1  H19A15255   3.503   3.188   4.040  0.9890  0.0826 -0.5123
  122CHL1  H19B15256   3.367   3.073   4.022  0.0405  0.3151  1.2426
  122CHL1  H19C15257   3.442   3.136   3.873  2.3466  2.0713  0.3629
  122CHL1    C115258   3.178   3.238   3.937  0.1497  0.0315 -0.7755
  122CHL1   H1A15259   3.160   3.151   4.004  1.2885 -0.2154 -0.7813
  122CHL1   H1B15260   3.109   3.318   3.971 -1.9164 -1.4719 -1.2437
  122CHL1    C215261   3.160   3.201   3.792 -0.3918  0.0086  0.4569
  122CHL1   H2A15262   3.054   3.175   3.770 -0.9419  2.7636 -0.6045
  122CHL1   H2B15263   3.229   3.116   3.775 -0.4682 -0.0692  0.5385
  122CHL1   C2015264   3.456   3.331   4.658 -0.5716 -0.8885  0.0300
  122CHL1   H2015265   3.536   3.258   4.632 -0.4230 -1.1374  1.1594
  122CHL1   C2115266   3.333   3.241   4.693 -0.1931 -0.0141  0.8179
  122CHL1  H21A15267   3.340   3.204   4.797  1.2378 -0.6683  0.5123
  122CHL1  H21B15268   3.325   3.161   4.616 -0.1508  0.1736  0.6155
  122CHL1  H21C15269   3.243   3.306   4.702  0.6652  1.2957  0.2836
  122CHL1   C2215270   3.514   3.401   4.782  0.1603 -0.5413 -0.6676
  122CHL1  H22A15271   3.524   3.321   4.858 -1.7839  0.1353  0.3671
  122CHL1  H22B15272   3.617   3.435   4.759  0.1899 -0.9083 -1.0974
  122CHL1   C2315273   3.434   3.520   4.845  0.0206 -0.4247 -0.0785
  122CHL1  H23A15274   3.420   3.602   4.771 -0.8097  0.7877  1.3525
  122CHL1  H23B15275   3.332   3.486   4.873 -0.9091  0.2516 -2.4111
  122CHL1   C2415276   3.498   3.584   4.961 -0.0980  0.1861 -0.0342
  122CHL1  H24A15277   3.536   3.514   5.039  0.8437 -0.7159 -1.2477
  122CHL1  H24B15278   3.582   3.648   4.928 -0.1470 -0.1040 -0.7380
  122CHL1   C2515279   3.409   3.679   5.044  0.5200  0.0842  0.3889
  122CHL1   H2515280   3.474   3.735   5.114 -1.2046  0.5481  1.6875
  122CHL1   C2615281   3.343   3.792   4.955 -0.2276 -0.2471  0.5177
  122CHL1  H26A15282   3.252   3.756   4.903  0.4941 -1.0160 -0.2494
  122CHL1  H26B15283   3.322   3.875   5.025 -2.0414  0.4625 -0.7920
  122CHL1  H26C15284   3.410   3.825   4.873 -1.8429 -1.8362 -1.5832
  122CHL1   C2715285   3.313   3.603   5.137 -0.3196 -0.7672 -0.3587
  122CHL1  H27A15286   3.252   3.520   5.095 -2.4795  0.0799  0.9577
  122CHL1  H27B15287   3.373   3.560   5.220 -0.4917 -0.3487 -0.0135
  122CHL1  H27C15288   3.242   3.674   5.184 -0.3363 -0.4463 -0.8646
  123CHL1    C315289   6.816   3.601   3.722  0.7991 -0.2015 -0.0690
  123CHL1    H315290   6.782   3.501   3.686  4.2679 -0.6737 -2.5207
  123CHL1    O315291   6.837   3.686   3.613 -0.0634  0.6014 -0.4581
  123CHL1   H3'15292   6.931   3.679   3.597 -0.3826 -0.7135 -1.9620
  123CHL1    C415293   6.717   3.674   3.824 -0.5811 -0.6974  0.0736
  123CHL1   H4A15294   6.757   3.775   3.850  1.5290 -1.2703 -0.7523
  123CHL1   H4B15295   6.627   3.684   3.760 -0.2373  0.2066 -0.2890
  123CHL1    C515296   6.697   3.603   3.955 -0.0272 -0.2884 -0.1183
  123CHL1    C615297   6.576   3.585   4.010  0.4007 -0.5221  0.7616
  123CHL1    H615298   6.493   3.614   3.944  0.3799  1.1901  1.4675
  123CHL1    C715299   6.549   3.522   4.144  0.9048 -0.1248  0.4699
  123CHL1   H7A15300   6.471   3.586   4.191 -0.1472 -0.1379 -1.1719
  123CHL1   H7B15301   6.503   3.421   4.137  1.7543 -0.6093  1.6323
  123CHL1    C815302   6.678   3.519   4.231  0.0174  0.2837 -0.9549
  123CHL1    H815303   6.678   3.624   4.266  1.2415 -0.5793  1.9765
  123CHL1   C1415304   6.661   3.420   4.349  0.3395 -0.0188 -0.3723
  123CHL1   H1415305   6.630   3.320   4.312  0.5671  0.1088 -0.9126
  123CHL1   C1515306   6.545   3.458   4.442  0.4490 -0.5729 -0.0000
  123CHL1  H15A15307   6.535   3.567   4.461  0.6880 -0.4590 -0.5136
  123CHL1  H15B15308   6.442   3.434   4.408  0.7837 -1.0693 -0.6927
  123CHL1   C1615309   6.562   3.373   4.565  0.1271  0.0272 -0.0096
  123CHL1  H16A15310   6.542   3.438   4.653  0.2175  2.2787 -1.5732
  123CHL1  H16B15311   6.483   3.295   4.573 -1.1362  1.3391  0.9509
  123CHL1   C1715312   6.708   3.322   4.551  0.0949 -0.7255  0.1045
  123CHL1   H1715313   6.704   3.217   4.515 -1.0228 -1.1923  1.4756
  123CHL1   C1315314   6.778   3.406   4.437 -0.1404  0.2155 -0.0309
  123CHL1   C1815315   6.815   3.550   4.489  0.1975 -0.6677 -0.8852
  123CHL1  H18A15316   6.901   3.543   4.559 -0.8461  0.1956  0.5409
  123CHL1  H18B15317   6.835   3.630   4.415  2.6764 -1.1911 -0.8681
  123CHL1  H18C15318   6.734   3.595   4.550  0.1966 -1.2617 -0.4344
  123CHL1   C1215319   6.898   3.349   4.355  0.1379 -0.3126 -0.5096
  123CHL1  H12A15320   6.992   3.344   4.415  0.0998  0.9822 -0.3166
  123CHL1  H12B15321   6.876   3.249   4.313 -0.2173  0.6454 -2.7242
  123CHL1   C1115322   6.922   3.435   4.237 -0.2026 -0.2489  1.0603
  123CHL1  H11A15323   6.966   3.533   4.264 -0.4784  0.4252 -0.7436
  123CHL1  H11B15324   6.993   3.390   4.165 -1.9020 -0.5797 -0.5005
  123CHL1    C915325   6.793   3.476   4.149  0.0591 -0.2463 -0.0828
  123CHL1    H915326   6.767   3.376   4.108  1.7015 -0.3088 -1.0674
  123CHL1   C1015327   6.825   3.562   4.023  0.3403  0.4817 -0.7952
  123CHL1   C1915328   6.892   3.698   4.075 -0.2319  1.0376 -0.6788
  123CHL1  H19A15329   6.925   3.764   3.991  1.0685  1.7112  0.3317
  123CHL1  H19B15330   6.815   3.745   4.141 -1.2827 -1.8856  0.3303
  123CHL1  H19C15331   6.985   3.685   4.133  0.8230  2.5434 -1.9231
  123CHL1    C115332   6.920   3.488   3.919 -0.2150 -0.5430  0.1044
  123CHL1   H1A15333   7.018   3.477   3.970 -0.2032  0.8591  0.4009
  123CHL1   H1B15334   6.867   3.392   3.899 -3.9675  1.3330  0.0436
  123CHL1    C215335   6.946   3.565   3.787 -0.1389  0.7027  0.0007
  123CHL1   H2A15336   7.015   3.504   3.725 -1.0847 -1.5838  1.0565
  123CHL1   H2B15337   7.009   3.654   3.808 -0.3623  1.0302 -0.6836
  123CHL1   C2015338   6.782   3.306   4.690  0.2554 -0.5777  0.9615
  123CHL1   H2015339   6.787   3.407   4.736  0.2885  0.6629 -1.5976
  123CHL1   C2115340   6.922   3.250   4.663  0.0340  0.0006 -0.1562
  123CHL1  H21A15341   6.927   3.184   4.574 -0.2361 -0.2933  0.0446
  123CHL1  H21B15342   6.966   3.200   4.752 -2.2035 -1.1592  0.3761
  123CHL1  H21C15343   6.981   3.339   4.631  0.6084 -0.8566 -1.5341
  123CHL1   C2215344   6.699   3.223   4.791  0.0824  0.3972  0.0563
  123CHL1  H22A15345   6.733   3.228   4.896 -0.0923  1.9129  0.0649
  123CHL1  H22B15346   6.598   3.267   4.799 -0.1178  0.0722 -0.5807
  123CHL1   C2315347   6.698   3.066   4.760  0.0645 -0.2323 -0.4377
  123CHL1  H23A15348   6.664   3.058   4.655 -3.5257  2.0365  0.3701
  123CHL1  H23B15349   6.803   3.034   4.773  0.2555 -0.2564 -1.9053
  123CHL1   C2415350   6.594   3.001   4.851  0.5315  0.0102 -0.2913
  123CHL1  H24A15351   6.594   3.040   4.955  0.4934 -0.6670 -0.0319
  123CHL1  H24B15352   6.492   3.013   4.809 -0.0079 -0.2812  0.8902
  123CHL1   C2515353   6.633   2.852   4.868 -0.6200 -0.6197 -0.6726
  123CHL1   H2515354   6.681   2.819   4.773  0.1320  1.7288 -1.1752
  123CHL1   C2615355   6.725   2.814   4.982  0.2172  0.0032 -0.3277
  123CHL1  H26A15356   6.743   2.704   4.990  0.7090  0.1013 -0.0422
  123CHL1  H26B15357   6.819   2.873   4.971 -0.4130  1.1355  0.1697
  123CHL1  H26C15358   6.683   2.853   5.077 -0.3504 -1.4008  0.0251
  123CHL1   C2715359   6.510   2.766   4.874  0.2823 -0.3388 -0.6690
  123CHL1  H27A15360   6.466   2.778   4.975  2.4334 -1.4982  0.4541
  123CHL1  H27B15361   6.433   2.800   4.800 -3.5913 -2.0968  2.1911
  123CHL1  H27C15362   6.528   2.660   4.848  0.4363 -0.6238  0.5704
  124CHL1    C315363   4.918   4.177   3.479  0.7391 -0.0092 -0.2493
  124CHL1    H315364   4.873   4.076   3.470  1.2085 -0.3426  0.9632
  124CHL1    O315365   4.928   4.234   3.346 -0.0534  0.8748 -0.4852
  124CHL1   H3'15366   4.839   4.247   3.311 -0.4371 -0.4689 -0.0775
  124CHL1    C415367   4.828   4.256   3.576 -0.1141  0.0623  0.7884
  124CHL1   H4A15368   4.857   4.363   3.579 -3.9197  1.2469  0.6824
  124CHL1   H4B15369   4.729   4.259   3.526  0.4523 -0.3104 -0.3706
  124CHL1    C515370   4.817   4.201   3.714  0.1609  0.2910 -0.2131
  124CHL1    C615371   4.702   4.170   3.772 -0.2431 -0.5512  0.4245
  124CHL1    H615372   4.608   4.206   3.728  1.0780  1.7250 -0.7760
  124CHL1    C715373   4.681   4.113   3.908  0.1383 -0.0475 -0.1871
  124CHL1   H7A15374   4.607   4.182   3.953  1.1208  0.9098  0.0266
  124CHL1   H7B15375   4.648   4.007   3.909  2.2649 -0.7553  0.1753
  124CHL1    C815376   4.808   4.130   3.990 -0.8975 -0.1327 -0.3105
  124CHL1    H815377   4.822   4.235   4.021 -0.7834  0.0430 -0.9405
  124CHL1   C1415378   4.802   4.064   4.126  0.2920  0.9189 -0.0221
  124CHL1   H1415379   4.801   3.955   4.104  4.1356  0.7177  0.0481
  124CHL1   C1515380   4.675   4.087   4.209 -0.5350 -0.3898 -0.1905
  124CHL1  H15A15381   4.645   4.194   4.209 -0.2596 -0.3112 -0.7623
  124CHL1  H15B15382   4.595   4.020   4.170  0.7450 -1.3087 -1.3465
  124CHL1   C1615383   4.717   4.036   4.344  0.0302 -0.2913  0.4063
  124CHL1  H16A15384   4.719   4.133   4.399  0.5507 -1.6589  2.9679
  124CHL1  H16B15385   4.637   3.972   4.386 -0.5611 -0.7085 -1.2921
  124CHL1   C1715386   4.863   3.990   4.336 -0.0282 -0.1749 -0.5587
  124CHL1   H1715387   4.852   3.885   4.300  0.5984 -0.5532  0.3009
  124CHL1   C1315388   4.923   4.068   4.216  0.0056 -0.2532  0.1403
  124CHL1   C1815389   4.949   4.222   4.255  0.0687  0.4399 -0.7899
  124CHL1  H18A15390   5.040   4.244   4.314 -1.1053  0.2128  1.2033
  124CHL1  H18B15391   4.953   4.277   4.159  0.8583  0.0628 -0.9804
  124CHL1  H18C15392   4.862   4.254   4.315 -1.0391 -0.4465 -1.8568
  124CHL1   C1215393   5.043   4.000   4.138 -0.4909 -0.0650 -0.1092
  124CHL1  H12A15394   5.133   4.006   4.203 -0.8629  0.5872  0.3577
  124CHL1  H12B15395   5.026   3.892   4.120  1.5711 -0.6621  1.2094
  124CHL1   C1115396   5.060   4.063   3.996 -0.4722  0.3917 -0.4848
  124CHL1  H11A15397   5.110   4.161   4.009 -0.1011 -0.0899  2.3993
  124CHL1  H11B15398   5.126   3.994   3.940  3.9868  2.0660  2.1820
  124CHL1    C915399   4.932   4.084   3.909  0.7123 -0.3135 -0.6995
  124CHL1    H915400   4.905   3.979   3.884 -0.5572  0.5893 -3.4483
  124CHL1   C1015401   4.954   4.172   3.778  0.0080  0.0987 -0.2862
  124CHL1   C1915402   5.029   4.305   3.805 -0.1418 -0.1601  0.2197
  124CHL1  H19A15403   5.008   4.384   3.729 -3.3677 -0.0817  1.0252
  124CHL1  H19B15404   4.986   4.356   3.894  0.1761  0.2965  0.1169
  124CHL1  H19C15405   5.138   4.289   3.817 -0.2017 -0.5131  0.2956
  124CHL1    C115406   5.034   4.088   3.680 -0.3937  0.1573 -0.3461
  124CHL1   H1A15407   5.133   4.057   3.720 -0.1770  1.0726 -0.1448
  124CHL1   H1B15408   4.972   3.998   3.661  2.3028 -1.5574 -1.6032
  124CHL1    C215409   5.057   4.152   3.538  0.1441  0.4765  0.1246
  124CHL1   H2A15410   5.121   4.086   3.475  0.6958 -0.1255  1.2926
  124CHL1   H2B15411   5.115   4.245   3.547  0.1367  0.4536  0.3952
  124CHL1   C2015412   4.928   3.996   4.478 -0.1770 -0.0295 -0.3108
  124CHL1   H2015413   4.964   4.098   4.503 -0.4805 -0.0709  0.3018
  124CHL1   C2115414   5.055   3.897   4.482  0.8336 -0.5494  0.0046
  124CHL1  H21A15415   5.121   3.922   4.568  0.7370  1.3676 -0.4456
  124CHL1  H21B15416   5.123   3.910   4.395  3.0307 -0.4288  1.6403
  124CHL1  H21C15417   5.023   3.791   4.488  0.2409 -0.3196  1.0997
  124CHL1   C2215418   4.832   3.957   4.595 -0.5535  0.6415 -0.3621
  124CHL1  H22A15419   4.739   4.018   4.597 -1.7921 -1.1899  0.8306
  124CHL1  H22B15420   4.804   3.853   4.569 -1.7769  1.4883 -2.7701
  124CHL1   C2315421   4.905   3.972   4.731  0.1782 -0.1527 -0.0846
  124CHL1  H23A15422   5.006   3.929   4.748 -0.8668 -2.8082 -0.0297
  124CHL1  H23B15423   4.912   4.081   4.748  0.2873 -0.3145  0.9209
  124CHL1   C2415424   4.825   3.911   4.853 -0.2081  0.1785  0.1050
  124CHL1  H24A15425   4.726   3.959   4.862 -0.3962 -0.0807 -0.5299
  124CHL1  H24B15426   4.817   3.803   4.827  0.7523  0.6813 -2.5373
  124CHL1   C2515427   4.901   3.932   4.989 -0.7021 -0.2785 -0.2827
  124CHL1   H2515428   5.006   3.905   4.965 -0.4582  1.1468 -0.9034
  124CHL1   C2615429   4.891   4.078   5.032  0.3364  0.3395 -0.3278
  124CHL1  H26A15430   4.963   4.136   4.970  4.3734 -2.4674  1.3212
  124CHL1  H26B15431   4.795   4.134   5.024  0.2294  0.4705  1.5084
  124CHL1  H26C15432   4.926   4.088   5.137 -0.4018  0.4835 -0.0919
  124CHL1   C2715433   4.866   3.844   5.109  0.4171 -0.2985  0.1961
  124CHL1  H27A15434   4.944   3.862   5.187 -0.6150  1.9895  0.7907
  124CHL1  H27B15435   4.773   3.889   5.151  1.2617  1.5695  0.1790
  124CHL1  H27C15436   4.857   3.737   5.081 -0.4494  0.0898 -1.0742
  125CHL1    C315437   5.214   4.813   3.654  0.0683  0.2527 -0.1980
  125CHL1    H315438   5.288   4.730   3.652 -0.4023 -0.2026  0.6224
  125CHL1    O315439   5.189   4.864   3.524 -0.1208  0.2935  0.1757
  125CHL1   H3'15440   5.096   4.845   3.509 -0.4870  3.8206 -4.0872
  125CHL1    C415441   5.080   4.776   3.714  0.4189  0.5715 -0.1024
  125CHL1   H4A15442   5.008   4.858   3.697  0.0572  0.4667  0.8634
  125CHL1   H4B15443   5.029   4.695   3.657 -0.3893  1.3754 -0.5358
  125CHL1    C515444   5.099   4.742   3.863  0.1191 -0.3263  0.8223
  125CHL1    C615445   5.060   4.622   3.900 -0.3525 -0.3440 -0.7855
  125CHL1    H615446   5.002   4.555   3.835 -0.8921 -2.1449  1.4095
  125CHL1    C715447   5.073   4.583   4.048  0.5881  0.0002  0.3840
  125CHL1   H7A15448   4.979   4.530   4.075 -0.1382  0.0109 -1.9120
  125CHL1   H7B15449   5.156   4.512   4.062  1.0648 -0.2860 -2.9551
  125CHL1    C815450   5.097   4.709   4.140  0.3104  0.3993  0.1433
  125CHL1    H815451   5.002   4.768   4.145 -0.7062 -1.2487  1.4645
  125CHL1   C1415452   5.126   4.661   4.284  0.4166  0.7391  0.1702
  125CHL1   H1415453   5.222   4.607   4.270  0.4562  0.5985  0.9629
  125CHL1   C1515454   5.029   4.557   4.346 -0.3434 -0.2030 -0.1530
  125CHL1  H15A15455   4.927   4.596   4.323 -0.6856 -0.4802  0.8614
  125CHL1  H15B15456   5.039   4.455   4.304 -1.7614 -0.8704  1.0211
  125CHL1   C1615457   5.065   4.562   4.497 -0.1875 -0.0870 -0.4064
  125CHL1  H16A15458   4.974   4.577   4.560 -0.1870 -0.1321 -0.3943
  125CHL1  H16B15459   5.117   4.466   4.516 -0.1281 -0.0409 -0.3347
  125CHL1   C1715460   5.166   4.684   4.519 -0.6469  0.8514 -0.7782
  125CHL1   H1715461   5.271   4.650   4.512 -0.7422 -0.0282  1.3958
  125CHL1   C1315462   5.148   4.767   4.390  0.1151  0.0401  0.3677
  125CHL1   C1815463   5.016   4.854   4.403 -0.2192  1.0253  0.7691
  125CHL1  H18A15464   4.932   4.786   4.430  0.2655  0.3053  0.4886
  125CHL1  H18B15465   5.033   4.937   4.476  0.7862  1.4163  0.1077
  125CHL1  H18C15466   4.995   4.917   4.314 -2.2503  1.9825  1.8381
  125CHL1   C1215467   5.274   4.854   4.339  0.3101 -0.1899  0.0676
  125CHL1  H12A15468   5.300   4.942   4.402 -1.8021  0.3704  0.2411
  125CHL1  H12B15469   5.357   4.782   4.354  1.6794  1.8223  3.2099
  125CHL1   C1115470   5.254   4.895   4.201  0.2291  0.2307  0.1529
  125CHL1  H11A15471   5.185   4.982   4.203  0.5662  0.5255 -0.7374
  125CHL1  H11B15472   5.344   4.950   4.168 -0.0893  0.0893 -0.9906
  125CHL1    C915473   5.217   4.794   4.093 -0.2423 -0.2149 -0.1087
  125CHL1    H915474   5.307   4.729   4.091  1.4312  2.0220 -1.9875
  125CHL1   C1015475   5.187   4.841   3.945 -0.1204 -0.5447  0.2463
  125CHL1   C1915476   5.091   4.964   3.966 -0.0240 -0.5599  0.5287
  125CHL1  H19A15477   5.017   4.949   4.048  1.0877  0.5312  1.7724
  125CHL1  H19B15478   5.158   5.045   4.000 -0.8975  0.9251 -1.1492
  125CHL1  H19C15479   5.050   5.008   3.873 -0.5876 -1.8827  0.1308
  125CHL1    C115480   5.314   4.881   3.874 -0.2323 -0.4156 -0.2773
  125CHL1   H1A15481   5.353   4.974   3.921 -1.3968 -0.1387  0.1919
  125CHL1   H1B15482   5.388   4.799   3.876  2.0190  1.3924 -2.5212
  125CHL1    C215483   5.288   4.926   3.730 -0.1671  0.3823  0.2025
  125CHL1   H2A15484   5.382   4.953   3.677 -0.5328  1.3147  0.0146
  125CHL1   H2B15485   5.230   5.020   3.732  0.4163  0.8438 -1.7357
  125CHL1   C2015486   5.151   4.748   4.654  0.1607 -0.6539  0.1257
  125CHL1   H2015487   5.055   4.803   4.664  0.3551 -0.3978  0.6306
  125CHL1   C2115488   5.245   4.868   4.660  0.3065  0.4597 -0.0158
  125CHL1  H21A15489   5.349   4.836   4.638  0.6382  1.6777 -0.2740
  125CHL1  H21B15490   5.233   4.911   4.762 -0.6411 -0.0502  0.0973
  125CHL1  H21C15491   5.207   4.955   4.602 -0.9184  0.3111  0.5284
  125CHL1   C2215492   5.164   4.645   4.770  0.1129  0.2541 -0.2181
  125CHL1  H22A15493   5.080   4.574   4.761  0.2825 -0.4816  2.8123
  125CHL1  H22B15494   5.267   4.602   4.764  1.2030  2.4754  1.1040
  125CHL1   C2315495   5.142   4.711   4.910 -0.2829 -0.8341  0.3971
  125CHL1  H23A15496   5.238   4.757   4.941 -0.9686 -0.5428  2.2357
  125CHL1  H23B15497   5.061   4.787   4.909  0.2249 -0.2914 -0.4369
  125CHL1   C2415498   5.110   4.600   5.015  0.3259  0.2720  0.0438
  125CHL1  H24A15499   5.087   4.640   5.116 -0.6376 -2.1788  0.8775
  125CHL1  H24B15500   5.015   4.549   4.986 -0.7155  2.2082 -0.0939
  125CHL1   C2515501   5.223   4.486   5.015 -0.0515 -0.3560 -0.1356
  125CHL1   H2515502   5.237   4.452   4.910 -1.6254  1.5952 -1.0464
  125CHL1   C2615503   5.353   4.542   5.080 -0.6028  0.7031  0.0077
  125CHL1  H26A15504   5.395   4.620   5.012 -0.8042 -0.2329 -1.2139
  125CHL1  H26B15505   5.330   4.586   5.180 -1.4787  2.2098 -0.8066
  125CHL1  H26C15506   5.422   4.458   5.103 -0.6873  1.4862  3.8215
  125CHL1   C2715507   5.172   4.366   5.096  0.0541  0.4387 -0.3609
  125CHL1  H27A15508   5.158   4.394   5.203  1.8755  1.6642 -0.4027
  125CHL1  H27B15509   5.089   4.309   5.049  1.0499 -0.5494 -0.9744
  125CHL1  H27C15510   5.260   4.297   5.099  1.5761  2.2600 -0.9280
  126CHL1    C315511   4.562   5.259   3.528 -1.1419  0.1069 -0.3306
  126CHL1    H315512   4.667   5.296   3.521 -1.2627  0.3900 -0.6715
  126CHL1    O315513   4.506   5.243   3.404 -0.4173 -0.4907  0.6869
  126CHL1   H3'15514   4.529   5.313   3.343  1.0902 -0.9214  0.7239
  126CHL1    C415515   4.558   5.117   3.591 -0.3191  0.3758 -0.7796
  126CHL1   H4A15516   4.459   5.074   3.566  0.8574 -2.3734 -1.1004
  126CHL1   H4B15517   4.629   5.055   3.533 -1.5937 -2.0742  0.1642
  126CHL1    C515518   4.587   5.114   3.741 -0.1667  0.3261 -0.3817
  126CHL1    C615519   4.671   5.027   3.799  0.6203 -0.2092 -0.3769
  126CHL1    H615520   4.719   4.950   3.737  1.3815  0.1849 -0.2956
  126CHL1    C715521   4.701   5.028   3.945  0.1220 -0.1384 -0.0540
  126CHL1   H7A15522   4.717   4.923   3.977  1.4771  0.4262  1.2123
  126CHL1   H7B15523   4.802   5.069   3.962 -0.0270 -0.2889  1.3057
  126CHL1    C815524   4.593   5.097   4.034  0.1776 -0.0752 -0.0598
  126CHL1    H815525   4.504   5.031   4.038 -0.9195  1.3632  0.0384
  126CHL1   C1415526   4.645   5.113   4.175 -0.1275  0.1683 -0.4265
  126CHL1   H1415527   4.730   5.184   4.161  0.5172 -0.1619  1.5888
  126CHL1   C1515528   4.710   4.993   4.258  1.1560 -0.0239  0.0290
  126CHL1  H15A15529   4.657   4.897   4.240  0.7015  0.3193 -0.4851
  126CHL1  H15B15530   4.814   4.973   4.225  1.6729  1.6147  0.5745
  126CHL1   C1615531   4.703   5.045   4.403  0.3606 -0.2722  0.5527
  126CHL1  H16A15532   4.627   4.987   4.460 -1.2876  0.9480 -0.2990
  126CHL1  H16B15533   4.801   5.034   4.453 -0.1601 -0.2626  1.6026
  126CHL1   C1715534   4.642   5.189   4.405 -0.1610  0.1979  0.5828
  126CHL1   H1715535   4.722   5.263   4.382  0.2952 -0.4090  0.1973
  126CHL1   C1315536   4.551   5.188   4.276  0.7825  0.8903  0.5051
  126CHL1   C1815537   4.436   5.097   4.302  0.0298  0.0153  0.2799
  126CHL1  H18A15538   4.369   5.147   4.376 -1.3486  0.9419 -1.5220
  126CHL1  H18B15539   4.374   5.083   4.211  0.4029  0.4708 -0.0542
  126CHL1  H18C15540   4.465   4.997   4.338 -0.1557  0.4610  1.7412
  126CHL1   C1215541   4.512   5.327   4.217 -0.4595  0.5874 -0.2476
  126CHL1  H12A15542   4.438   5.362   4.291  1.0531  0.5214  1.3534
  126CHL1  H12B15543   4.602   5.393   4.217 -0.6386  0.8583 -1.3426
  126CHL1   C1115544   4.463   5.313   4.074 -0.5019 -0.1528 -0.4582
  126CHL1  H11A15545   4.372   5.250   4.077 -0.9612  0.5389  0.2676
  126CHL1  H11B15546   4.431   5.412   4.035  0.6526 -0.3090 -1.8955
  126CHL1    C915547   4.566   5.237   3.978 -0.5287 -0.5350 -0.3357
  126CHL1    H915548   4.660   5.297   3.968 -1.0957  0.1343 -1.9943
  126CHL1   C1015549   4.512   5.227   3.828  0.5128  0.1984  0.1469
  126CHL1   C1915550   4.366   5.180   3.822  0.3567 -0.0434 -0.3280
  126CHL1  H19A15551   4.317   5.169   3.723  0.5893  0.7119 -0.5403
  126CHL1  H19B15552   4.337   5.095   3.886  3.4038  0.8053  2.4704
  126CHL1  H19C15553   4.318   5.266   3.874 -1.1270 -0.8303 -0.3563
  126CHL1    C115554   4.527   5.367   3.762 -0.8659 -0.3557  0.3763
  126CHL1   H1A15555   4.464   5.442   3.813 -1.5131 -0.7286  0.1482
  126CHL1   H1B15556   4.633   5.401   3.763 -1.7549  2.7586 -0.3238
  126CHL1    C215557   4.481   5.361   3.608 -0.2177  0.0341 -0.8312
  126CHL1   H2A15558   4.500   5.461   3.563 -0.1915  0.6595  0.5397
  126CHL1   H2B15559   4.372   5.344   3.613 -0.3502  1.1270  0.5079
  126CHL1   C2015560   4.586   5.217   4.540  1.1531  0.2387  0.2079
  126CHL1   H2015561   4.509   5.138   4.555  0.7948  0.5662  0.0868
  126CHL1   C2115562   4.530   5.362   4.554 -0.7995 -0.0436  0.1878
  126CHL1  H21A15563   4.508   5.383   4.661  0.8613 -1.6282  0.8830
  126CHL1  H21B15564   4.427   5.363   4.511 -0.7426 -0.9528  0.0141
  126CHL1  H21C15565   4.594   5.449   4.528 -1.4236  0.4569  0.2817
  126CHL1   C2215566   4.688   5.190   4.650  0.6710 -0.4120 -0.1190
  126CHL1  H22A15567   4.643   5.225   4.745 -1.6089 -0.8447 -0.9934
  126CHL1  H22B15568   4.710   5.081   4.649 -0.5033 -0.6571 -1.3335
  126CHL1   C2315569   4.829   5.262   4.629  0.2640  0.2045  0.3923
  126CHL1  H23A15570   4.899   5.237   4.547 -0.7314 -0.6318 -0.2248
  126CHL1  H23B15571   4.801   5.369   4.626 -0.2141  0.1245  1.4273
  126CHL1   C2415572   4.911   5.239   4.763 -0.1502  0.5011  0.3175
  126CHL1  H24A15573   4.846   5.231   4.853  0.5990  0.2378  0.8485
  126CHL1  H24B15574   4.945   5.133   4.759 -0.3419  0.3932  1.2372
  126CHL1   C2515575   5.037   5.330   4.784  0.3122  0.1710  0.6312
  126CHL1   H2515576   5.093   5.281   4.866  0.3872 -1.4573 -0.3458
  126CHL1   C2615577   5.126   5.340   4.662 -0.1976 -0.2074  0.4671
  126CHL1  H26A15578   5.216   5.400   4.684 -0.6134  0.5040  0.2698
  126CHL1  H26B15579   5.159   5.244   4.618  0.3924 -0.1333  0.7427
  126CHL1  H26C15580   5.073   5.397   4.582 -0.9937 -1.1450  0.3068
  126CHL1   C2715581   4.987   5.473   4.815  0.1713 -0.4739  0.2932
  126CHL1  H27A15582   4.926   5.521   4.736 -0.5725 -0.5402  0.8145
  126CHL1  H27B15583   4.923   5.458   4.905  1.3164  0.3665  1.2849
  126CHL1  H27C15584   5.071   5.538   4.847  0.8274 -2.1566  2.1944
  127CHL1    C315585   2.721   0.177   3.327 -0.0569 -0.0855  0.0801
  127CHL1    H315586   2.625   0.232   3.333  0.8514  1.4001  2.0840
  127CHL1    O315587   2.794   0.224   3.215 -0.7922  0.2669 -0.1937
  127CHL1   H3'15588   2.802   0.317   3.237 -0.3974 -0.1543  1.5762
  127CHL1    C415589   2.790   0.215   3.459  0.9383  0.1210  0.3403
  127CHL1   H4A15590   2.899   0.195   3.448  0.8036 -0.0222 -0.9716
  127CHL1   H4B15591   2.784   0.326   3.455  2.1730  0.1881 -0.2708
  127CHL1    C515592   2.744   0.150   3.589  0.0096 -0.6303 -0.0090
  127CHL1    C615593   2.716   0.239   3.690 -0.5561  0.4057 -0.4436
  127CHL1    H615594   2.744   0.345   3.691 -0.6810  0.4429  0.8377
  127CHL1    C715595   2.658   0.192   3.817 -0.7256  0.7668  0.2053
  127CHL1   H7A15596   2.698   0.240   3.910 -1.0023 -0.9603  1.2567
  127CHL1   H7B15597   2.549   0.209   3.808 -0.9225 -1.1750 -1.7519
  127CHL1    C815598   2.647   0.041   3.830  0.8855 -0.2397 -0.0244
  127CHL1    H815599   2.749   0.008   3.858  1.2844  1.4716  0.6691
  127CHL1   C1415600   2.546   0.010   3.942  0.0893  0.1164 -0.7988
  127CHL1   H1415601   2.448   0.043   3.902 -0.3347  1.1135  0.9821
  127CHL1   C1515602   2.556   0.087   4.072  0.7037 -0.4920 -0.8292
  127CHL1  H15A15603   2.658   0.091   4.116 -0.2453  2.5212  1.4801
  127CHL1  H15B15604   2.512   0.187   4.053 -0.2096 -0.8508 -0.6572
  127CHL1   C1615605   2.475   0.000   4.166 -0.1645  0.1990 -0.0980
  127CHL1  H16A15606   2.537  -0.026   4.254  0.0535 -0.1021 -0.3389
  127CHL1  H16B15607   2.382   0.049   4.200 -1.4876 -2.1353 -0.1535
  127CHL1   C1715608   2.421  -0.128   4.089  0.1726  0.0279  0.1687
  127CHL1   H1715609   2.325  -0.104   4.039 -0.0735  1.2455  1.1876
  127CHL1   C1315610   2.526  -0.142   3.977 -0.6312 -0.1556  0.0948
  127CHL1   C1815611   2.657  -0.206   4.040 -0.4041 -0.2761 -0.3136
  127CHL1  H18A15612   2.644  -0.315   4.057 -2.4476  0.1573  1.3855
  127CHL1  H18B15613   2.736  -0.188   3.964 -0.7293  2.6480 -0.1100
  127CHL1  H18C15614   2.684  -0.168   4.140 -1.9313  0.2301 -0.0675
  127CHL1   C1215615   2.471  -0.202   3.848 -0.4980  0.2057  0.0275
  127CHL1  H12A15616   2.458  -0.312   3.858 -1.4999  0.4294  1.4358
  127CHL1  H12B15617   2.372  -0.163   3.817 -0.4345  1.0850  0.9071
  127CHL1   C1115618   2.571  -0.176   3.735  0.1098  0.2598 -0.2845
  127CHL1  H11A15619   2.665  -0.234   3.747  1.0841  1.5584 -1.3369
  127CHL1  H11B15620   2.529  -0.214   3.640  0.4015  0.0081 -0.3137
  127CHL1    C915621   2.600  -0.028   3.702 -0.7456 -0.3549 -0.7038
  127CHL1    H915622   2.505   0.019   3.670 -1.6554 -2.3412 -1.1046
  127CHL1   C1015623   2.702  -0.001   3.584  0.0170  0.3862  0.1394
  127CHL1   C1915624   2.824  -0.086   3.590  0.2380  0.4046 -0.2544
  127CHL1  H19A15625   2.869  -0.071   3.691 -2.2923 -1.7734  1.3447
  127CHL1  H19B15626   2.792  -0.192   3.583 -0.6927  0.7325 -1.3375
  127CHL1  H19C15627   2.891  -0.059   3.506  2.4699 -0.5252  1.1291
  127CHL1    C115628   2.622  -0.017   3.450 -0.6335 -0.0961 -0.2277
  127CHL1   H1A15629   2.599  -0.126   3.453 -0.1037 -0.2515 -1.3402
  127CHL1   H1B15630   2.516   0.017   3.455 -0.2068  1.0436  1.7434
  127CHL1    C215631   2.693   0.030   3.319 -0.2553 -0.0841 -0.2579
  127CHL1   H2A15632   2.640   0.012   3.223 -1.0316 -1.5534  0.4142
  127CHL1   H2B15633   2.791  -0.021   3.311  0.8505  1.7229  1.0390
  127CHL1   C2015634   2.407  -0.246   4.185 -0.1054  0.0501 -1.2282
  127CHL1   H2015635   2.502  -0.272   4.237 -0.7578  0.4482  0.2325
  127CHL1   C2115636   2.353  -0.371   4.114  0.7722 -0.1533 -0.1985
  127CHL1  H21A15637   2.260  -0.351   4.056 -0.2010  0.2537  1.4350
  127CHL1  H21B15638   2.310  -0.444   4.186 -1.4309  1.2204 -0.0281
  127CHL1  H21C15639   2.425  -0.431   4.054  2.4867  0.6951  0.9262
  127CHL1   C2215640   2.304  -0.205   4.299 -0.5026  0.0263 -0.8255
  127CHL1  H22A15641   2.329  -0.103   4.336  1.3313 -0.5144 -0.4676
  127CHL1  H22B15642   2.201  -0.187   4.262 -1.6508  3.8179  3.3642
  127CHL1   C2315643   2.306  -0.314   4.408  0.5726 -0.0190  0.7618
  127CHL1  H23A15644   2.269  -0.411   4.369  1.5577 -0.0296 -0.1815
  127CHL1  H23B15645   2.413  -0.333   4.432  0.1833 -1.7370  1.2586
  127CHL1   C2415646   2.231  -0.268   4.532 -0.6470  0.3886 -0.4183
  127CHL1  H24A15647   2.277  -0.180   4.582  2.8858 -1.6071  0.1765
  127CHL1  H24B15648   2.130  -0.225   4.513 -0.6972  0.8462  0.7800
  127CHL1   C2515649   2.191  -0.385   4.626  0.1573 -0.0196 -0.6846
  127CHL1   H2515650   2.162  -0.471   4.562  0.1763 -0.6320  0.1104
  127CHL1   C2615651   2.321  -0.425   4.712  0.2049 -0.1085  0.4973
  127CHL1  H26A15652   2.345  -0.333   4.769 -1.0461  1.8761 -1.9720
  127CHL1  H26B15653   2.293  -0.505   4.784  1.1594 -0.2676  0.7030
  127CHL1  H26C15654   2.399  -0.457   4.640  0.0566  0.5018  0.0510
  127CHL1   C2715655   2.068  -0.361   4.723 -0.2383  0.2518  0.7322
  127CHL1  H27A15656   1.978  -0.319   4.674 -0.4881 -1.1892 -0.0655
  127CHL1  H27B15657   2.043  -0.457   4.772  0.1621 -0.7003 -0.8602
  127CHL1  H27C15658   2.093  -0.284   4.800 -2.3460  1.2881  0.4430
  128CHL1    C315659   2.143   2.006   3.551 -0.4882  0.1243  0.2707
  128CHL1    H315660   2.250   1.978   3.547 -0.1716  1.4017 -1.4652
  128CHL1    O315661   2.090   2.019   3.421  0.5510  0.0590 -0.1464
  128CHL1   H3'15662   2.131   1.944   3.377  1.6202 -0.2766  1.3368
  128CHL1    C415663   2.067   1.891   3.630  0.4552  0.3599  0.0751
  128CHL1   H4A15664   1.962   1.892   3.594  0.3932 -1.8238  0.0298
  128CHL1   H4B15665   2.110   1.797   3.588  1.1340  0.9609 -0.6216
  128CHL1    C515666   2.079   1.900   3.784 -0.0074 -0.2364 -0.7710
  128CHL1    C615667   2.107   1.781   3.841 -0.7420  0.0013 -0.8321
  128CHL1    H615668   2.127   1.695   3.775 -0.8476 -1.1103  0.5353
  128CHL1    C715669   2.123   1.775   3.991  0.1437 -0.4241 -0.1195
  128CHL1   H7A15670   2.071   1.686   4.032 -0.7804  0.5942  1.0113
  128CHL1   H7B15671   2.230   1.772   4.024 -0.2953 -0.8676  1.3649
  128CHL1    C815672   2.058   1.897   4.075  0.1355 -0.0046  0.4740
  128CHL1    H815673   1.949   1.877   4.070  0.5496 -2.7992  1.3727
  128CHL1   C1415674   2.093   1.888   4.220 -0.0518 -0.3915  0.1847
  128CHL1   H1415675   2.200   1.918   4.224  0.2767 -1.5604  0.6218
  128CHL1   C1515676   2.085   1.755   4.297 -0.1942  0.2799 -0.7307
  128CHL1  H15A15677   1.987   1.713   4.268 -0.6763  0.7099  0.2230
  128CHL1  H15B15678   2.166   1.680   4.285  0.6213  0.3837  2.8866
  128CHL1   C1615679   2.064   1.804   4.444 -0.6021 -0.0625 -0.4324
  128CHL1  H16A15680   1.960   1.771   4.464  0.3777 -3.9176 -0.8614
  128CHL1  H16B15681   2.136   1.758   4.515 -0.6625  3.5641  2.2869
  128CHL1   C1715682   2.083   1.963   4.439 -0.3257 -0.0509 -1.2358
  128CHL1   H1715683   2.192   1.984   4.441 -0.5254  0.9925 -0.7692
  128CHL1   C1315684   2.034   2.004   4.303  0.6122 -0.3204 -0.5257
  128CHL1   C1815685   1.878   2.013   4.307  0.0670  0.1541 -0.0430
  128CHL1  H18A15686   1.846   2.098   4.372  1.5430  0.2589  0.5800
  128CHL1  H18B15687   1.842   2.033   4.204  0.8751 -1.5198 -0.6947
  128CHL1  H18C15688   1.842   1.915   4.347  0.4517  0.2354  0.5093
  128CHL1   C1215689   2.104   2.131   4.247 -0.5497  0.2124  0.6906
  128CHL1  H12A15690   2.075   2.222   4.304 -0.8643  0.7980 -0.3757
  128CHL1  H12B15691   2.215   2.123   4.250 -0.6430 -0.9849  2.1631
  128CHL1   C1115692   2.067   2.151   4.102  0.5224  0.1571 -0.8129
  128CHL1  H11A15693   1.958   2.171   4.100  0.9214  2.4896 -1.4251
  128CHL1  H11B15694   2.110   2.249   4.072  2.2020 -0.6388 -1.1824
  128CHL1    C915695   2.106   2.029   4.011 -0.1175 -0.4961  0.4748
  128CHL1    H915696   2.217   2.030   4.008 -0.1222  0.0668  0.2875
  128CHL1   C1015697   2.064   2.034   3.856 -0.9772 -0.1547  0.0483
  128CHL1   C1915698   1.911   2.074   3.852  0.1533  0.2964 -0.4088
  128CHL1  H19A15699   1.868   2.051   3.752  0.8214  0.2128 -0.6817
  128CHL1  H19B15700   1.852   2.013   3.924 -0.5547  1.5092  0.0520
  128CHL1  H19C15701   1.899   2.181   3.876  0.7012 -0.0908  1.8374
  128CHL1    C115702   2.158   2.128   3.778 -0.8797 -0.5640  0.2628
  128CHL1   H1A15703   2.148   2.224   3.834 -2.7812 -0.4683 -0.1574
  128CHL1   H1B15704   2.261   2.092   3.799  0.1310  1.1282 -1.5271
  128CHL1    C215705   2.139   2.140   3.624 -0.3394 -0.0232 -0.1392
  128CHL1   H2A15706   2.205   2.204   3.561  0.3105 -0.8455 -0.3185
  128CHL1   H2B15707   2.035   2.179   3.623 -0.3414 -0.0123  0.3653
  128CHL1   C2015708   2.028   2.031   4.562 -0.0139 -0.4325 -0.1594
  128CHL1   H2015709   1.917   2.034   4.555 -0.1108  0.3487  1.2854
  128CHL1   C2115710   2.075   2.175   4.559 -0.0540 -0.1893  0.4001
  128CHL1  H21A15711   1.999   2.236   4.506 -1.5908 -0.5744  2.0417
  128CHL1  H21B15712   2.177   2.193   4.520  0.3800  0.5828  1.8090
  128CHL1  H21C15713   2.071   2.232   4.655 -2.5586 -0.8326  0.7637
  128CHL1   C2215714   2.075   1.959   4.693  0.2044 -0.1681  0.1006
  128CHL1  H22A15715   2.031   1.857   4.694  1.9336 -1.0295 -2.5770
  128CHL1  H22B15716   2.185   1.963   4.703  0.2522 -0.3095 -0.3441
  128CHL1   C2315717   2.011   2.032   4.824 -0.6472  0.8235  0.0401
  128CHL1  H23A15718   2.053   1.983   4.915  0.8118 -2.0135 -1.9902
  128CHL1  H23B15719   2.057   2.133   4.826  0.4700  0.4620 -2.9131
  128CHL1   C2415720   1.857   2.054   4.828 -0.1260 -0.5889  0.1654
  128CHL1  H24A15721   1.839   2.131   4.750  2.0873  0.7932  0.9366
  128CHL1  H24B15722   1.794   1.964   4.814  2.0307 -2.7939  3.1214
  128CHL1   C2515723   1.801   2.123   4.955  0.4141  0.2673 -0.0507
  128CHL1   H2515724   1.822   2.050   5.036  1.8903 -0.4800 -1.0486
  128CHL1   C2615725   1.864   2.257   4.982  0.3328  0.4689  0.1489
  128CHL1  H26A15726   1.973   2.261   4.999  0.2160 -0.6989  1.3876
  128CHL1  H26B15727   1.846   2.325   4.896 -2.0796 -0.0880  0.1463
  128CHL1  H26C15728   1.828   2.302   5.077  2.9090  0.5859  1.1479
  128CHL1   C2715729   1.645   2.139   4.934  0.0481 -0.7768  0.3588
  128CHL1  H27A15730   1.629   2.215   4.855  1.5218 -1.5621 -0.7467
  128CHL1  H27B15731   1.605   2.040   4.903  0.7273 -0.5969 -1.2018
  128CHL1  H27C15732   1.582   2.169   5.021 -3.3074 -0.4891 -1.9612
  129CHL1    C315733   5.439   6.821   3.808  0.0949  0.0769 -0.6580
  129CHL1    H315734   5.550   6.828   3.809  0.0496  1.0435  0.2518
  129CHL1    O315735   5.396   6.915   3.713  0.3788 -0.3149 -0.0339
  129CHL1   H3'15736   5.301   6.907   3.714  0.4831 -2.1131 -1.1194
  129CHL1    C415737   5.383   6.682   3.782 -0.5689  0.0423 -0.1477
  129CHL1   H4A15738   5.273   6.683   3.765 -0.6310 -1.1781  0.0969
  129CHL1   H4B15739   5.428   6.644   3.689 -0.0410 -1.7258  0.7918
  129CHL1    C515740   5.422   6.591   3.893  0.8905 -0.0645  0.1967
  129CHL1    C615741   5.481   6.478   3.876 -0.5102  1.1266  0.1031
  129CHL1    H615742   5.513   6.447   3.775  0.7054  0.7870  0.5716
  129CHL1    C715743   5.530   6.385   3.985  0.3504  0.2408 -0.1660
  129CHL1   H7A15744   5.506   6.277   3.968  0.3858  0.3312 -0.7896
  129CHL1   H7B15745   5.640   6.377   3.997  0.3936 -0.2134 -0.8321
  129CHL1    C815746   5.474   6.414   4.125 -0.0484 -0.5366 -0.2018
  129CHL1    H815747   5.370   6.375   4.117 -0.2122 -0.6616  1.9885
  129CHL1   C1415748   5.551   6.333   4.230 -0.3535 -0.5600 -0.4670
  129CHL1   H1415749   5.657   6.366   4.225 -0.7207  0.5908 -1.0523
  129CHL1   C1515750   5.568   6.179   4.205  0.2617 -0.4421 -0.1678
  129CHL1  H15A15751   5.466   6.138   4.187  0.6280 -1.0303 -0.9669
  129CHL1  H15B15752   5.642   6.151   4.127  1.5811  0.5211  0.6951
  129CHL1   C1615753   5.611   6.141   4.346  1.0178  0.5926 -0.4856
  129CHL1  H16A15754   5.543   6.062   4.386  3.1965 -1.2813 -0.3088
  129CHL1  H16B15755   5.718   6.116   4.362  0.8112  0.1104  0.2210
  129CHL1   C1715756   5.580   6.260   4.442  0.5810  0.7259  0.6733
  129CHL1   H1715757   5.676   6.316   4.448  1.1426 -0.3191  1.8793
  129CHL1   C1315758   5.492   6.359   4.361  0.5969  0.0710 -1.0827
  129CHL1   C1815759   5.343   6.315   4.359 -0.4218 -0.4920 -0.7523
  129CHL1  H18A15760   5.282   6.386   4.299 -0.9864 -1.9968 -2.0192
  129CHL1  H18B15761   5.328   6.211   4.323  2.4370 -0.9410 -0.8959
  129CHL1  H18C15762   5.293   6.329   4.458 -0.4274 -0.5253 -0.7506
  129CHL1   C1215763   5.513   6.504   4.397 -0.5029  0.1361 -0.5248
  129CHL1  H12A15764   5.485   6.522   4.503 -0.3472  0.7994 -0.5949
  129CHL1  H12B15765   5.624   6.507   4.394 -0.4411 -1.0068 -0.1451
  129CHL1   C1115766   5.444   6.607   4.300  0.0938  0.1047  0.1021
  129CHL1  H11A15767   5.334   6.598   4.313 -0.0086 -1.3077 -1.3545
  129CHL1  H11B15768   5.482   6.706   4.332  3.5675 -0.8528 -0.6469
  129CHL1    C915769   5.477   6.567   4.155 -0.1411  0.8703 -0.8186
  129CHL1    H915770   5.582   6.596   4.135  0.4812 -1.3987 -1.0937
  129CHL1   C1015771   5.402   6.646   4.041 -0.1782  0.3208  0.4137
  129CHL1   C1915772   5.252   6.637   4.073 -0.3658 -0.8671 -0.3937
  129CHL1  H19A15773   5.226   6.529   4.081  0.5499 -1.1092 -0.5209
  129CHL1  H19B15774   5.226   6.681   4.171  0.1436 -1.8219  0.1927
  129CHL1  H19C15775   5.200   6.693   3.993  0.2042  2.1992  1.2292
  129CHL1    C115776   5.446   6.788   4.054  0.5510 -0.0652  0.1741
  129CHL1   H1A15777   5.395   6.825   4.146 -1.5915  0.7876 -1.2955
  129CHL1   H1B15778   5.557   6.796   4.060  0.6017  0.5582 -1.2835
  129CHL1    C215779   5.401   6.878   3.941 -0.6652 -0.1215 -0.3765
  129CHL1   H2A15780   5.440   6.981   3.953 -1.4841  0.1048  0.4979
  129CHL1   H2B15781   5.291   6.895   3.950 -0.7962 -0.0979 -1.7419
  129CHL1   C2015782   5.538   6.228   4.589  0.1731  0.2969  0.6143
  129CHL1   H2015783   5.509   6.317   4.649  2.5621 -0.9025  3.8304
  129CHL1   C2115784   5.675   6.187   4.657  1.2401 -0.2086  0.4876
  129CHL1  H21A15785   5.750   6.265   4.631 -2.1932  3.0812 -0.5005
  129CHL1  H21B15786   5.711   6.088   4.624 -1.3288 -0.9093 -0.5027
  129CHL1  H21C15787   5.660   6.204   4.766  0.2967  2.3858  0.0361
  129CHL1   C2215788   5.439   6.117   4.612  0.2326  0.4962  0.7441
  129CHL1  H22A15789   5.359   6.115   4.534 -0.1118 -1.5278  1.1056
  129CHL1  H22B15790   5.497   6.024   4.601 -0.8364 -0.3853  2.1922
  129CHL1   C2315791   5.375   6.110   4.751  0.0967  0.1593 -0.0197
  129CHL1  H23A15792   5.335   6.007   4.762 -0.6113  0.4436  0.0624
  129CHL1  H23B15793   5.456   6.118   4.826 -0.1613 -1.6157  0.4818
  129CHL1   C2415794   5.265   6.219   4.771  0.3799  0.5338  0.6974
  129CHL1  H24A15795   5.308   6.318   4.743  0.1492 -0.1571 -2.3907
  129CHL1  H24B15796   5.182   6.201   4.699  1.1429  0.6997 -0.2480
  129CHL1   C2515797   5.208   6.224   4.915  0.3756  0.1029 -0.3749
  129CHL1   H2515798   5.291   6.243   4.986 -0.5826 -0.2029  0.8667
  129CHL1   C2615799   5.100   6.330   4.921  0.9584 -0.1905 -0.0425
  129CHL1  H26A15800   5.087   6.364   5.026 -1.3675  1.9812 -0.9210
  129CHL1  H26B15801   5.134   6.417   4.860 -0.9178  0.4953 -0.1529
  129CHL1  H26C15802   5.006   6.294   4.874  0.9234  0.5195 -0.5488
  129CHL1   C2715803   5.149   6.091   4.958 -0.3388  0.1028 -0.3018
  129CHL1  H27A15804   5.231   6.017   4.973  0.4304  1.1094  0.6630
  129CHL1  H27B15805   5.097   6.086   5.056  0.2160  0.5395  0.0226
  129CHL1  H27C15806   5.065   6.059   4.894 -1.5130  1.9632  0.2349
  130CHL1    C315807   2.889   7.190   3.572 -0.2933  0.0017 -0.5301
  130CHL1    H315808   2.923   7.288   3.613  0.5154  0.5924 -2.4705
  130CHL1    O315809   2.879   7.190   3.431  0.2005 -0.2698  0.1619
  130CHL1   H3'15810   2.839   7.106   3.408 -1.3720  0.3150  0.6430
  130CHL1    C415811   2.976   7.072   3.617 -0.1257 -0.3568  0.0375
  130CHL1   H4A15812   2.934   6.973   3.591  1.7366 -1.3149  0.4812
  130CHL1   H4B15813   3.070   7.076   3.557 -1.6186  0.6808 -2.3867
  130CHL1    C515814   2.985   7.082   3.774 -0.2630 -0.4386  0.0369
  130CHL1    C615815   3.105   7.097   3.833 -0.2384 -0.2641  0.3878
  130CHL1    H615816   3.196   7.101   3.772  0.1778  1.1913  1.0572
  130CHL1    C715817   3.118   7.096   3.985  0.5012  0.1477 -0.0007
  130CHL1   H7A15818   3.184   7.012   4.016 -1.1877 -1.6145 -0.9459
  130CHL1   H7B15819   3.157   7.198   4.006 -0.2834  0.0995  1.9720
  130CHL1    C815820   2.990   7.054   4.060  0.0584 -0.1917  0.6970
  130CHL1    H815821   2.980   6.944   4.049  1.4804 -0.3956  1.1809
  130CHL1   C1415822   3.001   7.098   4.204  0.0288 -0.2542  0.2410
  130CHL1   H1415823   3.011   7.209   4.198  1.5606 -0.3965 -0.1943
  130CHL1   C1515824   3.127   7.060   4.287 -0.3461  0.1676  0.1894
  130CHL1  H15A15825   3.139   6.950   4.276 -1.8089 -0.0038  0.0590
  130CHL1  H15B15826   3.223   7.104   4.252  0.0912 -0.0981  1.0532
  130CHL1   C1615827   3.099   7.101   4.426 -0.2554  0.2553  0.0682
  130CHL1  H16A15828   3.125   7.025   4.503 -0.1467 -0.8502 -1.0513
  130CHL1  H16B15829   3.143   7.200   4.455  0.3197 -0.1446  0.5968
  130CHL1   C1715830   2.937   7.124   4.433  0.6132  0.4934  0.1073
  130CHL1   H1715831   2.937   7.234   4.419  2.4494  0.3347 -1.6465
  130CHL1   C1315832   2.883   7.066   4.297  0.4967  0.6526 -0.8028
  130CHL1   C1815833   2.863   6.914   4.312  0.8757 -0.5387  0.1213
  130CHL1  H18A15834   2.773   6.900   4.376  1.2092  0.5625  0.8565
  130CHL1  H18B15835   2.844   6.880   4.208  0.3092  2.4582 -0.8456
  130CHL1  H18C15836   2.949   6.859   4.355 -0.4409 -2.1227  0.8214
  130CHL1   C1215837   2.755   7.127   4.237  0.2353 -0.0246 -0.5652
  130CHL1  H12A15838   2.663   7.091   4.286 -1.6382  1.9952 -2.3840
  130CHL1  H12B15839   2.771   7.236   4.252  3.0926 -0.3448 -0.6161
  130CHL1   C1115840   2.744   7.097   4.086  0.4992 -0.2747 -0.4510
  130CHL1  H11A15841   2.718   6.989   4.083 -0.9923  0.0749 -0.8596
  130CHL1  H11B15842   2.659   7.153   4.042  0.8228 -1.0087 -2.1106
  130CHL1    C915843   2.866   7.121   3.999  0.8116  0.4926 -0.2446
  130CHL1    H915844   2.883   7.231   4.009  1.3370  0.3647  0.2797
  130CHL1   C1015845   2.844   7.081   3.846  1.1596  0.8059  0.6343
  130CHL1   C1915846   2.790   6.937   3.835  0.0407  0.3314 -0.1782
  130CHL1  H19A15847   2.771   6.921   3.727  0.5323  2.1551 -0.5733
  130CHL1  H19B15848   2.870   6.868   3.867 -2.5540 -2.0947  1.5375
  130CHL1  H19C15849   2.698   6.921   3.896 -0.6111 -0.7050 -1.3945
  130CHL1    C115850   2.744   7.179   3.776  0.0079  0.7324  0.1219
  130CHL1   H1A15851   2.639   7.154   3.800 -0.3922 -0.3519 -2.4093
  130CHL1   H1B15852   2.779   7.282   3.797 -0.1623  0.7116  0.5184
  130CHL1    C215853   2.745   7.169   3.626  0.4356 -0.3991 -0.1732
  130CHL1   H2A15854   2.679   7.254   3.599 -1.0533 -1.1686  0.9048
  130CHL1   H2B15855   2.714   7.070   3.589 -2.1074 -0.2383  1.3194
  130CHL1   C2015856   2.882   7.081   4.563  0.0433  0.6159 -0.7036
  130CHL1   H2015857   2.899   6.972   4.575 -1.1619  0.5189  0.3534
  130CHL1   C2115858   2.726   7.107   4.566 -0.0047 -0.2956 -0.1316
  130CHL1  H21A15859   2.682   7.069   4.661  0.7603  2.9096  1.6438
  130CHL1  H21B15860   2.669   7.059   4.483 -2.8034 -1.3957  2.2541
  130CHL1  H21C15861   2.716   7.217   4.553  3.1489  0.0250 -0.6445
  130CHL1   C2215862   2.959   7.143   4.684 -0.4391  0.0085  0.3875
  130CHL1  H22A15863   3.067   7.124   4.672 -0.3973  1.4584 -2.2277
  130CHL1  H22B15864   2.947   7.254   4.687 -1.1245 -0.0741  2.3847
  130CHL1   C2315865   2.906   7.087   4.817 -0.4811 -0.0786  0.5930
  130CHL1  H23A15866   2.987   7.116   4.886  1.1456  0.4918 -1.4611
  130CHL1  H23B15867   2.808   7.130   4.849 -0.9753 -0.9503  0.2907
  130CHL1   C2415868   2.894   6.932   4.831 -0.3059 -0.2886 -0.2411
  130CHL1  H24A15869   2.802   6.895   4.778 -1.4379  0.6572  1.0124
  130CHL1  H24B15870   2.983   6.890   4.779  0.6228  3.3164 -1.8749
  130CHL1   C2515871   2.899   6.882   4.980 -0.4120  0.1692  1.0848
  130CHL1   H2515872   3.000   6.905   5.021 -0.3152  1.1975  0.3094
  130CHL1   C2615873   2.804   6.951   5.076 -0.2952  0.5235  0.1457
  130CHL1  H26A15874   2.841   7.052   5.105 -1.7624  0.5655  2.0465
  130CHL1  H26B15875   2.706   6.977   5.030 -1.0203 -1.9430  0.1515
  130CHL1  H26C15876   2.783   6.890   5.166  0.9478  0.8851  0.6941
  130CHL1   C2715877   2.890   6.732   4.981 -0.1520  0.1526 -0.7110
  130CHL1  H27A15878   2.895   6.701   5.088  1.8860  3.6050  0.3620
  130CHL1  H27B15879   2.790   6.696   4.950 -0.0068  0.7374 -1.9196
  130CHL1  H27C15880   2.958   6.665   4.924  0.4836 -1.6596  2.0012
  131CHL1    C315881   1.412   4.824   4.064 -0.0669 -0.0232  0.4390
  131CHL1    H315882   1.516   4.850   4.094  0.6055 -1.1756 -0.7752
  131CHL1    O315883   1.407   4.853   3.930 -0.6132 -0.3322 -0.0069
  131CHL1   H3'15884   1.317   4.886   3.919 -0.3437  0.4408  0.0894
  131CHL1    C415885   1.401   4.664   4.074  0.2395  0.2160 -0.3177
  131CHL1   H4A15886   1.306   4.638   4.023 -0.0616 -0.3944  0.5439
  131CHL1   H4B15887   1.480   4.618   4.010  2.9886  3.4827  0.4399
  131CHL1    C515888   1.391   4.621   4.215 -0.7689  0.1520 -0.7922
  131CHL1    C615889   1.466   4.526   4.261  0.0058  0.9509 -0.3556
  131CHL1    H615890   1.536   4.477   4.190 -0.2042 -0.1463  0.1656
  131CHL1    C715891   1.478   4.477   4.399 -0.0564  0.3642 -0.7244
  131CHL1   H7A15892   1.467   4.367   4.412 -0.7432  0.6246  1.2937
  131CHL1   H7B15893   1.579   4.498   4.440 -1.1814 -0.5859  2.9176
  131CHL1    C815894   1.369   4.540   4.493 -0.2583  0.6442 -1.1779
  131CHL1    H815895   1.278   4.477   4.483  0.0999 -0.6785  2.3582
  131CHL1   C1415896   1.417   4.525   4.643 -0.6484 -0.3464 -0.5291
  131CHL1   H1415897   1.499   4.598   4.661 -0.0508 -1.3192  0.8736
  131CHL1   C1515898   1.467   4.392   4.696 -0.0544  0.5781  0.5923
  131CHL1  H15A15899   1.414   4.311   4.641 -0.2380  1.1735 -0.1342
  131CHL1  H15B15900   1.575   4.377   4.676 -0.1435 -0.5861  0.9202
  131CHL1   C1615901   1.450   4.404   4.849 -0.2705  0.0549  0.0513
  131CHL1  H16A15902   1.367   4.346   4.894 -2.7254  3.1346 -0.1259
  131CHL1  H16B15903   1.548   4.401   4.901 -0.4264  0.6480  0.3933
  131CHL1   C1715904   1.384   4.541   4.873  0.0294  0.1302 -0.5556
  131CHL1   H1715905   1.477   4.601   4.874  0.8067 -1.0366 -1.0963
  131CHL1   C1315906   1.313   4.569   4.740 -0.2415  0.7400  0.8142
  131CHL1   C1815907   1.186   4.480   4.730 -0.1565  0.2935  0.6031
  131CHL1  H18A15908   1.137   4.495   4.632 -2.8243 -1.3164  1.5958
  131CHL1  H18B15909   1.205   4.371   4.744  0.4291  0.1576 -1.0101
  131CHL1  H18C15910   1.110   4.507   4.806  0.4133 -3.1727  2.6189
  131CHL1   C1215911   1.281   4.721   4.717  0.1090 -0.0756 -0.3985
  131CHL1  H12A15912   1.195   4.759   4.776  1.7244  3.8889 -0.2950
  131CHL1  H12B15913   1.371   4.775   4.755  0.0600  0.4242 -0.9869
  131CHL1   C1115914   1.250   4.752   4.568 -0.3523 -0.3710  0.5992
  131CHL1  H11A15915   1.159   4.691   4.548 -1.6633  1.5906  0.2501
  131CHL1  H11B15916   1.235   4.861   4.552  3.0277 -0.2147 -2.7902
  131CHL1    C915917   1.346   4.687   4.463  0.4870  0.0849  0.5404
  131CHL1    H915918   1.446   4.731   4.479  0.4728 -0.3465  1.9079
  131CHL1   C1015919   1.310   4.704   4.313  0.0449  0.1530  0.6348
  131CHL1   C1915920   1.157   4.663   4.286 -0.3291  0.2217  0.0971
  131CHL1  H19A15921   1.105   4.715   4.369 -0.9462 -0.4796  0.1614
  131CHL1  H19B15922   1.115   4.692   4.187  0.8479 -1.9793 -1.1278
  131CHL1  H19C15923   1.137   4.555   4.304  3.0820 -0.3379  1.2283
  131CHL1    C115924   1.320   4.855   4.287 -0.3658 -1.4762  0.3113
  131CHL1   H1A15925   1.247   4.911   4.348 -0.2560 -2.3841  1.3039
  131CHL1   H1B15926   1.411   4.898   4.334 -1.8648  0.3541  1.6623
  131CHL1    C215927   1.302   4.902   4.137 -0.1417  1.0605  0.6436
  131CHL1   H2A15928   1.327   5.010   4.130  0.1151  0.9264 -0.8324
  131CHL1   H2B15929   1.197   4.886   4.104 -0.4222 -1.4082  2.4361
  131CHL1   C2015930   1.314   4.553   5.010 -0.6520  0.6006 -0.5935
  131CHL1   H2015931   1.225   4.487   5.005  0.5507 -1.0578 -1.1184
  131CHL1   C2115932   1.258   4.696   5.043 -0.1064  0.4512  1.0273
  131CHL1  H21A15933   1.337   4.774   5.036  1.1433 -0.6973  1.8644
  131CHL1  H21B15934   1.221   4.704   5.148  2.8276  0.6593  2.1435
  131CHL1  H21C15935   1.177   4.723   4.972 -0.2635 -0.2010  0.9548
  131CHL1   C2215936   1.410   4.495   5.128  0.2540 -0.4811  0.5306
  131CHL1  H22A15937   1.458   4.399   5.096  0.3593 -0.2478 -0.0258
  131CHL1  H22B15938   1.489   4.571   5.143 -0.7642  1.2034 -2.0298
  131CHL1   C2315939   1.343   4.468   5.265  0.5525 -0.1323  0.1219
  131CHL1  H23A15940   1.421   4.444   5.341  1.0352 -1.8858 -0.8674
  131CHL1  H23B15941   1.294   4.564   5.290  0.0241 -0.3430 -0.0976
  131CHL1   C2415942   1.249   4.347   5.259  0.7557 -0.2905  0.4662
  131CHL1  H24A15943   1.157   4.382   5.206 -0.2326 -1.1314  1.5751
  131CHL1  H24B15944   1.289   4.264   5.197 -0.2849 -0.1117 -0.4944
  131CHL1   C2515945   1.208   4.302   5.398 -0.3899 -0.2809 -0.1654
  131CHL1   H2515946   1.193   4.390   5.464 -0.4874 -0.6101  0.2563
  131CHL1   C2615947   1.077   4.234   5.384  0.5273 -0.0020  0.0485
  131CHL1  H26A15948   0.994   4.295   5.343 -1.1961 -0.5431  2.4631
  131CHL1  H26B15949   1.088   4.133   5.339  0.5732  0.0664 -0.0931
  131CHL1  H26C15950   1.031   4.218   5.485 -0.9592  2.5753 -0.1323
  131CHL1   C2715951   1.309   4.206   5.468  0.7109 -0.0955  0.2031
  131CHL1  H27A15952   1.351   4.124   5.406  0.5221 -0.9715  1.2048
  131CHL1  H27B15953   1.388   4.266   5.517 -0.8446  1.5346  0.8227
  131CHL1  H27C15954   1.256   4.164   5.556  0.7472 -2.4441 -0.8145
  132CHL1    C315955   3.543   1.046   3.319  0.2717  0.4997  0.0887
  132CHL1    H315956   3.646   1.007   3.334  0.6057  0.9128 -1.0467
  132CHL1    O315957   3.519   1.075   3.188 -0.5205  0.5031 -0.0737
  132CHL1   H3'15958   3.557   1.161   3.172  0.6583 -0.2203 -1.3944
  132CHL1    C415959   3.436   0.933   3.359  0.1085 -0.3373 -0.2948
  132CHL1   H4A15960   3.335   0.974   3.335  0.5118  1.6149  1.1054
  132CHL1   H4B15961   3.462   0.844   3.299  1.4390  0.4088 -0.8778
  132CHL1    C515962   3.424   0.896   3.504  0.4719  0.1404 -1.3459
  132CHL1    C615963   3.428   0.769   3.542  0.0509  0.1247  0.3810
  132CHL1    H615964   3.441   0.701   3.457 -1.4716  0.5820 -0.2497
  132CHL1    C715965   3.419   0.725   3.684  0.0675 -0.8002  0.1857
  132CHL1   H7A15966   3.338   0.650   3.698 -2.1812  1.4541  0.1333
  132CHL1   H7B15967   3.519   0.685   3.711  0.9516  2.0138  1.5127
  132CHL1    C815968   3.388   0.838   3.784 -0.8288  0.0663 -0.8511
  132CHL1    H815969   3.280   0.857   3.801 -1.2078 -1.5458 -1.2006
  132CHL1   C1415970   3.440   0.790   3.922 -0.2441  0.5954  0.6295
  132CHL1   H1415971   3.551   0.787   3.908 -0.3779  2.8129 -1.4471
  132CHL1   C1515972   3.405   0.653   3.976  0.7796  0.8741  0.3530
  132CHL1  H15A15973   3.296   0.636   3.961  0.2260  2.9646  1.5798
  132CHL1  H15B15974   3.469   0.580   3.924  2.7374  0.4279  3.1882
  132CHL1   C1615975   3.428   0.665   4.128 -0.1793  0.5688  0.3789
  132CHL1  H16A15976   3.330   0.652   4.179 -1.5455  0.5245 -2.0874
  132CHL1  H16B15977   3.509   0.602   4.171  0.2877  0.6151 -0.4073
  132CHL1   C1715978   3.471   0.811   4.150 -0.2670  0.3806  0.2595
  132CHL1   H1715979   3.582   0.808   4.144 -0.2322 -0.8320  1.0962
  132CHL1   C1315980   3.416   0.893   4.031  1.0245 -0.4282 -0.3354
  132CHL1   C1815981   3.267   0.920   4.068  0.0438 -0.2086 -0.4068
  132CHL1  H18A15982   3.259   1.000   4.145  1.9349  1.3495 -1.7125
  132CHL1  H18B15983   3.219   0.963   3.977  0.1388 -1.8149 -1.2443
  132CHL1  H18C15984   3.207   0.834   4.104 -1.2380  1.2555  1.1585
  132CHL1   C1215985   3.490   1.021   3.988  0.0281  0.2946 -0.7959
  132CHL1  H12A15986   3.474   1.107   4.056  2.4978  0.2618 -0.0667
  132CHL1  H12B15987   3.599   1.000   3.975  0.3101  1.9646 -1.3821
  132CHL1   C1115988   3.443   1.070   3.852 -0.0861 -0.0556 -0.5973
  132CHL1  H11A15989   3.340   1.109   3.846 -0.0397 -0.1098 -2.0926
  132CHL1  H11B15990   3.506   1.158   3.823 -0.1785 -0.1875 -1.2065
  132CHL1    C915991   3.456   0.969   3.742 -0.3647 -0.3290  0.6794
  132CHL1    H915992   3.562   0.938   3.736 -0.8061 -1.6893 -0.5541
  132CHL1   C1015993   3.417   1.020   3.599  0.4057 -0.1534  0.0572
  132CHL1   C1915994   3.271   1.076   3.600  0.5076  0.0032 -0.3324
  132CHL1  H19A15995   3.208   1.002   3.655 -1.2104  1.0943 -0.7684
  132CHL1  H19B15996   3.263   1.178   3.642  2.5870  0.2133 -0.3196
  132CHL1  H19C15997   3.221   1.088   3.502 -1.1838  1.3823  0.6358
  132CHL1    C115998   3.518   1.134   3.557 -0.1584 -0.1314 -0.3878
  132CHL1   H1A15999   3.485   1.231   3.600 -1.0431  0.6206 -2.5819
  132CHL1   H1B16000   3.622   1.121   3.592 -0.1943 -0.2606 -0.3285
  132CHL1    C216001   3.518   1.168   3.401  0.1683 -0.2483 -0.5287
  132CHL1   H2A16002   3.590   1.251   3.379  0.1541  0.0994  0.6735
  132CHL1   H2B16003   3.417   1.208   3.379  0.6598  1.6397  0.4396
  132CHL1   C2016004   3.438   0.862   4.291 -0.3433  0.2685 -0.4708
  132CHL1   H2016005   3.327   0.863   4.293 -0.4011 -0.5833 -1.7316
  132CHL1   C2116006   3.488   1.001   4.331 -0.4204 -0.1899 -0.2431
  132CHL1  H21A16007   3.473   1.072   4.246 -1.2739  1.5396  1.2925
  132CHL1  H21B16008   3.591   1.004   4.370  0.5108 -0.6449 -2.4801
  132CHL1  H21C16009   3.413   1.032   4.406  0.3776  1.2752 -0.0244
  132CHL1   C2216010   3.476   0.760   4.402 -0.3682  0.7101  0.1600
  132CHL1  H22A16011   3.413   0.672   4.377  0.2593  0.1701  0.4718
  132CHL1  H22B16012   3.580   0.723   4.408 -0.5084  0.2054 -0.4507
  132CHL1   C2316013   3.428   0.798   4.554 -0.0743  0.0548  0.3972
  132CHL1  H23A16014   3.470   0.722   4.623  4.6438  1.0249 -1.0000
  132CHL1  H23B16015   3.488   0.887   4.582  0.9660  0.6127 -3.1485
  132CHL1   C2416016   3.277   0.815   4.581 -0.2963 -0.8950  0.2072
  132CHL1  H24A16017   3.246   0.909   4.531  1.2551  0.8041  2.2619
  132CHL1  H24B16018   3.224   0.737   4.522 -0.8379  0.4750 -1.1754
  132CHL1   C2516019   3.237   0.811   4.730  1.1646  0.6019 -1.2564
  132CHL1   H2516020   3.267   0.713   4.772 -0.7844  0.6123  0.3147
  132CHL1   C2616021   3.301   0.910   4.820 -0.0123  0.3835 -0.2757
  132CHL1  H26A16022   3.410   0.891   4.833 -0.1836  0.9645  2.7632
  132CHL1  H26B16023   3.287   1.011   4.776 -1.3552  0.4922  0.3708
  132CHL1  H26C16024   3.255   0.905   4.921  0.6552 -0.2303  0.0132
  132CHL1   C2716025   3.089   0.826   4.737  0.2560  0.1522  0.2013
  132CHL1  H27A16026   3.049   0.833   4.840  1.0668 -3.1512  0.8642
  132CHL1  H27B16027   3.053   0.921   4.693  1.1658 -0.7214 -2.6561
  132CHL1  H27C16028   3.035   0.750   4.676 -0.3730 -1.3419  2.5011
  133CHL1    C316029   1.586   2.261   3.473 -0.3324  0.0591 -0.0484
  133CHL1    H316030   1.685   2.211   3.467 -0.7956 -0.8483 -0.3046
  133CHL1    O316031   1.552   2.290   3.336 -0.3781  0.2855 -0.1590
  133CHL1   H3'16032   1.479   2.350   3.347  0.5054  0.9648  3.2175
  133CHL1    C416033   1.490   2.165   3.535 -0.2990  0.4214 -0.2777
  133CHL1   H4A16034   1.388   2.200   3.507 -0.2071  0.7443 -0.2027
  133CHL1   H4B16035   1.495   2.066   3.483  1.4114 -0.2876  1.1435
  133CHL1    C516036   1.509   2.146   3.684 -0.1718 -0.4659  0.7083
  133CHL1    C616037   1.520   2.029   3.744 -0.8091 -0.0696 -0.1047
  133CHL1    H616038   1.505   1.939   3.683 -1.6998 -1.3734  1.9445
  133CHL1    C716039   1.538   2.005   3.888 -0.1149 -0.4732 -0.2046
  133CHL1   H7A16040   1.482   1.913   3.915 -0.5445 -0.0245  0.4385
  133CHL1   H7B16041   1.646   1.997   3.911 -0.3549  0.9125  1.6008
  133CHL1    C816042   1.488   2.130   3.976  0.0392 -0.8265  0.5556
  133CHL1    H816043   1.379   2.149   3.970  0.1378 -0.5251 -0.5951
  133CHL1   C1416044   1.537   2.111   4.117  0.3402  0.5924  0.7341
  133CHL1   H1416045   1.647   2.105   4.109  0.1861  0.0239 -2.3749
  133CHL1   C1516046   1.487   1.982   4.184  0.1502 -0.0240  0.1058
  133CHL1  H15A16047   1.381   1.964   4.160  0.0466 -0.3002  0.7602
  133CHL1  H15B16048   1.550   1.903   4.138  1.9499  0.8962  0.8847
  133CHL1   C1616049   1.502   2.015   4.331 -0.4195  0.6019  0.1215
  133CHL1  H16A16050   1.404   1.997   4.379 -1.5831  0.7007 -2.1000
  133CHL1  H16B16051   1.579   1.952   4.382  0.2056  0.9906 -0.3215
  133CHL1   C1716052   1.538   2.165   4.344 -0.2164 -0.0021  0.6994
  133CHL1   H1716053   1.649   2.170   4.339  0.0285 -3.5020 -0.6880
  133CHL1   C1316054   1.498   2.229   4.215 -0.9154 -0.4593  0.1117
  133CHL1   C1816055   1.348   2.252   4.221 -0.0018  0.2721 -0.3743
  133CHL1  H18A16056   1.314   2.301   4.127  0.2810 -0.7018 -1.0042
  133CHL1  H18B16057   1.298   2.153   4.218  1.1625 -0.3386 -0.5270
  133CHL1  H18C16058   1.312   2.312   4.307 -0.3194 -0.2419 -0.1449
  133CHL1   C1216059   1.577   2.353   4.163 -0.1766  0.1431  0.1153
  133CHL1  H12A16060   1.552   2.436   4.232 -0.5741 -0.3666  0.6044
  133CHL1  H12B16061   1.684   2.325   4.169 -0.0299  0.5653 -0.4612
  133CHL1   C1116062   1.552   2.384   4.015 -0.8247  0.1653  0.2036
  133CHL1  H11A16063   1.453   2.435   4.012  0.3327  2.6804  1.8478
  133CHL1  H11B16064   1.616   2.465   3.973  0.9661 -0.9695  0.6272
  133CHL1    C916065   1.559   2.253   3.920  0.5050 -0.7083  0.3660
  133CHL1    H916066   1.668   2.232   3.924  0.8561  0.8875  0.1369
  133CHL1   C1016067   1.526   2.280   3.773  0.1673 -0.2662 -0.0526
  133CHL1   C1916068   1.390   2.359   3.760  0.1187  0.4274 -0.6482
  133CHL1  H19A16069   1.345   2.369   3.659  1.5552  0.7721 -1.2901
  133CHL1  H19B16070   1.308   2.327   3.827  0.7375  2.1497  1.0265
  133CHL1  H19C16071   1.410   2.467   3.774 -0.6975  0.4056  0.8781
  133CHL1    C116072   1.634   2.366   3.703  0.8788 -0.8512  1.0042
  133CHL1   H1A16073   1.653   2.462   3.756  2.0048  0.0011 -0.8213
  133CHL1   H1B16074   1.732   2.317   3.718  2.7079  2.5412  1.1859
  133CHL1    C216075   1.605   2.388   3.554 -0.2326 -0.2436 -0.5389
  133CHL1   H2A16076   1.685   2.446   3.505 -1.0244  0.3788 -1.1092
  133CHL1   H2B16077   1.514   2.450   3.537 -0.3404 -0.1590  0.2889
  133CHL1   C2016078   1.496   2.230   4.474 -0.0746  0.3247  0.2661
  133CHL1   H2016079   1.464   2.333   4.446 -1.1983 -0.1648 -0.3035
  133CHL1   C2116080   1.614   2.222   4.570 -0.1384  0.1183  0.1664
  133CHL1  H21A16081   1.711   2.243   4.520 -1.4129 -0.9074 -3.0566
  133CHL1  H21B16082   1.612   2.124   4.623  1.3598 -0.1270 -0.1996
  133CHL1  H21C16083   1.600   2.304   4.643 -1.7862 -1.5692  1.8568
  133CHL1   C2216084   1.370   2.176   4.545  0.0623  0.1528 -0.0921
  133CHL1  H22A16085   1.287   2.156   4.474 -0.7834  0.3055  0.8332
  133CHL1  H22B16086   1.387   2.078   4.594 -2.9914 -0.0356  0.7930
  133CHL1   C2316087   1.313   2.274   4.649 -0.6928  0.4596  0.1002
  133CHL1  H23A16088   1.394   2.313   4.715 -1.7957  1.1439  1.0992
  133CHL1  H23B16089   1.262   2.365   4.611  1.6009  1.9119  0.3258
  133CHL1   C2416090   1.212   2.193   4.729 -0.2927 -0.7318 -0.4759
  133CHL1  H24A16091   1.135   2.149   4.662 -0.8891 -0.0355 -0.2515
  133CHL1  H24B16092   1.276   2.111   4.768  0.1290 -0.5420 -0.7635
  133CHL1   C2516093   1.135   2.257   4.846 -1.2884  0.1661 -1.1263
  133CHL1   H2516094   1.088   2.351   4.809 -0.2204  1.4021  0.5422
  133CHL1   C2616095   1.011   2.163   4.877  0.4679  0.2049 -0.3170
  133CHL1  H26A16096   0.953   2.193   4.968 -1.7727 -0.5963 -1.4000
  133CHL1  H26B16097   0.936   2.173   4.795 -0.4546  1.6433  0.6368
  133CHL1  H26C16098   1.047   2.059   4.888  0.0369  0.2662  2.3553
  133CHL1   C2716099   1.228   2.289   4.959 -0.3968  0.2608 -0.0905
  133CHL1  H27A16100   1.161   2.319   5.042 -1.1768 -0.4032 -0.4675
  133CHL1  H27B16101   1.281   2.193   4.979 -1.3366  0.3093  3.1713
  133CHL1  H27C16102   1.298   2.368   4.923 -0.8289  0.3110 -0.8446
  134CHL1    C316103   0.375   1.625   3.241  0.0286  0.2337 -0.8162
  134CHL1    H316104   0.292   1.602   3.311 -0.0608  1.6552 -0.4233
  134CHL1    O316105   0.332   1.569   3.114  0.1855 -0.5954 -0.0914
  134CHL1   H3'16106   0.243   1.538   3.129 -0.1139  0.0842 -0.3906
  134CHL1    C416107   0.386   1.780   3.234 -0.3135  0.3478  0.4162
  134CHL1   H4A16108   0.444   1.796   3.140 -0.4159 -2.8818 -0.3165
  134CHL1   H4B16109   0.282   1.815   3.223  0.0116  1.1230 -0.3060
  134CHL1    C516110   0.462   1.859   3.350  0.4404  0.4920  0.4713
  134CHL1    C616111   0.398   1.955   3.409 -0.4512 -0.4331  0.0411
  134CHL1    H616112   0.301   1.988   3.368  0.2746  1.5285 -0.1738
  134CHL1    C716113   0.444   2.033   3.534 -0.1192  0.7506  0.4262
  134CHL1   H7A16114   0.448   2.143   3.516  1.1461  0.5111 -1.0012
  134CHL1   H7B16115   0.372   2.013   3.616 -0.1277  1.9403  0.7225
  134CHL1    C816116   0.590   1.989   3.569  0.4973  0.5095  0.1822
  134CHL1    H816117   0.654   2.046   3.499  0.8122  1.1708  0.9941
  134CHL1   C1416118   0.620   2.026   3.710 -0.2268 -0.2236 -0.0825
  134CHL1   H1416119   0.548   1.964   3.768 -0.6453 -0.1297 -0.5026
  134CHL1   C1516120   0.589   2.167   3.755  0.6798 -0.3774 -0.6144
  134CHL1  H15A16121   0.609   2.237   3.671  0.2103  0.5161  0.0124
  134CHL1  H15B16122   0.484   2.180   3.788  1.5125  3.0112  1.1137
  134CHL1   C1616123   0.687   2.197   3.870  0.5431  0.3577 -0.0216
  134CHL1  H16A16124   0.766   2.269   3.841 -0.3132  1.4168  0.1846
  134CHL1  H16B16125   0.637   2.230   3.964 -0.1142 -1.0897  0.1711
  134CHL1   C1716126   0.763   2.057   3.886  0.0368  0.1793  0.5784
  134CHL1   H1716127   0.706   1.986   3.950  0.1193 -2.5748 -2.1889
  134CHL1   C1316128   0.763   1.987   3.750 -0.5400 -0.3958 -0.0991
  134CHL1   C1816129   0.867   2.054   3.657  0.3948 -0.0868 -0.2180
  134CHL1  H18A16130   0.970   2.037   3.694  0.4443 -1.3041 -0.8431
  134CHL1  H18B16131   0.869   2.025   3.549  2.4302  0.0148 -0.2552
  134CHL1  H18C16132   0.857   2.164   3.670  2.6221  0.0832  0.4603
  134CHL1   C1216133   0.774   1.829   3.751 -0.9816 -0.7374 -0.2785
  134CHL1  H12A16134   0.880   1.801   3.772 -1.6719 -2.6114  1.0445
  134CHL1  H12B16135   0.711   1.778   3.827  0.4617 -3.2085 -0.6008
  134CHL1   C1116136   0.745   1.775   3.611  0.3528  1.0733 -0.3014
  134CHL1  H11A16137   0.830   1.799   3.543  0.4539  0.6989 -0.3086
  134CHL1  H11B16138   0.743   1.666   3.634 -2.4931  1.6677  3.0430
  134CHL1    C916139   0.613   1.833   3.546  0.1297 -0.3928 -0.2125
  134CHL1    H916140   0.528   1.800   3.609  0.2688 -0.0433  0.1655
  134CHL1   C1016141   0.584   1.782   3.403 -0.4000 -0.5802  0.6413
  134CHL1   C1916142   0.699   1.807   3.310  0.0773 -0.3177 -0.0791
  134CHL1  H19A16143   0.783   1.740   3.335  0.5249 -0.0505 -0.8185
  134CHL1  H19B16144   0.676   1.788   3.203 -2.1861  1.7445 -0.0586
  134CHL1  H19C16145   0.731   1.914   3.313 -1.3974  0.1195  1.2329
  134CHL1    C116146   0.558   1.624   3.412  0.1174 -0.6108  0.0326
  134CHL1   H1A16147   0.662   1.584   3.415  1.7438  2.9887 -1.7973
  134CHL1   H1B16148   0.501   1.597   3.503  1.4037  1.4977  1.5839
  134CHL1    C216149   0.506   1.563   3.288  0.2022  0.1037 -0.2080
  134CHL1   H2A16150   0.481   1.458   3.317  0.5592  0.8574  3.2414
  134CHL1   H2B16151   0.583   1.569   3.208 -1.7124 -1.0463 -2.2467
  134CHL1   C2016152   0.902   2.078   3.950 -0.2894 -0.0798 -0.3976
  134CHL1   H2016153   0.966   2.142   3.887 -1.0720  0.8514 -0.2738
  134CHL1   C2116154   0.974   1.944   3.970 -0.4429 -0.0021 -0.2160
  134CHL1  H21A16155   0.912   1.866   4.019 -0.2741 -0.2848 -0.4483
  134CHL1  H21B16156   1.063   1.954   4.036  0.0836 -2.4966 -0.4127
  134CHL1  H21C16157   1.008   1.913   3.868  0.9150 -0.0067  0.2215
  134CHL1   C2216158   0.893   2.142   4.091  0.0213  0.0184  0.5550
  134CHL1  H22A16159   0.994   2.179   4.119 -0.7638  0.9912  2.2565
  134CHL1  H22B16160   0.833   2.235   4.083 -0.4371 -0.3761 -0.7646
  134CHL1   C2316161   0.835   2.058   4.207  0.0664  0.5038 -0.0810
  134CHL1  H23A16162   0.746   1.999   4.173  1.1922 -0.7468 -0.9721
  134CHL1  H23B16163   0.904   1.983   4.252 -1.5603 -0.8909  0.2330
  134CHL1   C2416164   0.786   2.141   4.332  0.6405 -0.1566  0.2728
  134CHL1  H24A16165   0.697   2.201   4.302  0.9971 -0.0211 -0.5456
  134CHL1  H24B16166   0.744   2.066   4.402 -0.2545 -0.6092 -0.7091
  134CHL1   C2516167   0.892   2.220   4.414 -0.8710  0.4645  0.1499
  134CHL1   H2516168   0.976   2.148   4.418 -1.4583 -0.4050 -1.8063
  134CHL1   C2616169   0.928   2.355   4.353  0.9586 -0.2955  0.3393
  134CHL1  H26A16170   0.838   2.419   4.345  1.3088  0.3124  1.1010
  134CHL1  H26B16171   0.998   2.399   4.428  0.4348 -1.4731  1.5566
  134CHL1  H26C16172   0.969   2.360   4.250 -0.1476 -0.3894 -0.1136
  134CHL1   C2716173   0.832   2.239   4.558  0.0483 -0.6165  0.7018
  134CHL1  H27A16174   0.818   2.145   4.617 -2.9121 -0.1120  0.9218
  134CHL1  H27B16175   0.908   2.298   4.614 -0.6771  0.3943  0.6345
  134CHL1  H27C16176   0.734   2.288   4.543  0.9366  1.0452  0.1369
  135CHL1    C316177   0.078   3.001   2.992 -0.2650  0.4938  0.0321
  135CHL1    H316178  -0.029   2.996   2.965 -0.3267  0.7047  0.2272
  135CHL1    O316179   0.137   3.029   2.868  0.3664 -0.3407  0.1558
  135CHL1   H3'16180   0.133   3.125   2.857  3.3839  0.0306  1.4572
  135CHL1    C416181   0.102   3.112   3.093 -0.1911  0.3442  0.2289
  135CHL1   H4A16182   0.210   3.133   3.100 -0.1519  0.6125 -0.9061
  135CHL1   H4B16183   0.056   3.206   3.054 -0.3726  0.8051  1.5288
  135CHL1    C516184   0.040   3.096   3.225 -0.1017 -0.2152 -0.2046
  135CHL1    C616185  -0.047   3.187   3.280  0.4215 -0.0886 -0.6158
  135CHL1    H616186  -0.067   3.279   3.223  2.9753  0.5758 -0.5622
  135CHL1    C716187  -0.104   3.174   3.419 -0.3724  0.0987  0.3235
  135CHL1   H7A16188  -0.087   3.268   3.475 -2.0957  0.2024  0.7375
  135CHL1   H7B16189  -0.214   3.160   3.415 -0.7679  2.8298 -2.4441
  135CHL1    C816190  -0.026   3.062   3.499  0.1474 -0.5362  0.2739
  135CHL1    H816191   0.074   3.109   3.510  0.0541 -0.7038  2.2615
  135CHL1   C1416192  -0.097   3.035   3.627 -0.3830 -0.2050  0.5595
  135CHL1   H1416193  -0.196   2.992   3.600 -0.6439  0.1706  0.9062
  135CHL1   C1516194  -0.135   3.153   3.718  0.0294 -0.1356 -0.2603
  135CHL1  H15A16195  -0.045   3.217   3.718 -0.3732  0.4343 -0.5590
  135CHL1  H15B16196  -0.232   3.200   3.690 -0.8759 -0.6883  1.7038
  135CHL1   C1616197  -0.149   3.095   3.854  0.6974  0.2943 -0.1549
  135CHL1  H16A16198  -0.080   3.143   3.927  0.3813  1.2988 -0.4961
  135CHL1  H16B16199  -0.254   3.105   3.888  0.8617  0.7698  0.2263
  135CHL1   C1716200  -0.122   2.941   3.843  0.3378  0.0694 -0.0294
  135CHL1   H1716201  -0.225   2.902   3.826  0.0802  0.0858  1.4164
  135CHL1   C1316202  -0.036   2.927   3.715  0.3048 -0.0008  0.2983
  135CHL1   C1816203   0.115   2.959   3.748  0.0434  0.0899 -0.1752
  135CHL1  H18A16204   0.152   2.882   3.819 -1.1124 -0.4783 -0.1652
  135CHL1  H18B16205   0.181   2.959   3.659  0.0351 -0.5052 -0.1824
  135CHL1  H18C16206   0.116   3.054   3.806 -1.9781  0.2809 -0.3864
  135CHL1   C1216207  -0.033   2.790   3.641  0.8042  0.6466  0.1388
  135CHL1  H12A16208   0.012   2.704   3.694  1.0345 -0.8476 -2.3223
  135CHL1  H12B16209  -0.140   2.763   3.628  1.5619 -2.1222 -0.9354
  135CHL1   C1116210   0.035   2.811   3.499  0.2749 -0.4403  0.1184
  135CHL1  H11A16211   0.143   2.795   3.517 -0.1266  0.0228  3.4097
  135CHL1  H11B16212  -0.005   2.729   3.435 -0.2652  0.9567 -1.4203
  135CHL1    C916213  -0.011   2.934   3.414 -0.2306 -0.2155 -0.1137
  135CHL1    H916214  -0.118   2.920   3.389 -0.3688  0.0615  0.3176
  135CHL1   C1016215   0.069   2.958   3.284  0.4713  0.0453 -0.2699
  135CHL1   C1916216   0.222   2.959   3.318  0.4086  0.6024 -0.1792
  135CHL1  H19A16217   0.279   2.982   3.225 -1.2959  1.0046 -1.1724
  135CHL1  H19B16218   0.241   3.031   3.400  3.3111  0.0914 -0.2976
  135CHL1  H19C16219   0.251   2.856   3.347  0.4854  0.3906 -0.9699
  135CHL1    C116220   0.050   2.839   3.185 -0.6331 -0.5430 -0.6901
  135CHL1   H1A16221   0.098   2.752   3.235 -0.2078 -0.0846 -0.2903
  135CHL1   H1B16222  -0.055   2.821   3.154 -0.9562 -1.2357  0.7409
  135CHL1    C216223   0.122   2.865   3.056 -0.4924 -0.0286 -0.2928
  135CHL1   H2A16224   0.108   2.782   2.983 -1.7374 -0.5579  0.5202
  135CHL1   H2B16225   0.230   2.858   3.083 -1.1943  1.1749  3.3712
  135CHL1   C2016226  -0.075   2.885   3.975  0.1057  0.5091 -0.7992
  135CHL1   H2016227   0.030   2.916   3.993  0.5550 -1.4328  0.2974
  135CHL1   C2116228  -0.069   2.725   3.972  0.3732 -0.1775  0.4983
  135CHL1  H21A16229  -0.018   2.684   4.063 -1.5578  1.0856  2.2395
  135CHL1  H21B16230  -0.001   2.692   3.891  2.6494  2.9373  0.9587
  135CHL1  H21C16231  -0.174   2.689   3.966  0.4093  0.0067 -2.4963
  135CHL1   C2216232  -0.157   2.922   4.099 -0.1514  1.0858  0.1922
  135CHL1  H22A16233  -0.170   3.032   4.106  0.5129  1.3142 -1.6075
  135CHL1  H22B16234  -0.253   2.869   4.079  0.6116  0.2856 -1.5581
  135CHL1   C2316235  -0.106   2.871   4.239 -0.6412 -0.5423 -0.1195
  135CHL1  H23A16236  -0.186   2.880   4.316 -1.7672 -1.0083 -1.2040
  135CHL1  H23B16237  -0.087   2.762   4.236 -2.8661 -1.0683  1.9515
  135CHL1   C2416238   0.019   2.939   4.303  0.7177  0.2402  0.3385
  135CHL1  H24A16239   0.108   2.932   4.237  1.1785 -2.0349  1.1080
  135CHL1  H24B16240  -0.005   3.047   4.306 -3.0898 -0.4843  0.4349
  135CHL1   C2516241   0.054   2.892   4.443 -0.6917  0.0936 -0.0876
  135CHL1   H2516242  -0.040   2.882   4.502 -0.3002 -0.5941  0.4385
  135CHL1   C2616243   0.111   2.751   4.427  0.3263  0.0879 -0.0421
  135CHL1  H26A16244   0.194   2.771   4.355  0.2367  0.9147  0.0843
  135CHL1  H26B16245   0.142   2.705   4.523 -1.5696 -0.6076  0.2779
  135CHL1  H26C16246   0.046   2.678   4.373  1.2613  0.4420 -1.7155
  135CHL1   C2716247   0.161   2.977   4.507  0.2706  0.7081  0.2482
  135CHL1  H27A16248   0.253   2.955   4.448  0.0454  2.6473 -0.8982
  135CHL1  H27B16249   0.130   3.083   4.495 -1.1216  0.3976  0.9116
  135CHL1  H27C16250   0.176   2.945   4.612  0.0341 -1.3348 -0.2988
  136CHL1    C316251   5.673   2.103   3.552 -0.2810 -0.3464  0.7520
  136CHL1    H316252   5.584   2.120   3.616 -0.2917 -1.3884  1.0357
  136CHL1    O316253   5.636   2.071   3.420  0.2801 -0.5879  0.2092
  136CHL1   H3'16254   5.722   2.060   3.378  0.7235  3.9941 -0.6376
  136CHL1    C416255   5.775   2.222   3.543  0.1935  0.2849  0.6713
  136CHL1   H4A16256   5.847   2.202   3.462  1.4871  1.0657  1.5880
  136CHL1   H4B16257   5.713   2.308   3.508  1.5346  0.9564 -0.1370
  136CHL1    C516258   5.846   2.236   3.674 -0.0400 -0.6304  0.3572
  136CHL1    C616259   5.828   2.351   3.739  0.9898  0.3570  0.4477
  136CHL1    H616260   5.770   2.430   3.688 -1.5044 -1.6521 -0.0476
  136CHL1    C716261   5.905   2.383   3.866  0.4489 -0.0021  0.0376
  136CHL1   H7A16262   5.948   2.485   3.860 -1.5004  0.9515  1.3059
  136CHL1   H7B16263   5.844   2.371   3.959 -0.1683 -0.3900 -0.4134
  136CHL1    C816264   6.029   2.292   3.882  0.3916  0.2523  0.0647
  136CHL1    H816265   6.103   2.325   3.806  0.3364 -1.8687 -0.9973
  136CHL1   C1416266   6.078   2.303   4.023  0.3358  0.0202  0.0522
  136CHL1   H1416267   5.998   2.270   4.092  1.1063 -0.8825  0.5454
  136CHL1   C1516268   6.110   2.446   4.072  0.2008 -0.0602 -0.3248
  136CHL1  H15A16269   6.168   2.494   3.990 -0.1480  0.1770 -0.4293
  136CHL1  H15B16270   6.019   2.506   4.089  0.1843 -0.5529  1.5548
  136CHL1   C1616271   6.191   2.430   4.197  1.0333  0.0671 -0.4260
  136CHL1  H16A16272   6.279   2.498   4.193  0.2187  1.1117 -1.6267
  136CHL1  H16B16273   6.134   2.461   4.287  3.6592  1.9018  0.7563
  136CHL1   C1716274   6.226   2.276   4.203 -0.2262  0.1921  0.1374
  136CHL1   H1716275   6.148   2.230   4.267 -0.6987 -0.0634 -0.6060
  136CHL1   C1316276   6.205   2.224   4.067 -0.0688 -0.2486  0.2125
  136CHL1   C1816277   6.318   2.266   3.971 -0.5551  0.6775  0.0096
  136CHL1  H18A16278   6.398   2.190   3.980  0.6414  2.0662  1.8676
  136CHL1  H18B16279   6.297   2.267   3.862 -0.0370  0.1390 -0.1002
  136CHL1  H18C16280   6.347   2.370   3.997 -1.7091  1.1145 -0.3847
  136CHL1   C1216281   6.167   2.081   4.042  0.3198  0.7585  0.2529
  136CHL1  H12A16282   6.264   2.029   4.054  0.5676  0.1386 -3.2575
  136CHL1  H12B16283   6.098   2.046   4.122 -0.1653  0.1918 -0.3939
  136CHL1   C1116284   6.108   2.050   3.900  0.3503  0.4480 -0.5328
  136CHL1  H11A16285   6.190   2.054   3.826  1.3399 -4.5640 -0.0910
  136CHL1  H11B16286   6.063   1.948   3.904 -0.9829  0.9570 -1.7838
  136CHL1    C916287   5.989   2.146   3.867  0.4728  1.2320  0.7026
  136CHL1    H916288   5.902   2.124   3.933 -2.0114  1.3530 -2.3051
  136CHL1   C1016289   5.926   2.116   3.724 -0.1447  0.7798 -0.6468
  136CHL1   C1916290   6.042   2.076   3.631  0.1880  0.8472 -0.2428
  136CHL1  H19A16291   6.082   1.978   3.664  1.9634  1.4770 -0.4280
  136CHL1  H19B16292   6.017   2.064   3.523 -0.8325 -0.5463  0.1115
  136CHL1  H19C16293   6.114   2.161   3.631  0.1858  0.8527  0.1813
  136CHL1    C116294   5.832   1.995   3.729  0.5475 -0.1906 -0.3606
  136CHL1   H1A16295   5.897   1.912   3.764  1.1420  1.3194  2.4031
  136CHL1   H1B16296   5.759   2.001   3.812  1.0092  1.0703 -0.0165
  136CHL1    C216297   5.749   1.978   3.599  0.0958 -0.3056  0.0037
  136CHL1   H2A16298   5.672   1.899   3.612  1.1579 -1.0723  1.9980
  136CHL1   H2B16299   5.829   1.945   3.528  0.6447  0.3944  0.2853
  136CHL1   C2016300   6.353   2.228   4.269 -0.1844 -0.1839 -0.2486
  136CHL1   H2016301   6.431   2.207   4.193 -0.8678  0.8854 -1.2652
  136CHL1   C2116302   6.317   2.098   4.344  0.4517 -0.1224  0.2313
  136CHL1  H21A16303   6.414   2.053   4.376  0.7230  0.6036  0.4389
  136CHL1  H21B16304   6.267   2.030   4.272 -0.5571  1.1285 -0.2817
  136CHL1  H21C16305   6.264   2.124   4.438  0.1566  0.8806 -0.1994
  136CHL1   C2216306   6.431   2.330   4.355  0.0411  0.1379  0.1343
  136CHL1  H22A16307   6.466   2.411   4.287 -0.4051 -0.7642 -1.2007
  136CHL1  H22B16308   6.353   2.364   4.426 -0.6807  1.0438 -1.0435
  136CHL1   C2316309   6.549   2.276   4.432 -0.3279 -0.1009 -0.5512
  136CHL1  H23A16310   6.505   2.196   4.496 -3.1363  0.6945 -1.3181
  136CHL1  H23B16311   6.632   2.235   4.371  0.9939  1.5144  0.0932
  136CHL1   C2416312   6.612   2.375   4.533  0.4904  0.2038  0.3236
  136CHL1  H24A16313   6.635   2.474   4.488  1.3102  0.0734  0.4449
  136CHL1  H24B16314   6.536   2.393   4.612  0.8274  2.1768  0.2524
  136CHL1   C2516315   6.735   2.320   4.606  0.4711  0.3283 -0.0301
  136CHL1   H2516316   6.727   2.212   4.632 -0.4370  0.5927  0.8859
  136CHL1   C2616317   6.859   2.333   4.516 -0.1037 -0.1879 -0.2317
  136CHL1  H26A16318   6.876   2.442   4.496  0.1459  0.2153  1.9750
  136CHL1  H26B16319   6.949   2.281   4.556 -1.1716 -1.1382  1.0072
  136CHL1  H26C16320   6.849   2.286   4.416 -0.9535  2.6952 -1.6232
  136CHL1   C2716321   6.754   2.392   4.749 -0.7056  0.0458 -0.1005
  136CHL1  H27A16322   6.669   2.365   4.815  0.8789 -1.9471  1.2477
  136CHL1  H27B16323   6.847   2.351   4.794 -0.5786  0.4714  0.0277
  136CHL1  H27C16324   6.753   2.502   4.737 -0.1289  0.4614  2.9084
  137CHL1    C316325   1.321   1.991   2.998  0.6229  0.0466 -0.5424
  137CHL1    H316326   1.427   1.961   3.011 -0.0207 -1.7921  0.8905
  137CHL1    O316327   1.306   2.069   2.880 -0.0121  0.4292 -0.1205
  137CHL1   H3'16328   1.309   2.160   2.908 -1.3845 -0.0690  1.8400
  137CHL1    C416329   1.252   1.849   2.999  0.0334  0.1346  0.2936
  137CHL1   H4A16330   1.144   1.854   2.977  0.4329  0.7211 -1.8059
  137CHL1   H4B16331   1.293   1.788   2.916  1.8704  0.8828  0.5970
  137CHL1    C516332   1.278   1.783   3.132 -0.1117 -0.1798 -0.1242
  137CHL1    C616333   1.331   1.665   3.133 -0.0091  0.2915 -0.2361
  137CHL1    H616334   1.355   1.618   3.037  0.9286 -1.2884  0.7376
  137CHL1    C716335   1.352   1.586   3.258 -0.1556  0.0032 -0.0084
  137CHL1   H7A16336   1.344   1.477   3.237  0.8920 -0.0095 -0.4062
  137CHL1   H7B16337   1.455   1.598   3.298  0.2623  0.1827 -1.1176
  137CHL1    C816338   1.257   1.629   3.371  0.0108 -0.6398 -0.8692
  137CHL1    H816339   1.153   1.603   3.343  0.0308  0.1431 -1.7649
  137CHL1   C1416340   1.304   1.570   3.505  0.2988  0.0373 -0.5488
  137CHL1   H1416341   1.403   1.616   3.524  0.5777 -1.1939  1.1960
  137CHL1   C1516342   1.340   1.422   3.520 -0.2469  0.2417  0.5093
  137CHL1  H15A16343   1.266   1.374   3.452  0.7600  2.1912 -2.1319
  137CHL1  H15B16344   1.439   1.403   3.474 -0.9208  1.8095 -1.8002
  137CHL1   C1616345   1.340   1.393   3.671 -0.1388  0.2060 -0.2219
  137CHL1  H16A16346   1.259   1.320   3.688  0.4301 -0.7455 -1.4186
  137CHL1  H16B16347   1.434   1.342   3.702 -0.1378 -1.6819 -2.9933
  137CHL1   C1716348   1.304   1.533   3.739  0.3601 -0.3099  0.3903
  137CHL1   H1716349   1.399   1.586   3.759  0.4486  0.2177 -1.2693
  137CHL1   C1316350   1.221   1.607   3.627 -0.3307  0.0154  1.0667
  137CHL1   C1816351   1.075   1.555   3.623 -0.2485 -0.4251  0.5394
  137CHL1  H18A16352   1.030   1.614   3.540  3.8753  2.3134 -0.0269
  137CHL1  H18B16353   1.055   1.446   3.613 -2.4337  0.1243 -2.8282
  137CHL1  H18C16354   1.018   1.587   3.712  0.2102 -0.2271  0.7635
  137CHL1   C1216355   1.216   1.757   3.642  0.2574 -0.6020 -0.2053
  137CHL1  H12A16356   1.160   1.794   3.730 -0.0741 -2.1693  0.2752
  137CHL1  H12B16357   1.317   1.797   3.666 -0.0851 -1.2623  2.6415
  137CHL1   C1116358   1.183   1.829   3.511  0.2992 -0.1019 -0.3182
  137CHL1  H11A16359   1.075   1.809   3.496  0.4750 -0.8821 -0.5641
  137CHL1  H11B16360   1.172   1.940   3.521 -2.3007 -0.0485 -2.4386
  137CHL1    C916361   1.263   1.786   3.387 -0.8431 -0.0132  0.1714
  137CHL1    H916362   1.368   1.811   3.414  0.1972 -0.5977 -2.9034
  137CHL1   C1016363   1.233   1.862   3.255  0.2868 -0.2228 -0.3110
  137CHL1   C1916364   1.083   1.887   3.256  0.1939  0.0560  1.1169
  137CHL1  H19A16365   1.040   1.933   3.164 -1.7033 -0.1630  1.8572
  137CHL1  H19B16366   1.037   1.788   3.279  1.2871 -0.0859  2.8767
  137CHL1  H19C16367   1.056   1.958   3.336  0.9099  0.9719  0.5676
  137CHL1    C116368   1.306   2.001   3.255 -0.2020 -0.0679 -0.3231
  137CHL1   H1A16369   1.253   2.066   3.328 -0.4592 -0.5374 -0.0873
  137CHL1   H1B16370   1.414   1.981   3.275 -0.9857 -3.7284  1.0111
  137CHL1    C216371   1.287   2.078   3.126  0.8650 -0.1569 -0.0547
  137CHL1   H2A16372   1.354   2.167   3.120 -1.6858  1.8472 -0.6517
  137CHL1   H2B16373   1.186   2.124   3.117  0.2061 -1.0833  2.0450
  137CHL1   C2016374   1.232   1.509   3.871 -0.3801 -0.1178 -0.5784
  137CHL1   H2016375   1.151   1.437   3.847 -0.3982 -0.0048 -0.8527
  137CHL1   C2116376   1.176   1.632   3.946 -0.3492 -0.2838  0.1788
  137CHL1  H21A16377   1.099   1.684   3.884  0.9808 -0.8857 -2.0981
  137CHL1  H21B16378   1.259   1.705   3.949 -2.0726  2.0677 -2.9226
  137CHL1  H21C16379   1.139   1.616   4.049  0.4174 -3.2247  0.0817
  137CHL1   C2216380   1.332   1.451   3.973 -0.6643  0.3067 -0.3634
  137CHL1  H22A16381   1.409   1.393   3.918 -1.3282 -1.4407  0.5003
  137CHL1  H22B16382   1.384   1.536   4.022  0.1170 -1.6389  2.4591
  137CHL1   C2316383   1.270   1.363   4.082  0.8512  0.0793  0.0576
  137CHL1  H23A16384   1.160   1.350   4.073  0.6259  1.4943  0.5155
  137CHL1  H23B16385   1.320   1.264   4.076  0.0689 -0.2368 -2.3509
  137CHL1   C2416386   1.299   1.417   4.231  0.5369  0.1750  0.0886
  137CHL1  H24A16387   1.409   1.429   4.231  0.4558  0.9842  0.2792
  137CHL1  H24B16388   1.245   1.514   4.233  0.9257  0.3996  1.7589
  137CHL1   C2516389   1.259   1.324   4.349  0.7615  0.3259 -0.1067
  137CHL1   H2516390   1.310   1.227   4.330  0.0410 -0.4931  1.9090
  137CHL1   C2616391   1.317   1.377   4.483 -0.0563  0.2442  0.1297
  137CHL1  H26A16392   1.281   1.479   4.507  0.7103  0.9232 -1.4989
  137CHL1  H26B16393   1.287   1.298   4.555  1.7107 -1.5464 -0.9872
  137CHL1  H26C16394   1.427   1.388   4.476 -0.1833  0.4722 -2.2118
  137CHL1   C2716395   1.108   1.299   4.360  0.3898  0.5479  0.1711
  137CHL1  H27A16396   1.079   1.244   4.268  0.2745 -0.4846  0.8097
  137CHL1  H27B16397   1.099   1.233   4.449  0.2382  0.7259  0.2898
  137CHL1  H27C16398   1.052   1.392   4.385 -0.6794 -0.2391  0.8131
  138CHL1    C316399   7.414   0.646   3.374  0.5885 -0.4090  0.1767
  138CHL1    H316400   7.405   0.548   3.424  0.1352  0.7474  2.5205
  138CHL1    O316401   7.416   0.631   3.234 -0.3263  0.2014 -0.4088
  138CHL1   H3'16402   7.455   0.710   3.195 -0.1958 -0.8670 -2.5875
  138CHL1    C416403   7.295   0.736   3.414  0.7404 -0.6599  0.5273
  138CHL1   H4A16404   7.289   0.839   3.374  1.3902 -0.4232  1.0295
  138CHL1   H4B16405   7.202   0.687   3.377  0.9102 -0.3998 -0.2566
  138CHL1    C516406   7.275   0.760   3.565 -0.6794  0.7378 -0.0525
  138CHL1    C616407   7.159   0.729   3.631  0.0094 -0.4024 -0.3280
  138CHL1    H616408   7.070   0.691   3.580 -1.0779  2.2237 -0.5527
  138CHL1    C716409   7.146   0.751   3.782 -0.2367  1.0954  0.4890
  138CHL1   H7A16410   7.047   0.797   3.802 -1.2903  0.8494 -3.2798
  138CHL1   H7B16411   7.148   0.656   3.839 -2.8127  0.8552  0.2713
  138CHL1    C816412   7.253   0.841   3.846 -0.3573 -0.6758 -0.0730
  138CHL1    H816413   7.219   0.945   3.827 -0.7412 -0.9908 -1.2122
  138CHL1   C1416414   7.258   0.821   3.999  0.2584  0.2367  0.1895
  138CHL1   H1416415   7.272   0.713   4.023  0.3871  0.6455  2.0986
  138CHL1   C1516416   7.127   0.846   4.073 -0.2920 -0.3726  0.1424
  138CHL1  H15A16417   7.086   0.942   4.035  1.8393  0.0050 -1.4189
  138CHL1  H15B16418   7.054   0.763   4.066  0.3199 -0.8893 -0.2442
  138CHL1   C1616419   7.165   0.862   4.215  0.0512  0.5959 -0.9793
  138CHL1  H16A16420   7.130   0.961   4.252 -1.2219 -0.0930 -0.2526
  138CHL1  H16B16421   7.135   0.779   4.282 -0.1489 -0.5649 -2.4723
  138CHL1   C1716422   7.324   0.871   4.216 -0.1448 -0.0391  0.0120
  138CHL1   H1716423   7.366   0.769   4.233  1.0058  0.6773  1.8829
  138CHL1   C1316424   7.367   0.908   4.067  0.0261  0.5897  0.5473
  138CHL1   C1816425   7.345   1.057   4.049 -0.2925  0.0270 -0.4981
  138CHL1  H18A16426   7.436   1.114   4.077  1.3285 -2.3092 -0.6564
  138CHL1  H18B16427   7.328   1.077   3.941 -0.5218  3.5805  0.0973
  138CHL1  H18C16428   7.258   1.101   4.102  0.3610  1.5140 -0.6253
  138CHL1   C1216429   7.504   0.870   4.012 -0.1769  0.0899 -0.2106
  138CHL1  H12A16430   7.577   0.928   4.071 -0.8402 -0.8513  1.6193
  138CHL1  H12B16431   7.524   0.762   4.027 -2.9561 -0.5574 -0.4795
  138CHL1   C1116432   7.509   0.895   3.863 -0.0007  0.4317  0.2152
  138CHL1  H11A16433   7.521   1.005   3.851 -0.0834  0.3507 -0.7134
  138CHL1  H11B16434   7.606   0.850   3.833 -1.4959 -2.5902 -0.5160
  138CHL1    C916435   7.393   0.815   3.788  0.4981  0.2544 -1.1782
  138CHL1    H916436   7.406   0.707   3.813 -3.9455  0.6281  4.8121
  138CHL1   C1016437   7.399   0.822   3.633  0.0545  0.4124 -0.6489
  138CHL1   C1916438   7.413   0.967   3.595  0.3113  0.8836 -0.1117
  138CHL1  H19A16439   7.399   0.984   3.486 -1.0222 -0.1292 -0.1169
  138CHL1  H19B16440   7.332   1.024   3.645  2.0808  2.0621  1.5088
  138CHL1  H19C16441   7.506   1.016   3.631  0.9279 -1.2207  1.2749
  138CHL1    C116442   7.522   0.738   3.588 -0.1707  0.3605  0.2830
  138CHL1   H1A16443   7.621   0.780   3.616  1.1502 -0.8895 -2.1536
  138CHL1   H1B16444   7.518   0.637   3.635 -0.1033 -0.0927 -0.6653
  138CHL1    C216445   7.536   0.715   3.434  0.4209  0.7772  0.1591
  138CHL1   H2A16446   7.618   0.642   3.416 -0.4964 -0.1547 -0.2884
  138CHL1   H2B16447   7.566   0.812   3.388 -1.4200 -0.1696 -3.4084
  138CHL1   C2016448   7.382   0.953   4.326  0.5607 -0.2489  0.6000
  138CHL1   H2016449   7.354   1.059   4.305 -0.7637 -0.4938  1.0341
  138CHL1   C2116450   7.536   0.964   4.324 -0.2659  0.1793 -0.4795
  138CHL1  H21A16451   7.568   1.018   4.233  1.5609  1.4876  0.8750
  138CHL1  H21B16452   7.565   0.857   4.316  2.1422  0.8255 -1.4128
  138CHL1  H21C16453   7.587   1.016   4.409 -2.4026  1.1440  0.2832
  138CHL1   C2216454   7.327   0.903   4.465  0.2471  0.2864 -0.1347
  138CHL1  H22A16455   7.223   0.864   4.459  0.2531  0.4083 -1.1778
  138CHL1  H22B16456   7.380   0.808   4.490  2.0457  0.1654 -3.6641
  138CHL1   C2316457   7.328   1.000   4.582  0.4986 -0.1907  0.7456
  138CHL1  H23A16458   7.437   0.997   4.604  1.0134 -1.1047 -1.6289
  138CHL1  H23B16459   7.304   1.099   4.538 -1.7034 -1.7230 -1.8317
  138CHL1   C2416460   7.244   0.952   4.693 -0.1355  0.0903 -0.4785
  138CHL1  H24A16461   7.140   0.959   4.654  0.4970  1.7155 -1.9831
  138CHL1  H24B16462   7.270   0.849   4.727  0.3660  0.3107 -0.1973
  138CHL1   C2516463   7.245   1.057   4.809  0.6484  0.6793 -0.0000
  138CHL1   H2516464   7.346   1.082   4.848  0.5719  1.3904 -0.2431
  138CHL1   C2616465   7.180   1.195   4.773  0.1105  0.1794  0.8151
  138CHL1  H26A16466   7.080   1.185   4.726  0.3812  1.6807 -0.1257
  138CHL1  H26B16467   7.190   1.266   4.858  0.6100  0.5243  0.4777
  138CHL1  H26C16468   7.245   1.237   4.693  1.5077 -2.0018  0.7016
  138CHL1   C2716469   7.164   1.008   4.926  0.8214  0.1419 -0.1339
  138CHL1  H27A16470   7.201   0.919   4.981 -1.0445  0.6951  2.1725
  138CHL1  H27B16471   7.148   1.083   5.006  0.7461 -1.5766  1.5583
  138CHL1  H27C16472   7.065   0.969   4.892  0.6315 -0.6962  1.2781
  139CHL1    C316473   6.751   6.873   3.417 -0.1241 -0.3277 -0.2995
  139CHL1    H316474   6.744   6.765   3.392 -0.3736 -0.1142 -1.1921
  139CHL1    O316475   6.729   6.941   3.297 -0.1371  0.2486 -0.5046
  139CHL1   H3'16476   6.736   7.034   3.320 -0.6980  0.7317 -2.1938
  139CHL1    C416477   6.628   6.908   3.491 -0.4157  0.4655 -0.0726
  139CHL1   H4A16478   6.610   7.018   3.493  1.9686  0.9268 -1.1554
  139CHL1   H4B16479   6.541   6.863   3.440 -0.8011  0.0199  0.9434
  139CHL1    C516480   6.632   6.862   3.633 -0.6567  0.5216 -0.1226
  139CHL1    C616481   6.526   6.793   3.685  0.6023 -0.8400  0.8966
  139CHL1    H616482   6.440   6.773   3.619  0.7514  1.2019  0.0047
  139CHL1    C716483   6.534   6.744   3.826 -0.0419 -1.0506 -0.8649
  139CHL1   H7A16484   6.433   6.753   3.872 -0.1570  1.2288 -1.4457
  139CHL1   H7B16485   6.571   6.639   3.831 -1.6929 -1.6244  0.0291
  139CHL1    C816486   6.634   6.824   3.914 -0.3674  0.4021  0.2844
  139CHL1    H816487   6.599   6.928   3.930 -3.8888 -0.7202  0.8146
  139CHL1   C1416488   6.659   6.757   4.049  1.4883  0.4148  0.3567
  139CHL1   H1416489   6.706   6.660   4.024  0.4398 -0.1427  0.4726
  139CHL1   C1516490   6.535   6.732   4.145 -0.1236  0.1183  0.8482
  139CHL1  H15A16491   6.469   6.822   4.137  2.0575  2.0352  2.8866
  139CHL1  H15B16492   6.484   6.642   4.106 -1.7385  1.4273 -0.2346
  139CHL1   C1616493   6.595   6.713   4.286 -0.3437 -0.8328 -0.2667
  139CHL1  H16A16494   6.538   6.777   4.357  0.8759  0.4221 -0.3878
  139CHL1  H16B16495   6.589   6.606   4.317  0.0880 -0.6272  0.5495
  139CHL1   C1716496   6.749   6.757   4.273 -0.0378  0.5918 -0.5441
  139CHL1   H1716497   6.807   6.663   4.257 -0.4358  0.1268  0.6777
  139CHL1   C1316498   6.763   6.832   4.139  0.1208 -0.3672  0.1709
  139CHL1   C1816499   6.715   6.969   4.165  0.4572 -0.2466  0.0859
  139CHL1  H18A16500   6.608   6.981   4.193 -0.1421 -1.1485 -1.6395
  139CHL1  H18B16501   6.773   7.012   4.249  0.0010 -1.0516  0.8256
  139CHL1  H18C16502   6.748   7.033   4.080 -1.2348  2.5643  1.4098
  139CHL1   C1216503   6.897   6.828   4.064 -0.1840  0.4948  0.3145
  139CHL1  H12A16504   6.970   6.894   4.116  0.7352 -0.6634  0.5362
  139CHL1  H12B16505   6.927   6.721   4.070 -0.6120  0.3427 -0.2216
  139CHL1   C1116506   6.899   6.880   3.924 -0.3085 -0.9279  0.0430
  139CHL1  H11A16507   6.903   6.990   3.933  2.0431 -1.0126  0.6717
  139CHL1  H11B16508   6.992   6.855   3.870  0.0198  1.3169 -0.5232
  139CHL1    C916509   6.773   6.832   3.840 -0.0388  0.0059  0.1088
  139CHL1    H916510   6.796   6.728   3.809  1.8280  1.3971 -3.8123
  139CHL1   C1016511   6.769   6.898   3.709  0.3043 -0.6671  0.0768
  139CHL1   C1916512   6.757   7.052   3.737 -0.5874 -0.2508  0.3345
  139CHL1  H19A16513   6.852   7.101   3.769 -0.2799 -0.6535  0.0538
  139CHL1  H19B16514   6.730   7.113   3.647 -0.3879  1.5842  1.4641
  139CHL1  H19C16515   6.672   7.076   3.804 -0.6428 -0.6312  0.3999
  139CHL1    C116516   6.888   6.858   3.623 -0.2188 -0.4674 -0.1987
  139CHL1   H1A16517   6.983   6.899   3.665 -1.1936  0.8486  0.8333
  139CHL1   H1B16518   6.903   6.748   3.627  1.4106 -0.2527  0.4110
  139CHL1    C216519   6.877   6.921   3.484 -0.4583  0.8054 -0.4664
  139CHL1   H2A16520   6.965   6.889   3.424  1.8419  2.7200  1.6541
  139CHL1   H2B16521   6.875   7.032   3.485 -0.5160  0.8098 -0.8520
  139CHL1   C2016522   6.800   6.817   4.402 -0.0149  0.4942 -0.0743
  139CHL1   H2016523   6.756   6.918   4.417 -1.0823 -0.0681  0.6779
  139CHL1   C2116524   6.952   6.850   4.391 -0.1213 -0.4532 -0.2270
  139CHL1  H21A16525   6.974   6.940   4.331  0.5148  0.2548  1.0232
  139CHL1  H21B16526   7.013   6.761   4.364  0.1072 -0.3951  0.0847
  139CHL1  H21C16527   6.997   6.873   4.490  0.2960  0.2111 -0.5658
  139CHL1   C2216528   6.768   6.738   4.529  0.1538  0.2084 -0.4870
  139CHL1  H22A16529   6.836   6.786   4.603  1.2501 -2.1407  0.1228
  139CHL1  H22B16530   6.661   6.752   4.555  0.4019 -1.0189  1.3910
  139CHL1   C2316531   6.797   6.587   4.536  0.8399 -0.0699  0.0972
  139CHL1  H23A16532   6.727   6.521   4.479  0.2950 -1.4959  2.3032
  139CHL1  H23B16533   6.891   6.559   4.484 -0.5484 -2.8195 -1.1391
  139CHL1   C2416534   6.811   6.528   4.677 -0.7686 -0.4954  0.0142
  139CHL1  H24A16535   6.859   6.428   4.668  1.5910  0.5788 -0.0943
  139CHL1  H24B16536   6.880   6.587   4.740 -0.9239 -1.1328  0.7872
  139CHL1   C2516537   6.683   6.532   4.755 -0.3553  0.1194  0.0104
  139CHL1   H2516538   6.649   6.637   4.747 -2.5398 -0.6820 -2.7709
  139CHL1   C2616539   6.577   6.438   4.698 -0.4861  0.5904  0.0575
  139CHL1  H26A16540   6.500   6.419   4.777 -0.5729 -0.7837 -0.3283
  139CHL1  H26B16541   6.536   6.467   4.599  2.0268 -1.3715 -1.6590
  139CHL1  H26C16542   6.618   6.335   4.687 -1.2435  0.4980 -2.5871
  139CHL1   C2716543   6.705   6.502   4.906  0.1855 -0.4175 -0.4550
  139CHL1  H27A16544   6.611   6.515   4.964 -1.0129  2.3205 -2.7601
  139CHL1  H27B16545   6.752   6.402   4.919  3.4486  0.9023 -1.0238
  139CHL1  H27C16546   6.773   6.574   4.956  1.7354 -2.4377  0.4957
  140CHL1    C316547   5.992   0.406   3.789  0.5633 -0.2645 -0.1848
  140CHL1    H316548   6.013   0.297   3.783  1.9567  0.0656 -2.4467
  140CHL1    O316549   5.873   0.443   3.716 -0.3814 -0.0419 -0.0812
  140CHL1   H3'16550   5.860   0.538   3.727  1.7635  0.2809  0.1285
  140CHL1    C416551   5.956   0.435   3.932  0.3618 -0.4870 -0.3560
  140CHL1   H4A16552   5.924   0.539   3.954  1.8947 -0.3636  1.7122
  140CHL1   H4B16553   5.874   0.368   3.963  1.9605 -1.8821  1.1020
  140CHL1    C516554   6.081   0.416   4.021 -0.0329 -0.0592 -0.0551
  140CHL1    C616555   6.083   0.327   4.123  0.2354  0.2176  0.0774
  140CHL1    H616556   5.997   0.260   4.139  0.0047  0.7110  1.0055
  140CHL1    C716557   6.192   0.331   4.225  0.2712  0.4863  0.0009
  140CHL1   H7A16558   6.136   0.347   4.320  0.2636  0.3144  0.0249
  140CHL1   H7B16559   6.246   0.236   4.240  0.0696  0.4301  0.3835
  140CHL1    C816560   6.293   0.445   4.203  0.0210 -0.2624  0.5407
  140CHL1    H816561   6.251   0.541   4.239 -1.2801 -0.5286 -0.2188
  140CHL1   C1416562   6.424   0.411   4.287 -0.1385 -0.3376  0.6847
  140CHL1   H1416563   6.475   0.334   4.225 -1.4419  0.8019 -2.0155
  140CHL1   C1516564   6.407   0.371   4.435  0.1273  0.3434 -0.0972
  140CHL1  H15A16565   6.336   0.445   4.477 -1.6532  0.9830 -3.7678
  140CHL1  H15B16566   6.371   0.269   4.459 -2.1344  1.2645  0.7676
  140CHL1   C1616567   6.544   0.397   4.495 -0.6322 -0.0786 -0.1094
  140CHL1  H16A16568   6.523   0.469   4.577 -2.6228 -0.6687 -0.0595
  140CHL1  H16B16569   6.599   0.309   4.532 -0.7200 -0.1834 -0.2272
  140CHL1   C1716570   6.627   0.473   4.386 -0.5055 -0.4034 -0.2483
  140CHL1   H1716571   6.686   0.403   4.323  1.4444  0.4815  0.5171
  140CHL1   C1316572   6.525   0.529   4.284  0.4494  0.1718 -0.2795
  140CHL1   C1816573   6.464   0.663   4.337 -0.4316 -0.1838  0.0603
  140CHL1  H18A16574   6.469   0.669   4.448 -0.5415 -2.7355  0.2619
  140CHL1  H18B16575   6.534   0.744   4.304 -1.8385  0.4851 -1.4276
  140CHL1  H18C16576   6.366   0.689   4.291  0.3150 -0.0003 -1.4900
  140CHL1   C1216577   6.567   0.549   4.134 -0.0073 -0.3126  0.5561
  140CHL1  H12A16578   6.626   0.643   4.128  0.6888 -0.7321  0.7715
  140CHL1  H12B16579   6.622   0.460   4.095 -0.6445 -0.7932  0.7399
  140CHL1   C1116580   6.443   0.574   4.040 -0.3680  0.7070  0.0787
  140CHL1  H11A16581   6.405   0.677   4.059  0.0345  1.2754 -1.9558
  140CHL1  H11B16582   6.486   0.573   3.938  1.4615  0.6495  0.8168
  140CHL1    C916583   6.327   0.468   4.052  0.1509  0.1645 -0.8153
  140CHL1    H916584   6.371   0.376   4.008 -0.7048  0.0502 -1.4556
  140CHL1   C1016585   6.197   0.508   3.981  0.6991 -0.2709 -0.3268
  140CHL1   C1916586   6.156   0.656   4.000 -0.7685  0.2797 -0.3587
  140CHL1  H19A16587   6.235   0.726   3.966 -0.7855  1.0612  1.1510
  140CHL1  H19B16588   6.059   0.681   3.951 -1.2458  0.2545  0.5566
  140CHL1  H19C16589   6.142   0.669   4.109  1.9079  0.2101  0.0718
  140CHL1    C116590   6.221   0.478   3.833 -0.7354  0.3391 -0.1846
  140CHL1   H1A16591   6.302   0.547   3.801  2.6165 -3.1083  0.0863
  140CHL1   H1B16592   6.272   0.382   3.810 -1.9574 -0.4955  0.5180
  140CHL1    C216593   6.106   0.497   3.734 -0.5433  1.2126  1.1743
  140CHL1   H2A16594   6.123   0.469   3.628 -2.0655  3.1941  0.3398
  140CHL1   H2B16595   6.068   0.601   3.748 -2.3833  0.5461  1.4020
  140CHL1   C2016596   6.741   0.567   4.430  0.0801 -0.4008  0.3991
  140CHL1   H2016597   6.740   0.661   4.371  1.8513 -1.2620 -1.0800
  140CHL1   C2116598   6.873   0.494   4.444 -0.2546 -0.1205  0.1930
  140CHL1  H21A16599   6.960   0.558   4.469 -0.0734 -0.1570 -0.3313
  140CHL1  H21B16600   6.902   0.447   4.348 -2.0815 -0.0883 -0.4147
  140CHL1  H21C16601   6.863   0.409   4.515 -0.9781  0.4447  0.7784
  140CHL1   C2216602   6.724   0.628   4.573 -0.1938  0.2148 -0.2944
  140CHL1  H22A16603   6.621   0.669   4.588  0.0989  0.8952 -0.0940
  140CHL1  H22B16604   6.732   0.552   4.653 -2.1493  1.0717  0.7902
  140CHL1   C2316605   6.813   0.754   4.603  0.1302  0.8461 -0.6739
  140CHL1  H23A16606   6.922   0.742   4.587  0.0594  0.0478 -0.6058
  140CHL1  H23B16607   6.777   0.835   4.535 -1.4055  0.6980 -0.0830
  140CHL1   C2416608   6.792   0.810   4.750 -0.3753  0.6001 -0.6906
  140CHL1  H24A16609   6.866   0.893   4.763 -0.8111  1.2000 -1.8751
  140CHL1  H24B16610   6.687   0.841   4.767 -0.0151  1.3355  0.3365
  140CHL1   C2516611   6.836   0.709   4.860  0.5516 -0.1138 -0.1048
  140CHL1   H2516612   6.753   0.637   4.878  0.2731 -0.4371 -2.3753
  140CHL1   C2616613   6.848   0.779   4.995 -0.1673 -0.4843 -0.2172
  140CHL1  H26A16614   6.762   0.842   5.025  0.6290  0.6702 -0.2750
  140CHL1  H26B16615   6.840   0.714   5.084 -3.0812 -1.3116 -0.9987
  140CHL1  H26C16616   6.945   0.833   5.006 -0.1272 -0.8440  1.4902
  140CHL1   C2716617   6.956   0.627   4.822  0.5612 -0.0514 -0.3410
  140CHL1  H27A16618   6.933   0.555   4.740  0.2294  1.5127 -1.6826
  140CHL1  H27B16619   7.040   0.694   4.792 -0.4396  2.1433  1.4820
  140CHL1  H27C16620   6.984   0.580   4.918 -1.3532  0.5472  0.5521
  141DOPC     N16621   4.301   2.930   7.258 -0.5982 -0.3677 -0.2432
  141DOPC   C1216622   4.358   2.789   7.241  0.0486  0.0774 -0.0306
  141DOPC  H12A16623   4.285   2.719   7.279 -1.1671  0.9855 -0.6277
  141DOPC  H12B16624   4.449   2.776   7.299 -0.9142  0.3382  1.5928
  141DOPC   C1316625   4.406   3.034   7.218  1.1348 -0.0516 -0.0548
  141DOPC  H13A16626   4.501   3.036   7.268  1.2957  0.7764 -0.3712
  141DOPC  H13B16627   4.427   3.016   7.114  1.1606  0.5340 -0.1571
  141DOPC  H13C16628   4.374   3.136   7.235 -0.1198 -0.6164  1.1352
  141DOPC   C1416629   4.256   2.954   7.396 -0.2793  0.2132  0.0455
  141DOPC  H14A16630   4.339   2.938   7.463 -1.6130  0.8396  1.9355
  141DOPC  H14B16631   4.234   3.059   7.399  1.7207  0.6773 -0.3569
  141DOPC  H14C16632   4.173   2.887   7.414  1.7724 -2.2153  1.2900
  141DOPC   C1516633   4.190   2.952   7.162  0.3387  0.0548 -0.3411
  141DOPC  H15A16634   4.139   3.044   7.185 -0.4184 -0.7805  1.5841
  141DOPC  H15B16635   4.124   2.866   7.161  0.3776  0.0343 -1.5274
  141DOPC  H15C16636   4.222   2.962   7.060  1.0288 -1.1447 -0.2620
  141DOPC   C1116637   4.392   2.740   7.100 -0.3842 -0.3732  0.4302
  141DOPC  H11A16638   4.426   2.636   7.122 -0.7468 -0.4031  0.8608
  141DOPC  H11B16639   4.312   2.726   7.024  0.8218 -0.9286 -0.7774
  141DOPC     P16640   4.647   2.773   7.086  0.1364  0.2244 -0.1518
  141DOPC   O1316641   4.642   2.735   7.233 -0.1969  0.1210  0.5590
  141DOPC   O1416642   4.738   2.886   7.062  0.6887  0.5401 -0.4589
  141DOPC   O1216643   4.500   2.809   7.033 -0.0238  0.6017  0.2627
  141DOPC   O1116644   4.693   2.645   7.000  0.4288  0.2417  0.8173
  141DOPC    C116645   4.616   2.594   6.883 -0.0394 -0.7932 -0.7297
  141DOPC    HA16646   4.508   2.615   6.895  0.5169  1.6779  0.6677
  141DOPC    HB16647   4.621   2.484   6.890  0.4965 -0.7222  0.2515
  141DOPC    C216648   4.670   2.642   6.753 -0.5432 -0.1442 -0.1495
  141DOPC    HS16649   4.773   2.600   6.743 -0.6793 -0.8598  1.1815
  141DOPC   O2116650   4.665   2.788   6.747  0.2723  0.2956  0.1598
  141DOPC   C2116651   4.750   2.857   6.663  0.3331  0.2841 -0.4903
  141DOPC   O2216652   4.852   2.810   6.612  0.6201 -0.1260  0.3643
  141DOPC   C2216653   4.699   2.999   6.637  0.1568  0.6822 -0.7019
  141DOPC   H2R16654   4.786   3.058   6.600  1.3202 -1.3056 -1.2703
  141DOPC   H2S16655   4.653   3.018   6.736 -0.9846 -5.3134  0.3133
  141DOPC    C316656   4.575   2.582   6.640  0.1116  0.1612  0.5573
  141DOPC    HX16657   4.478   2.632   6.660  0.2045  1.7368 -2.4246
  141DOPC    HY16658   4.574   2.471   6.644  0.8648  0.0950 -0.6019
  141DOPC   O3116659   4.610   2.630   6.509  0.2007  0.0709  0.5807
  141DOPC   C3116660   4.717   2.569   6.457 -0.8647  0.1035  0.2665
  141DOPC   O3216661   4.778   2.480   6.512 -0.1398  0.1351  0.2493
  141DOPC   C3216662   4.744   2.612   6.311 -0.1026  0.5349  0.2145
  141DOPC   H2X16663   4.647   2.619   6.258  0.0220  0.6182 -0.0045
  141DOPC   H2Y16664   4.795   2.711   6.319 -0.2220  0.5010  1.8876
  141DOPC   C2316665   4.579   2.985   6.537 -0.2071  0.2361  0.2468
  141DOPC   H3R16666   4.518   3.078   6.544  1.0525  1.1214  0.0750
  141DOPC   H3S16667   4.516   2.903   6.577  0.0252 -1.2334 -2.2298
  141DOPC   C2416668   4.625   2.950   6.391 -0.6223 -0.1535 -0.6785
  141DOPC   H4R16669   4.706   2.874   6.395 -0.9978 -0.5544 -0.7651
  141DOPC   H4S16670   4.679   3.043   6.360 -0.5541 -0.1377 -0.5128
  141DOPC   C2516671   4.519   2.913   6.297  0.4147 -0.2521 -0.4199
  141DOPC   H5R16672   4.434   2.981   6.320 -0.7022 -2.1472  1.4693
  141DOPC   H5S16673   4.471   2.816   6.325  1.9968 -0.4805  1.7550
  141DOPC   C2616674   4.567   2.923   6.151  0.5472  0.4113 -0.0039
  141DOPC   H6R16675   4.654   2.854   6.139  0.0191 -0.1772 -0.5631
  141DOPC   H6S16676   4.620   3.020   6.139  1.7817  0.0501  2.0841
  141DOPC   C2716677   4.458   2.886   6.048 -0.0297 -0.2199  0.2261
  141DOPC   H7R16678   4.372   2.957   6.050 -0.4882 -0.7688  2.0298
  141DOPC   H7S16679   4.412   2.788   6.071 -1.3992 -0.4088 -2.7709
  141DOPC   C2816680   4.507   2.876   5.899  0.6100 -0.0859 -0.2963
  141DOPC   H8R16681   4.425   2.832   5.838  1.0644 -0.9405 -0.3066
  141DOPC   H8S16682   4.595   2.808   5.889  0.3112 -0.3465 -1.2413
  141DOPC   C2916683   4.535   3.014   5.856 -0.4593  0.3038  0.4639
  141DOPC   H9R16684   4.612   3.064   5.916  1.4208 -2.9831  0.9959
  141DOPC  C21016685   4.471   3.077   5.756  0.2316 -0.3660  0.2602
  141DOPC  H10R16686   4.509   3.179   5.741  0.1344 -0.1842  1.1537
  141DOPC  C21116687   4.358   3.032   5.661 -0.2999 -0.2893  0.0007
  141DOPC  H11R16688   4.304   3.121   5.623  0.6868  1.6628  2.7926
  141DOPC  H11S16689   4.285   2.973   5.721  0.8344  0.0694  1.8373
  141DOPC  C21216690   4.404   2.943   5.551  0.6520  0.1280  0.5918
  141DOPC  H12R16691   4.482   2.867   5.571  1.2772  0.5895 -0.0549
  141DOPC  H12S16692   4.445   3.000   5.465 -0.9863 -1.1363 -1.1336
  141DOPC  C21316693   4.293   2.855   5.489  1.1268 -0.3208 -0.2816
  141DOPC  H13R16694   4.211   2.922   5.455  1.4313 -0.2864 -0.9630
  141DOPC  H13S16695   4.247   2.792   5.568  0.3517 -0.0989 -0.5421
  141DOPC  C21416696   4.337   2.758   5.375  0.6272  0.1228 -1.0534
  141DOPC  H14R16697   4.242   2.711   5.344 -0.6387  1.9841 -0.1873
  141DOPC  H14S16698   4.411   2.688   5.419  1.0073  0.1738 -1.6054
  141DOPC  C21516699   4.393   2.835   5.258 -0.0084 -0.4366 -0.3450
  141DOPC  H15R16700   4.463   2.911   5.300  0.6331 -1.9445  1.4686
  141DOPC  H15S16701   4.307   2.881   5.206  1.1387  1.2996 -0.7872
  141DOPC  C21616702   4.455   2.736   5.157  0.1371  0.4487 -0.5400
  141DOPC  H16R16703   4.373   2.681   5.105  1.8471 -4.0699  1.0731
  141DOPC  H16S16704   4.506   2.653   5.209 -3.6241 -2.1943 -0.6348
  141DOPC  C21716705   4.549   2.804   5.046 -0.2642  0.4653  0.2144
  141DOPC  H17R16706   4.648   2.825   5.092  0.3773 -1.5376 -0.1893
  141DOPC  H17S16707   4.497   2.902   5.034 -1.2758 -0.2685 -1.8000
  141DOPC  C21816708   4.553   2.726   4.909 -0.2107  0.1959  0.7953
  141DOPC  H18R16709   4.583   2.620   4.912 -0.9928 -0.5801 -5.4827
  141DOPC  H18S16710   4.605   2.778   4.825 -0.0377 -0.3254  0.5753
  141DOPC  H18T16711   4.449   2.735   4.872 -0.4333  0.5164  1.4808
  141DOPC   C3316712   4.838   2.528   6.225 -0.1916  0.3885  0.0557
  141DOPC   H3X16713   4.929   2.502   6.284 -0.6158 -2.6568 -0.4600
  141DOPC   H3Y16714   4.883   2.596   6.149  0.3530  2.5766  2.2244
  141DOPC   C3416715   4.772   2.400   6.165 -0.0108  0.2978 -0.3766
  141DOPC   H4X16716   4.691   2.431   6.097 -1.0713  1.6142  1.3921
  141DOPC   H4Y16717   4.742   2.338   6.252  2.5956 -1.8030 -0.8267
  141DOPC   C3516718   4.876   2.328   6.076  0.2563  0.0266 -0.6978
  141DOPC   H5X16719   4.947   2.279   6.146 -0.3891  1.6632  1.2241
  141DOPC   H5Y16720   4.919   2.398   6.001 -1.7674  2.2806  0.1171
  141DOPC   C3616721   4.811   2.215   6.004 -0.0850  0.5547  0.4384
  141DOPC   H6X16722   4.774   2.129   6.064 -0.4985 -1.1263 -2.0867
  141DOPC   H6Y16723   4.725   2.261   5.952 -0.1169  0.6877  0.6063
  141DOPC   C3716724   4.901   2.144   5.905 -0.3374  0.9137  0.8240
  141DOPC   H7X16725   4.976   2.208   5.855  2.9567 -0.5706  3.4480
  141DOPC   H7Y16726   4.969   2.081   5.967 -1.0151  1.3117  2.0104
  141DOPC   C3816727   4.819   2.055   5.804 -0.6939  0.1083 -0.2746
  141DOPC   H8X16728   4.748   1.997   5.866 -0.1476  1.6474  1.9083
  141DOPC   H8Y16729   4.894   1.985   5.761  1.1083  0.4682  2.0463
  141DOPC   C3916730   4.753   2.133   5.688 -0.4563 -0.5729  0.3217
  141DOPC   H9X16731   4.690   2.218   5.720  0.5649  0.2559  0.1597
  141DOPC  C31016732   4.780   2.116   5.556  0.1048  0.0522  0.0161
  141DOPC  H10X16733   4.735   2.183   5.481 -1.1430 -0.1571  0.5505
  141DOPC  C31116734   4.877   2.022   5.499 -0.1036  0.7375 -0.4714
  141DOPC  H11X16735   4.839   1.921   5.524 -0.5500  1.1852  0.7216
  141DOPC  H11Y16736   4.976   2.032   5.550 -0.3246 -0.5073  0.2295
  141DOPC  C31216737   4.897   2.021   5.345 -0.1388 -0.2402 -0.2072
  141DOPC  H12X16738   4.945   2.110   5.299  2.9376 -1.9610 -0.5970
  141DOPC  H12Y16739   4.801   2.025   5.289  1.4790  1.1103 -3.1237
  141DOPC  C31316740   4.972   1.902   5.291 -0.2830  0.1596 -0.1400
  141DOPC  H13X16741   5.075   1.909   5.331 -0.7981 -1.5778  1.6518
  141DOPC  H13Y16742   4.926   1.805   5.319 -1.2099  0.4377 -0.6618
  141DOPC  C31416743   4.977   1.905   5.141  0.2690 -0.1221  0.2273
  141DOPC  H14X16744   4.874   1.917   5.100  0.6695 -1.0679 -1.1453
  141DOPC  H14Y16745   5.028   1.998   5.110  0.0991 -0.2486 -0.4511
  141DOPC  C31516746   5.040   1.770   5.097 -0.1804  0.2395 -0.1372
  141DOPC  H15X16747   5.025   1.768   4.987 -0.6660  2.8301 -0.1769
  141DOPC  H15Y16748   4.974   1.696   5.146  1.7110 -0.8508  0.8408
  141DOPC  C31616749   5.186   1.741   5.136  0.0172  0.0445  0.2688
  141DOPC  H16X16750   5.199   1.744   5.246 -0.7480 -2.2275  0.4646
  141DOPC  H16Y16751   5.190   1.633   5.112 -3.4716  0.1195 -1.3672
  141DOPC  C31716752   5.288   1.825   5.048  0.3008  0.8814 -0.3925
  141DOPC  H17X16753   5.295   1.930   5.083  0.4214  0.5358  0.6385
  141DOPC  H17Y16754   5.381   1.769   5.070  0.4270  0.2949 -2.2234
  141DOPC  C31816755   5.270   1.798   4.895  0.4960  0.2657  0.4815
  141DOPC  H18X16756   5.369   1.802   4.843  0.0684 -0.7840 -0.4751
  141DOPC  H18Y16757   5.234   1.696   4.869  0.1103  0.6787 -0.6778
  141DOPC  H18Z16758   5.204   1.873   4.846  0.6645  0.0001 -0.1735
  142DOPC     N16759   4.746   3.726   6.794 -0.4850  0.0433 -0.0722
  142DOPC   C1216760   4.816   3.854   6.847 -0.0310 -0.2913 -0.3381
  142DOPC  H12A16761   4.834   3.841   6.953 -0.3965 -0.5590 -0.3056
  142DOPC  H12B16762   4.738   3.928   6.844 -1.0563 -1.3314  0.0476
  142DOPC   C1316763   4.680   3.754   6.664  0.3634  0.0431 -0.0274
  142DOPC  H13A16764   4.622   3.669   6.633  1.2394 -0.9028  0.8323
  142DOPC  H13B16765   4.605   3.831   6.674 -1.2011 -1.1994 -1.6754
  142DOPC  H13C16766   4.753   3.775   6.588 -0.5126  0.8693 -0.6617
  142DOPC   C1416767   4.653   3.678   6.902 -0.5138  0.2621 -0.1423
  142DOPC  H14A16768   4.584   3.753   6.939 -1.2843  0.0906 -1.2034
  142DOPC  H14B16769   4.601   3.589   6.871  1.1756 -1.0644  0.6764
  142DOPC  H14C16770   4.707   3.645   6.990  0.4072  1.5511 -0.1950
  142DOPC   C1516771   4.849   3.622   6.761  0.4149  0.1295 -0.0747
  142DOPC  H15A16772   4.927   3.668   6.701  1.6155 -1.3855  0.2636
  142DOPC  H15B16773   4.799   3.541   6.709 -0.1051  1.1475 -1.2030
  142DOPC  H15C16774   4.905   3.595   6.849 -0.1367  2.6507  1.1084
  142DOPC   C1116775   4.935   3.911   6.773 -0.2242 -0.0513 -0.2213
  142DOPC  H11A16776   4.915   3.942   6.668  1.4071  0.6508 -0.3436
  142DOPC  H11B16777   4.976   4.004   6.817  1.3085 -1.1683  0.8287
  142DOPC     P16778   5.187   3.832   6.797 -0.1718  0.1959  0.0471
  142DOPC   O1316779   5.223   3.778   6.931  0.4633  0.2909 -0.5046
  142DOPC   O1416780   5.218   3.975   6.784  0.0280  0.1733  0.0288
  142DOPC   O1216781   5.038   3.815   6.776 -0.4442  0.1711 -0.4783
  142DOPC   O1116782   5.246   3.756   6.675  0.0677 -0.1696  0.0896
  142DOPC    C116783   5.279   3.834   6.557  0.0837 -0.0219  0.1668
  142DOPC    HA16784   5.334   3.768   6.487  0.4851  0.7682 -0.2690
  142DOPC    HB16785   5.330   3.931   6.577 -1.8262  1.0517  0.0680
  142DOPC    C216786   5.150   3.864   6.477  0.4270 -0.2662 -1.1301
  142DOPC    HS16787   5.071   3.879   6.554  1.1772 -0.4762 -0.3034
  142DOPC   O2116788   5.120   3.745   6.403 -0.4559  0.0873  0.2646
  142DOPC   C2116789   4.996   3.728   6.394  0.0670 -0.1831  0.1621
  142DOPC   O2216790   4.905   3.798   6.439 -0.0367 -0.3778 -0.1371
  142DOPC   C2216791   4.967   3.602   6.315  0.2591  0.0102  0.8693
  142DOPC   H2R16792   4.966   3.512   6.379 -3.1811 -0.3879  0.3988
  142DOPC   H2S16793   5.033   3.593   6.225 -0.0677 -2.3480  0.8042
  142DOPC    C316794   5.168   3.997   6.403  0.0166 -0.1465 -0.0894
  142DOPC    HX16795   5.214   4.076   6.465  1.4428  1.0682 -2.5567
  142DOPC    HY16796   5.072   4.044   6.375  0.2250 -0.6704 -1.7666
  142DOPC   O3116797   5.252   3.988   6.286  0.5831 -0.0579 -0.1464
  142DOPC   C3116798   5.185   3.970   6.173  0.5473  0.8028  0.3756
  142DOPC   O3216799   5.066   3.947   6.169  0.6001  0.5050 -0.0769
  142DOPC   C3216800   5.268   3.966   6.055  0.3616 -0.5574 -0.9041
  142DOPC   H2X16801   5.330   4.057   6.043  1.6996 -1.4670 -1.1122
  142DOPC   H2Y16802   5.338   3.880   6.064 -1.2270 -1.7723  0.8532
  142DOPC   C2316803   4.818   3.602   6.263  0.4932  0.6181  0.4389
  142DOPC   H3R16804   4.795   3.679   6.186  1.3819 -2.7074 -3.5015
  142DOPC   H3S16805   4.740   3.630   6.338  0.3107  0.9268  0.1382
  142DOPC   C2416806   4.775   3.465   6.208 -0.6400  0.0741 -0.0503
  142DOPC   H4R16807   4.790   3.397   6.294 -0.3824 -0.9304 -0.8766
  142DOPC   H4S16808   4.855   3.437   6.136 -1.2319  1.3692 -1.2608
  142DOPC   C2516809   4.626   3.453   6.161 -0.6722 -0.1697 -0.8631
  142DOPC   H5R16810   4.604   3.523   6.078  0.5198  0.9386 -0.2633
  142DOPC   H5S16811   4.558   3.496   6.238  1.5643 -0.3178  1.3122
  142DOPC   C2616812   4.578   3.315   6.113 -0.2887 -0.1541  0.1994
  142DOPC   H6R16813   4.626   3.234   6.173 -0.7949 -2.0674 -1.8087
  142DOPC   H6S16814   4.629   3.300   6.015 -0.4824  2.7906 -0.4427
  142DOPC   C2716815   4.425   3.284   6.134  0.0291 -0.4926 -0.3401
  142DOPC   H7R16816   4.394   3.294   6.240  0.5740 -0.7050 -0.1547
  142DOPC   H7S16817   4.411   3.177   6.107 -0.6902 -0.4494 -0.1561
  142DOPC   C2816818   4.330   3.374   6.050  0.1204 -0.1941  0.5451
  142DOPC   H8R16819   4.357   3.479   6.076 -0.6266  0.2452 -0.3894
  142DOPC   H8S16820   4.231   3.363   6.099 -0.9781  1.0379 -1.2731
  142DOPC   C2916821   4.305   3.346   5.900  0.0904  0.5656 -0.2860
  142DOPC   H9R16822   4.253   3.250   5.890 -0.5528  0.9638 -0.8922
  142DOPC  C21016823   4.329   3.420   5.800  0.4672 -0.6227  0.8283
  142DOPC  H10R16824   4.294   3.389   5.700 -1.9832 -0.6641  1.6349
  142DOPC  C21116825   4.406   3.552   5.810 -0.0215 -0.4065 -0.0095
  142DOPC  H11R16826   4.506   3.541   5.857 -0.5389  0.5483  1.3568
  142DOPC  H11S16827   4.342   3.627   5.860  1.3916  1.1510 -0.4554
  142DOPC  C21216828   4.432   3.623   5.674 -0.6229  0.1986 -0.4184
  142DOPC  H12R16829   4.461   3.728   5.694 -0.9666 -0.0599  1.5869
  142DOPC  H12S16830   4.353   3.616   5.596  0.4483  1.8076 -1.7027
  142DOPC  C21316831   4.559   3.573   5.598  0.8724 -0.3633  0.2357
  142DOPC  H13R16832   4.647   3.629   5.637  1.2562 -1.8619  1.6517
  142DOPC  H13S16833   4.536   3.613   5.498 -1.8018  2.8167  1.9174
  142DOPC  C21416834   4.604   3.432   5.590  0.0439  0.1787  0.3004
  142DOPC  H14R16835   4.517   3.364   5.580  0.5947 -0.4354 -0.5542
  142DOPC  H14S16836   4.652   3.394   5.683  0.2539 -1.2490 -0.3591
  142DOPC  C21516837   4.705   3.406   5.479 -0.2268  0.1472 -0.1380
  142DOPC  H15R16838   4.785   3.483   5.489 -0.0184  0.0451 -0.9632
  142DOPC  H15S16839   4.656   3.426   5.382 -1.8941 -1.2550  0.3670
  142DOPC  C21616840   4.767   3.265   5.478  0.0565 -0.4959 -0.1994
  142DOPC  H16R16841   4.802   3.242   5.581  0.4326 -1.2110 -0.4830
  142DOPC  H16S16842   4.859   3.279   5.418  0.4412 -1.0604  0.2464
  142DOPC  C21716843   4.677   3.154   5.419 -0.2768 -0.1874  0.3424
  142DOPC  H17R16844   4.652   3.172   5.312 -0.3438  1.7868  0.6431
  142DOPC  H17S16845   4.575   3.159   5.461 -0.0065  1.5928  0.8780
  142DOPC  C21816846   4.744   3.017   5.428  0.0755 -0.0592 -0.4347
  142DOPC  H18R16847   4.753   2.991   5.536  0.8628 -0.8764 -0.6881
  142DOPC  H18S16848   4.844   3.017   5.380  0.9431 -0.9011  1.2873
  142DOPC  H18T16849   4.685   2.936   5.380  0.2385  0.2813 -1.2258
  142DOPC   C3316850   5.204   3.942   5.919  0.8668  0.2685 -0.2423
  142DOPC   H3X16851   5.135   4.026   5.896  0.8902  0.2062 -0.5451
  142DOPC   H3Y16852   5.147   3.847   5.934 -1.5608  1.6780 -0.0275
  142DOPC   C3416853   5.303   3.932   5.806 -0.0120 -0.2354 -0.6942
  142DOPC   H4X16854   5.374   4.018   5.812  2.0723 -1.8583 -0.9118
  142DOPC   H4Y16855   5.246   3.940   5.711  0.7782  1.0025 -1.0995
  142DOPC   C3516856   5.387   3.803   5.800  0.2558 -0.8123 -0.0605
  142DOPC   H5X16857   5.321   3.718   5.829 -0.5902  0.6311  2.5297
  142DOPC   H5Y16858   5.477   3.809   5.865  1.2537 -2.1281 -1.2571
  142DOPC   C3616859   5.457   3.782   5.658  0.3982 -0.7839  0.1867
  142DOPC   H6X16860   5.381   3.791   5.578 -0.7296 -1.0189  1.1907
  142DOPC   H6Y16861   5.528   3.866   5.645  0.5468 -0.9708 -0.2416
  142DOPC   C3716862   5.532   3.653   5.633 -0.3605  0.5726 -0.4891
  142DOPC   H7X16863   5.610   3.631   5.709 -0.4578 -1.1931 -0.8466
  142DOPC   H7Y16864   5.467   3.566   5.660  1.5562 -0.5673  0.6941
  142DOPC   C3816865   5.599   3.647   5.493 -0.5338  0.3282  0.2403
  142DOPC   H8X16866   5.679   3.724   5.495 -0.9821  0.8006  0.4035
  142DOPC   H8Y16867   5.532   3.697   5.419 -0.2101  0.0519 -0.2404
  142DOPC   C3916868   5.657   3.515   5.437  0.0578 -0.7728 -0.0279
  142DOPC   H9X16869   5.764   3.516   5.464 -0.0291  1.0827  0.3814
  142DOPC  C31016870   5.603   3.410   5.371 -0.6578 -0.2880  0.1761
  142DOPC  H10X16871   5.665   3.328   5.331  1.8256 -0.1251  3.3131
  142DOPC  C31116872   5.458   3.398   5.329  0.9636 -0.1057  0.5867
  142DOPC  H11X16873   5.455   3.327   5.244  0.2360  1.8024 -1.0730
  142DOPC  H11Y16874   5.423   3.500   5.300 -0.3945 -0.1815  1.8400
  142DOPC  C31216875   5.390   3.330   5.445  0.1410  0.1472 -0.7242
  142DOPC  H12X16876   5.427   3.374   5.540 -1.1870  1.4398 -0.7830
  142DOPC  H12Y16877   5.411   3.222   5.463 -0.8910 -0.1415 -1.2072
  142DOPC  C31316878   5.235   3.353   5.452 -0.3071  0.1774  0.4309
  142DOPC  H13X16879   5.212   3.461   5.440 -2.1642 -0.4190 -2.3212
  142DOPC  H13Y16880   5.198   3.301   5.362  2.3860 -0.6592 -0.3055
  142DOPC  C31416881   5.161   3.282   5.565  0.0535 -0.1824 -0.2118
  142DOPC  H14X16882   5.076   3.230   5.515  1.1788 -1.1931 -1.1325
  142DOPC  H14Y16883   5.227   3.201   5.602  2.5427  1.7416 -0.1581
  142DOPC  C31516884   5.121   3.365   5.687  0.7252 -0.0743 -0.2484
  142DOPC  H15X16885   5.214   3.389   5.743  0.6661 -1.7399  0.6210
  142DOPC  H15Y16886   5.062   3.312   5.765  0.8899  0.1566  0.0362
  142DOPC  C31616887   5.035   3.495   5.655 -0.3412 -0.0165 -0.4294
  142DOPC  H16X16888   5.077   3.576   5.591 -1.0623  0.4532 -0.3184
  142DOPC  H16Y16889   4.932   3.464   5.629 -1.1051  0.7898  1.4342
  142DOPC  C31716890   5.021   3.588   5.780 -0.2997  0.3191  0.2638
  142DOPC  H17X16891   4.996   3.521   5.865 -1.5209  0.9154  0.3884
  142DOPC  H17Y16892   5.123   3.624   5.806 -0.1306 -0.8291  1.3110
  142DOPC  C31816893   4.916   3.698   5.773  0.5026 -0.3552 -0.6506
  142DOPC  H18X16894   4.918   3.776   5.851 -2.3203 -0.2872 -0.5643
  142DOPC  H18Y16895   4.931   3.756   5.679  1.6819  0.0007 -0.2629
  142DOPC  H18Z16896   4.814   3.654   5.777  1.0380 -1.8010 -1.5990
  143DOPC     N16897   1.381   4.254   6.947 -0.4531 -0.7184 -0.0573
  143DOPC   C1216898   1.440   4.292   6.806 -0.1922  0.2879 -0.2781
  143DOPC  H12A16899   1.531   4.351   6.808  0.1099 -0.1817  0.6432
  143DOPC  H12B16900   1.369   4.357   6.758  1.0031  1.4940 -0.4761
  143DOPC   C1316901   1.375   4.381   7.036  0.1511 -0.0213  0.0984
  143DOPC  H13A16902   1.321   4.351   7.124 -0.4873  1.4123  0.2241
  143DOPC  H13B16903   1.466   4.429   7.068 -0.4979  0.1718  1.7351
  143DOPC  H13C16904   1.316   4.456   6.985 -2.0399 -0.8821  1.2087
  143DOPC   C1416905   1.478   4.155   7.011  0.2799 -0.3500  0.0323
  143DOPC  H14A16906   1.538   4.106   6.935 -1.1532  0.6158 -1.7987
  143DOPC  H14B16907   1.549   4.204   7.077  0.1636 -0.8469  0.5280
  143DOPC  H14C16908   1.427   4.081   7.070  0.8617  0.2520  1.3291
  143DOPC   C1516909   1.244   4.191   6.925  0.2776  0.5115  0.5442
  143DOPC  H15A16910   1.178   4.267   6.887 -2.0485 -1.7743 -0.2355
  143DOPC  H15B16911   1.209   4.150   7.019  1.4784 -0.2943  0.6714
  143DOPC  H15C16912   1.252   4.117   6.847 -2.0406  0.9925 -0.2129
  143DOPC   C1116913   1.466   4.178   6.707  0.4284  0.4403  0.3521
  143DOPC  H11A16914   1.372   4.118   6.699  0.0602  1.0735 -0.1507
  143DOPC  H11B16915   1.475   4.221   6.605  1.1496 -0.3826  0.0568
  143DOPC     P16916   1.728   4.144   6.735  0.4167 -0.0698 -0.1458
  143DOPC   O1316917   1.784   4.108   6.864 -0.6865  0.4130  0.1214
  143DOPC   O1416918   1.737   4.289   6.694 -0.9274  0.0984  0.0110
  143DOPC   O1216919   1.577   4.098   6.743 -0.0809  0.7819 -0.1424
  143DOPC   O1116920   1.795   4.056   6.620  0.4314 -0.0356 -0.4366
  143DOPC    C116921   1.714   4.046   6.502  0.5062  0.2389  0.3033
  143DOPC    HA16922   1.687   4.147   6.463 -0.4620  0.3397  1.1891
  143DOPC    HB16923   1.620   3.994   6.530  2.2367 -2.0769  2.1454
  143DOPC    C216924   1.786   3.976   6.389  0.2208 -1.2331 -0.2134
  143DOPC    HS16925   1.716   3.955   6.306 -0.7805  1.8856 -0.2696
  143DOPC   O2116926   1.839   3.850   6.432 -0.1921 -0.0000 -0.3192
  143DOPC   C2116927   1.756   3.742   6.448  0.3033 -0.3178  0.0743
  143DOPC   O2216928   1.634   3.750   6.446 -0.3523  0.5854 -0.5338
  143DOPC   C2216929   1.835   3.616   6.463 -0.1070  0.3836 -0.3286
  143DOPC   H2R16930   1.860   3.603   6.571  1.0723 -1.7173 -0.8100
  143DOPC   H2S16931   1.931   3.626   6.408  0.9391 -0.6005  1.2345
  143DOPC    C316932   1.901   4.060   6.321  0.2547 -0.2757  0.3038
  143DOPC    HX16933   1.984   4.076   6.392 -1.0839 -0.7207  2.0569
  143DOPC    HY16934   1.858   4.158   6.291 -1.8446 -1.0609  0.5626
  143DOPC   O3116935   1.964   3.979   6.210 -0.6672 -0.1050 -0.3872
  143DOPC   C3116936   1.906   3.988   6.095 -0.9832  0.5246  0.4636
  143DOPC   O3216937   1.806   4.050   6.070  0.6149 -0.1376  0.1416
  143DOPC   C3216938   1.975   3.901   5.997 -0.6624 -0.1331 -0.1380
  143DOPC   H2X16939   2.061   3.847   6.044 -0.1385 -1.7017 -2.6708
  143DOPC   H2Y16940   1.895   3.827   5.973 -0.5026 -1.0716  2.0047
  143DOPC   C2316941   1.758   3.490   6.427 -0.0297  0.4388  0.6163
  143DOPC   H3R16942   1.660   3.482   6.479  0.4231 -2.8855  1.1952
  143DOPC   H3S16943   1.814   3.400   6.461 -1.4874 -0.4274  0.8300
  143DOPC   C2416944   1.734   3.481   6.268  0.5347 -0.7476 -0.0400
  143DOPC   H4R16945   1.677   3.572   6.238 -0.0032 -0.7227  1.0086
  143DOPC   H4S16946   1.663   3.397   6.252  0.8644 -1.7009  2.8618
  143DOPC   C2516947   1.864   3.480   6.183 -0.8704 -0.0733 -0.2614
  143DOPC   H5R16948   1.921   3.394   6.225 -0.8146 -0.9172 -1.9415
  143DOPC   H5S16949   1.929   3.568   6.194  1.1736 -1.5981  0.4102
  143DOPC   C2616950   1.857   3.434   6.042 -0.1325  0.1149  0.2737
  143DOPC   H6R16951   1.818   3.332   6.027 -0.7316  0.7546 -3.7343
  143DOPC   H6S16952   1.953   3.411   5.991 -0.5413  0.0017 -0.4516
  143DOPC   C2716953   1.784   3.531   5.959 -0.5869 -0.7484  0.8703
  143DOPC   H7R16954   1.823   3.633   5.978 -0.4580 -0.9823  1.9873
  143DOPC   H7S16955   1.679   3.536   5.996 -0.4831  2.0062  1.0008
  143DOPC   C2816956   1.785   3.500   5.808  0.0172  0.0631 -0.3635
  143DOPC   H8R16957   1.766   3.391   5.799  2.7367 -0.5210  0.0251
  143DOPC   H8S16958   1.888   3.517   5.768  0.7262 -0.4346  1.1702
  143DOPC   C2916959   1.692   3.581   5.717  0.3678  0.1530 -0.0675
  143DOPC   H9R16960   1.677   3.684   5.752 -0.2397  0.5518 -1.4388
  143DOPC  C21016961   1.639   3.555   5.598 -0.0467 -0.4752  0.5888
  143DOPC  H10R16962   1.564   3.625   5.557 -0.5746 -0.3130  1.8130
  143DOPC  C21116963   1.664   3.423   5.527 -0.1458  0.0659  0.8064
  143DOPC  H11R16964   1.733   3.354   5.580 -3.1903 -1.1467  3.5063
  143DOPC  H11S16965   1.699   3.438   5.422  1.7912 -0.2798  1.3550
  143DOPC  C21216966   1.534   3.342   5.522 -0.7595  0.0062 -0.1667
  143DOPC  H12R16967   1.449   3.410   5.496 -1.7152 -1.2639 -0.4908
  143DOPC  H12S16968   1.517   3.297   5.622  1.5120 -1.9308 -0.5707
  143DOPC  C21316969   1.543   3.227   5.423 -0.3688 -0.4464 -0.2361
  143DOPC  H13R16970   1.646   3.188   5.438  0.0049  0.2556 -0.8773
  143DOPC  H13S16971   1.533   3.286   5.330 -0.0977  2.7135  1.5769
  143DOPC  C21416972   1.440   3.117   5.439  0.1275 -0.3888 -0.1278
  143DOPC  H14R16973   1.342   3.165   5.459  0.1513  0.4622 -1.8205
  143DOPC  H14S16974   1.468   3.062   5.531 -0.9109  0.9830  1.0310
  143DOPC  C21516975   1.434   3.030   5.312  0.2701  0.8187  0.0329
  143DOPC  H15R16976   1.535   3.011   5.271 -0.0261 -2.3452  0.4917
  143DOPC  H15S16977   1.373   3.086   5.238 -0.8109 -1.3995 -0.8319
  143DOPC  C21616978   1.377   2.892   5.335 -0.3422  0.0090 -0.8726
  143DOPC  H16R16979   1.273   2.905   5.371 -1.1401 -0.3059 -2.8909
  143DOPC  H16S16980   1.440   2.851   5.416 -2.5652  1.4440  1.7305
  143DOPC  C21716981   1.389   2.798   5.219 -0.2556 -0.8073  0.0767
  143DOPC  H17R16982   1.495   2.782   5.187 -0.1265 -2.5396  1.1921
  143DOPC  H17S16983   1.326   2.846   5.142 -0.2200 -0.1635  0.4450
  143DOPC  C21816984   1.318   2.662   5.247  0.4615  0.0278  0.4235
  143DOPC  H18R16985   1.383   2.608   5.319  2.2821  0.9476 -0.4595
  143DOPC  H18S16986   1.314   2.597   5.157  2.0983 -0.7309  0.8466
  143DOPC  H18T16987   1.210   2.663   5.272  0.0265 -1.4275 -1.1574
  143DOPC   C3316988   2.036   3.970   5.880  0.5178  0.5236  0.0470
  143DOPC   H3X16989   2.109   4.050   5.907 -1.9185  2.4984  1.1782
  143DOPC   H3Y16990   1.949   4.015   5.828 -1.0706  2.3919  3.9005
  143DOPC   C3416991   2.107   3.875   5.779  0.2705  0.2514 -0.2487
  143DOPC   H4X16992   2.035   3.796   5.750  1.5617 -1.5990  1.3430
  143DOPC   H4Y16993   2.192   3.827   5.833  0.0087 -0.0760 -0.1271
  143DOPC   C3516994   2.153   3.955   5.655 -0.2555  0.1367 -0.6325
  143DOPC   H5X16995   2.209   4.046   5.685  0.3527 -0.5887  0.4917
  143DOPC   H5Y16996   2.061   3.992   5.604 -0.9880 -0.1107  0.4678
  143DOPC   C3616997   2.234   3.877   5.542  0.3784  0.0906 -0.1529
  143DOPC   H6X16998   2.329   3.933   5.526 -1.6632  3.3884 -1.7242
  143DOPC   H6Y16999   2.263   3.778   5.583  1.8663 -0.6731 -2.8161
  143DOPC   C3717000   2.152   3.841   5.420  0.8830 -0.0279 -0.4281
  143DOPC   H7X17001   2.121   3.937   5.373  0.0830  0.1487  0.4143
  143DOPC   H7Y17002   2.215   3.783   5.350  2.5726 -2.1086  2.5670
  143DOPC   C3817003   2.019   3.757   5.452 -0.9682 -0.2724  0.0127
  143DOPC   H8X17004   1.953   3.819   5.517 -1.5133  1.1319 -1.7931
  143DOPC   H8Y17005   2.056   3.670   5.511  0.9473  0.2422 -0.3574
  143DOPC   C3917006   1.945   3.699   5.333  0.3799 -0.5921  0.3684
  143DOPC   H9X17007   1.897   3.776   5.271  0.0636 -1.5670 -0.6204
  143DOPC  C31017008   1.951   3.578   5.274  0.4093 -0.1825  0.5231
  143DOPC  H10X17009   1.914   3.559   5.172 -0.5398  1.3588  0.5486
  143DOPC  C31117010   2.022   3.457   5.343  0.3601 -0.3085 -0.2944
  143DOPC  H11X17011   1.942   3.385   5.373  1.9542 -1.7925  0.5626
  143DOPC  H11Y17012   2.061   3.478   5.445 -1.5120 -1.7876  0.8065
  143DOPC  C31217013   2.120   3.393   5.243 -0.1047  0.9116  0.1258
  143DOPC  H12X17014   2.164   3.305   5.295 -0.5047  0.0606 -0.9344
  143DOPC  H12Y17015   2.201   3.466   5.222 -1.0751  2.5736  1.8205
  143DOPC  C31317016   2.065   3.336   5.113  0.3298  0.0043  0.8913
  143DOPC  H13X17017   2.038   3.421   5.047 -0.1180 -0.9896 -0.2601
  143DOPC  H13Y17018   2.146   3.290   5.052  0.0519  2.2161 -1.2736
  143DOPC  C31417019   1.950   3.242   5.127 -0.5451 -0.2252 -0.1764
  143DOPC  H14X17020   1.959   3.186   5.222  1.8791  1.4697  0.6973
  143DOPC  H14Y17021   1.856   3.300   5.143 -0.2704  0.4166 -0.8413
  143DOPC  C31517022   1.937   3.142   5.009 -0.3386 -0.6898 -0.4188
  143DOPC  H15X17023   2.019   3.069   5.021  2.1439  2.2479  1.8741
  143DOPC  H15Y17024   1.959   3.198   4.915  3.1046 -0.1822  0.5602
  143DOPC  C31617025   1.794   3.087   5.001 -1.2525 -0.4254  0.3233
  143DOPC  H16X17026   1.770   3.066   5.107  0.7097 -1.9800  0.5142
  143DOPC  H16Y17027   1.732   3.165   4.951  1.1850  0.4327 -1.5427
  143DOPC  C31717028   1.789   2.958   4.913 -0.2760  0.1913  0.0036
  143DOPC  H17X17029   1.685   2.917   4.921 -1.0104  1.7435 -1.1472
  143DOPC  H17Y17030   1.808   2.979   4.806  1.9630 -0.6705  0.1837
  143DOPC  C31817031   1.890   2.843   4.958  0.2417 -0.1019 -0.3978
  143DOPC  H18X17032   1.881   2.830   5.068  1.8682 -0.3277 -0.2558
  143DOPC  H18Y17033   1.872   2.749   4.902  0.1056 -0.9847  1.0757
  143DOPC  H18Z17034   1.994   2.871   4.930  0.3025 -0.7260 -0.8292
  144DOPC     N17035   3.274   2.501   7.027 -0.2033  1.2183  0.0954
  144DOPC   C1217036   3.404   2.564   7.027 -0.8278  0.2635  0.3231
  144DOPC  H12A17037   3.421   2.616   7.120  0.2270 -0.1217  0.3562
  144DOPC  H12B17038   3.407   2.651   6.962 -1.8712  1.7318  2.1202
  144DOPC   C1317039   3.171   2.601   7.022  0.0025 -0.0913  0.3225
  144DOPC  H13A17040   3.187   2.679   7.095 -2.7581  0.8048  0.0753
  144DOPC  H13B17041   3.170   2.656   6.929 -0.8731 -2.5575 -1.2175
  144DOPC  H13C17042   3.070   2.565   7.035 -0.7588  2.1855  1.2608
  144DOPC   C1417043   3.256   2.412   7.144  0.2465  0.4607 -0.2761
  144DOPC  H14A17044   3.345   2.352   7.158  0.2316  0.5020 -0.0075
  144DOPC  H14B17045   3.233   2.464   7.235 -2.8782 -1.8712  0.4443
  144DOPC  H14C17046   3.166   2.361   7.114  0.3414  0.7035 -0.9872
  144DOPC   C1517047   3.267   2.405   6.911 -0.1476 -0.0203 -0.0078
  144DOPC  H15A17048   3.170   2.357   6.904 -0.3001  0.1059  1.0969
  144DOPC  H15B17049   3.344   2.330   6.927  0.0321  0.2683  0.4954
  144DOPC  H15C17050   3.286   2.451   6.815 -0.3033 -0.0466 -0.0518
  144DOPC   C1117051   3.519   2.468   7.006 -0.8636 -0.1239  0.3198
  144DOPC  H11A17052   3.517   2.402   6.916  1.1342  0.6897 -0.3848
  144DOPC  H11B17053   3.606   2.534   6.986  0.0140 -1.1183  0.7146
  144DOPC     P17054   3.598   2.246   7.125 -0.5080  0.0263  0.1361
  144DOPC   O1317055   3.476   2.174   7.107  0.6190 -0.7438 -0.3485
  144DOPC   O1417056   3.676   2.226   7.249  0.1055 -0.2098  0.1001
  144DOPC   O1217057   3.553   2.398   7.121  0.0771  0.2472 -0.2992
  144DOPC   O1117058   3.693   2.232   6.996 -1.0227 -0.4127 -0.0970
  144DOPC    C117059   3.820   2.303   7.013 -0.1534  0.4328  0.2721
  144DOPC    HA17060   3.905   2.231   7.007 -0.2063  0.2553  1.4300
  144DOPC    HB17061   3.843   2.374   7.096 -1.4309  0.4543  0.6287
  144DOPC    C217062   3.853   2.391   6.884 -0.0200  0.7281 -0.3865
  144DOPC    HS17063   3.779   2.473   6.883  1.7084  2.3624 -2.3347
  144DOPC   O2117064   3.853   2.303   6.768  0.1687  0.4731 -0.4067
  144DOPC   C2117065   3.749   2.315   6.690  0.4594 -0.2828  0.0351
  144DOPC   O2217066   3.667   2.407   6.685  0.6417 -0.0743 -0.6067
  144DOPC   C2217067   3.727   2.193   6.606  0.4320  0.4175  0.1469
  144DOPC   H2R17068   3.634   2.202   6.545  0.1894 -0.9447  0.2801
  144DOPC   H2S17069   3.708   2.113   6.680 -0.1707  0.8783  0.4972
  144DOPC    C317070   3.991   2.454   6.906 -0.2255 -0.2192  0.0066
  144DOPC    HX17071   4.059   2.369   6.882 -0.9074 -0.9378  0.5902
  144DOPC    HY17072   4.001   2.488   7.011 -5.3574 -1.6426  1.1937
  144DOPC   O3117073   4.012   2.562   6.809  0.0124  0.0161  0.0165
  144DOPC   C3117074   4.048   2.680   6.850 -0.0593  1.1246  0.4573
  144DOPC   O3217075   4.065   2.715   6.964 -0.6189  0.0439 -0.2840
  144DOPC   C3217076   4.075   2.756   6.725 -0.3879  0.0647  0.3527
  144DOPC   H2X17077   4.004   2.732   6.643  0.5302 -1.0938 -0.1445
  144DOPC   H2Y17078   4.078   2.864   6.751  2.2523 -0.0209  0.6726
  144DOPC   C2317079   3.849   2.160   6.514  0.2602  0.0516  0.3057
  144DOPC   H3R17080   3.842   2.054   6.482 -1.0985 -0.0433  0.8848
  144DOPC   H3S17081   3.944   2.166   6.572  1.3916 -2.1975 -1.1308
  144DOPC   C2417082   3.854   2.251   6.388  0.7244 -0.0100 -0.4018
  144DOPC   H4R17083   3.850   2.350   6.438  1.6228 -1.1136  2.0158
  144DOPC   H4S17084   3.769   2.250   6.316  0.4505  0.5829 -0.0941
  144DOPC   C2517085   3.983   2.230   6.311 -0.3229 -0.3966 -0.2396
  144DOPC   H5R17086   4.067   2.238   6.382 -0.5752 -0.9957  0.1372
  144DOPC   H5S17087   3.991   2.309   6.233 -0.1627 -1.1006 -0.9560
  144DOPC   C2617088   3.996   2.096   6.242  0.0071  0.0675 -0.4686
  144DOPC   H6R17089   4.006   2.018   6.321  0.7700  1.7747  1.1915
  144DOPC   H6S17090   4.077   2.104   6.167 -1.4816  1.3737 -2.0194
  144DOPC   C2717091   3.884   2.046   6.157 -0.4977 -0.2006 -0.7890
  144DOPC   H7R17092   3.802   2.026   6.229  0.9051  0.4622  1.0742
  144DOPC   H7S17093   3.919   1.946   6.123  0.3473 -0.5690  1.0386
  144DOPC   C2817094   3.832   2.137   6.049  0.3066  0.1155 -0.1139
  144DOPC   H8R17095   3.820   2.239   6.092  0.4269  0.0611  0.0494
  144DOPC   H8S17096   3.736   2.088   6.025 -0.2740  0.9282  0.4738
  144DOPC   C2917097   3.932   2.146   5.938 -0.8394  0.3460 -0.8970
  144DOPC   H9R17098   4.007   2.219   5.970  0.7260 -1.4169 -0.3720
  144DOPC  C21017099   3.942   2.077   5.825 -0.0418  0.8877  0.1277
  144DOPC  H10R17100   4.038   2.076   5.771  0.3802  0.2197  0.8578
  144DOPC  C21117101   3.855   1.971   5.770 -0.4354  1.2737 -0.2425
  144DOPC  H11R17102   3.814   1.991   5.669  0.0430 -2.0096 -1.1977
  144DOPC  H11S17103   3.767   1.957   5.836 -0.3884  1.6987 -0.0876
  144DOPC  C21217104   3.930   1.837   5.770 -0.5566  0.6736 -0.2892
  144DOPC  H12R17105   3.850   1.770   5.733  0.0391 -0.4635  0.4342
  144DOPC  H12S17106   3.961   1.809   5.873 -0.4476  1.4125 -0.1140
  144DOPC  C21317107   4.050   1.826   5.677  0.1475  0.2116 -0.1702
  144DOPC  H13R17108   4.077   1.720   5.656 -4.1445 -1.1538  0.3167
  144DOPC  H13S17109   4.144   1.871   5.715  0.0108 -1.0743  1.8674
  144DOPC  C21417110   4.026   1.868   5.529  0.7244 -0.3356  0.4038
  144DOPC  H14R17111   4.002   1.976   5.518  1.8036 -0.2466 -1.7464
  144DOPC  H14S17112   3.940   1.811   5.490 -0.5566  2.3987 -1.0529
  144DOPC  C21517113   4.149   1.825   5.446 -0.1616 -0.0990 -0.2878
  144DOPC  H15R17114   4.162   1.715   5.449 -2.1538 -0.3697  2.6974
  144DOPC  H15S17115   4.233   1.882   5.492 -1.1189  2.3623 -1.4027
  144DOPC  C21617116   4.143   1.879   5.298 -0.3787  0.5853 -0.1128
  144DOPC  H16R17117   4.244   1.887   5.251 -0.1245  0.5391  0.4109
  144DOPC  H16S17118   4.106   1.983   5.298  1.9974  1.5437  1.7037
  144DOPC  C21717119   4.043   1.805   5.206  0.3312  0.2596  0.7390
  144DOPC  H17R17120   4.028   1.868   5.116  0.9974 -0.4764  0.0991
  144DOPC  H17S17121   3.947   1.781   5.257 -1.2109  0.8880 -1.7011
  144DOPC  C21817122   4.105   1.675   5.167  0.7786 -0.6793  0.5251
  144DOPC  H18R17123   4.202   1.695   5.115  0.3843  2.2273  0.7246
  144DOPC  H18S17124   4.037   1.628   5.092 -0.9354  0.8310  1.0595
  144DOPC  H18T17125   4.115   1.622   5.264 -0.2176 -0.4094  0.7837
  144DOPC   C3317126   4.227   2.734   6.688  1.1423  0.3910  0.0988
  144DOPC   H3X17127   4.241   2.624   6.685 -2.3075 -0.1699 -2.7320
  144DOPC   H3Y17128   4.296   2.781   6.761  0.0893  1.6848  0.3179
  144DOPC   C3417129   4.240   2.804   6.550 -0.4816  0.7660 -0.7337
  144DOPC   H4X17130   4.345   2.799   6.515 -0.2776  1.4556 -0.2288
  144DOPC   H4Y17131   4.224   2.914   6.546  0.9650  1.0015 -0.3055
  144DOPC   C3517132   4.153   2.747   6.433 -0.6512 -0.4046 -0.2111
  144DOPC   H5X17133   4.190   2.796   6.340  0.3031 -0.8128 -0.0584
  144DOPC   H5Y17134   4.052   2.793   6.446 -0.3555 -0.0968  1.1247
  144DOPC   C3617135   4.140   2.591   6.419  0.1458  0.0731 -0.9814
  144DOPC   H6X17136   4.126   2.555   6.523  3.4250  1.6290  0.1260
  144DOPC   H6Y17137   4.043   2.591   6.365 -0.6083  0.6763  0.3306
  144DOPC   C3717138   4.259   2.515   6.352 -0.4650 -0.2950  0.2939
  144DOPC   H7X17139   4.351   2.531   6.412 -0.8661 -1.7252  1.3618
  144DOPC   H7Y17140   4.235   2.407   6.363 -0.9288 -0.1786  0.4628
  144DOPC   C3817141   4.261   2.544   6.202 -0.5325 -0.4343  0.4151
  144DOPC   H8X17142   4.270   2.653   6.179  0.4059 -0.0370  2.4590
  144DOPC   H8Y17143   4.160   2.517   6.163 -0.6435 -0.0835  0.4528
  144DOPC   C3917144   4.380   2.478   6.135 -0.4857  1.2256 -0.6944
  144DOPC   H9X17145   4.465   2.440   6.195 -0.7095 -3.2660 -2.8071
  144DOPC  C31017146   4.392   2.466   6.002  0.4804  0.5581 -0.0014
  144DOPC  H10X17147   4.470   2.398   5.965 -0.3152 -0.5892  0.3429
  144DOPC  C31117148   4.298   2.512   5.893  0.5300  0.2929 -0.2853
  144DOPC  H11X17149   4.360   2.579   5.829  1.8025  0.2761  0.8819
  144DOPC  H11Y17150   4.217   2.577   5.933  0.5901  1.7350 -2.3541
  144DOPC  C31217151   4.242   2.388   5.825  0.7344  0.2732 -0.1780
  144DOPC  H12X17152   4.143   2.408   5.781  0.9516  0.5883 -0.5259
  144DOPC  H12Y17153   4.225   2.304   5.896 -3.1220  0.4329 -0.7282
  144DOPC  C31317154   4.335   2.341   5.716  0.4900 -0.0088 -0.1214
  144DOPC  H13X17155   4.350   2.426   5.646 -0.4741 -0.2709 -0.6661
  144DOPC  H13Y17156   4.436   2.324   5.758  0.4248 -1.9981 -0.6942
  144DOPC  C31417157   4.273   2.223   5.642 -1.0735  0.1862 -0.2623
  144DOPC  H14X17158   4.268   2.137   5.712  1.0804  0.4900  0.3434
  144DOPC  H14Y17159   4.170   2.243   5.607 -0.2072  2.9679 -1.4963
  144DOPC  C31517160   4.364   2.181   5.521  0.3438  0.7837  0.3446
  144DOPC  H15X17161   4.320   2.091   5.472  1.3945  0.5504 -0.2082
  144DOPC  H15Y17162   4.465   2.154   5.560 -0.0785 -0.5570  0.5620
  144DOPC  C31617163   4.382   2.274   5.399 -0.2389 -1.1514  0.2727
  144DOPC  H16X17164   4.287   2.302   5.349  1.6317  0.7935 -2.4163
  144DOPC  H16Y17165   4.399   2.373   5.448  1.2389 -0.4922 -1.4695
  144DOPC  C31717166   4.485   2.230   5.297 -0.0214 -0.4482 -0.7838
  144DOPC  H17X17167   4.591   2.238   5.331 -0.1169 -0.9024 -0.3677
  144DOPC  H17Y17168   4.475   2.121   5.278 -0.6163 -0.2271 -1.7733
  144DOPC  C31817169   4.468   2.300   5.162  0.1461 -0.0669  1.1043
  144DOPC  H18X17170   4.376   2.259   5.117 -0.8498  2.2415  0.8685
  144DOPC  H18Y17171   4.453   2.409   5.182 -0.4038 -0.0676  0.7138
  144DOPC  H18Z17172   4.552   2.273   5.094 -2.8043 -1.7690 -2.1579
  145DOPC     N17173   3.357   5.282   7.105 -0.3515 -0.7944  0.2855
  145DOPC   C1217174   3.235   5.199   7.149 -0.1351  0.7069  0.0344
  145DOPC  H12A17175   3.216   5.135   7.064  0.7959  0.0423  0.3133
  145DOPC  H12B17176   3.148   5.263   7.159  0.5518  1.6844 -0.1312
  145DOPC   C1317177   3.315   5.339   6.973 -0.1532 -0.1584 -0.6084
  145DOPC  H13A17178   3.217   5.378   6.996 -0.6486 -0.8598 -1.4894
  145DOPC  H13B17179   3.392   5.400   6.928  0.1556 -1.3864 -1.8209
  145DOPC  H13C17180   3.312   5.263   6.896 -1.0167 -0.9848  0.2195
  145DOPC   C1417181   3.471   5.190   7.076  0.3093 -0.4376 -0.0410
  145DOPC  H14A17182   3.568   5.228   7.048  0.1645 -0.8437 -1.1339
  145DOPC  H14B17183   3.485   5.127   7.163 -0.8695 -0.4048  0.1881
  145DOPC  H14C17184   3.431   5.128   6.998  0.5467  0.5272 -0.9543
  145DOPC   C1517185   3.397   5.381   7.197  0.4620  0.3438  0.1730
  145DOPC  H15A17186   3.466   5.455   7.160  1.0958  0.6216  1.8446
  145DOPC  H15B17187   3.444   5.322   7.274  0.9889 -2.2629 -2.0072
  145DOPC  H15C17188   3.312   5.437   7.234 -0.5064  0.4461 -2.0451
  145DOPC   C1117189   3.253   5.111   7.276 -0.3159 -0.1987  0.4402
  145DOPC  H11A17190   3.284   5.184   7.353 -1.4574  1.3012 -0.4757
  145DOPC  H11B17191   3.157   5.065   7.311 -0.6744 -0.3042 -0.6615
  145DOPC     P17192   3.317   4.883   7.175  0.1076 -0.2390  0.2372
  145DOPC   O1317193   3.274   4.930   7.041 -0.2012 -0.4906  0.5562
  145DOPC   O1417194   3.226   4.797   7.254 -0.0316  0.6089 -0.0458
  145DOPC   O1217195   3.355   5.012   7.263 -0.0891 -0.2119 -0.5888
  145DOPC   O1117196   3.447   4.800   7.163  0.1844 -0.1739  0.3651
  145DOPC    C117197   3.576   4.841   7.126 -0.2363  0.1213  0.4840
  145DOPC    HA17198   3.651   4.763   7.152 -1.1891 -1.2475 -0.6881
  145DOPC    HB17199   3.610   4.930   7.183 -0.8155  0.3410  0.4888
  145DOPC    C217200   3.585   4.849   6.973  0.5755 -0.0582 -0.1895
  145DOPC    HS17201   3.505   4.913   6.929  1.2268  0.8628 -0.0692
  145DOPC   O2117202   3.563   4.717   6.917 -0.4674  0.1759  0.3905
  145DOPC   C2117203   3.503   4.712   6.802  0.2200  0.0741  0.0298
  145DOPC   O2217204   3.462   4.808   6.734  0.5018 -0.5445 -0.0545
  145DOPC   C2217205   3.483   4.561   6.764 -0.1775  0.4839 -0.3857
  145DOPC   H2R17206   3.412   4.509   6.832 -0.4865  0.7502 -0.5003
  145DOPC   H2S17207   3.583   4.514   6.756  0.1218  1.1650 -0.7268
  145DOPC    C317208   3.726   4.893   6.917  0.4268 -0.5544 -0.6871
  145DOPC    HX17209   3.793   4.807   6.942 -0.6989 -1.5659 -1.0678
  145DOPC    HY17210   3.765   4.985   6.965 -0.0944 -0.0612 -1.2079
  145DOPC   O3117211   3.736   4.908   6.776 -0.5035  0.1793 -0.2757
  145DOPC   C3117212   3.700   5.030   6.729 -0.2575  0.6218  0.3619
  145DOPC   O3217213   3.669   5.123   6.801 -0.6026  0.3563  0.4093
  145DOPC   C3217214   3.696   5.024   6.572  0.2576  0.2124 -0.8656
  145DOPC   H2X17215   3.785   5.079   6.533 -2.2624  2.1900 -4.5437
  145DOPC   H2Y17216   3.704   4.915   6.556  0.7624 -0.2039  1.8262
  145DOPC   C2317217   3.427   4.555   6.624  0.4511  0.6179 -0.9295
  145DOPC   H3R17218   3.490   4.607   6.550  1.2710 -0.0490 -0.7210
  145DOPC   H3S17219   3.328   4.604   6.616 -0.2865 -0.6019  0.1661
  145DOPC   C2417220   3.398   4.411   6.576 -0.1745  0.6332  0.0044
  145DOPC   H4R17221   3.351   4.361   6.664  1.1696  1.2988  1.1345
  145DOPC   H4S17222   3.497   4.369   6.549  1.5063  3.2095  1.7240
  145DOPC   C2517223   3.290   4.415   6.469 -0.4216  0.9045  0.1517
  145DOPC   H5R17224   3.211   4.474   6.521  1.7088  1.2967  3.1905
  145DOPC   H5S17225   3.250   4.316   6.439 -2.4060  1.9743 -1.0049
  145DOPC   C2617226   3.343   4.484   6.341  0.1942  0.4533  0.3379
  145DOPC   H6R17227   3.420   4.416   6.299  1.7628  1.7131  1.0936
  145DOPC   H6S17228   3.399   4.579   6.354 -0.4836  0.7840  0.8854
  145DOPC   C2717229   3.233   4.526   6.241 -0.8014 -0.5593 -0.0091
  145DOPC   H7R17230   3.179   4.602   6.302 -0.9439 -0.9866  0.4069
  145DOPC   H7S17231   3.166   4.439   6.228 -1.3418 -0.5233  2.0932
  145DOPC   C2817232   3.286   4.570   6.104  0.0355 -0.0333  0.5616
  145DOPC   H8R17233   3.341   4.494   6.045  2.7287  1.0377  1.5470
  145DOPC   H8S17234   3.362   4.647   6.126  0.1627  0.5791 -1.7282
  145DOPC   C2917235   3.181   4.621   6.017  0.1882 -0.8530  0.5173
  145DOPC   H9R17236   3.080   4.598   6.054 -1.2476 -0.8170 -3.0247
  145DOPC  C21017237   3.189   4.690   5.905 -0.4684 -0.1614  0.0908
  145DOPC  H10R17238   3.105   4.735   5.850 -0.0769  0.9913  0.4038
  145DOPC  C21117239   3.319   4.714   5.829 -0.4714 -0.3031  0.3103
  145DOPC  H11R17240   3.365   4.614   5.823 -2.1809 -1.1454  0.4302
  145DOPC  H11S17241   3.377   4.796   5.878 -0.4298  0.3691 -0.8322
  145DOPC  C21217242   3.297   4.755   5.688  0.1820  0.0188  0.5314
  145DOPC  H12R17243   3.401   4.746   5.650  0.1681 -0.7002  0.6489
  145DOPC  H12S17244   3.251   4.855   5.671  1.1407  0.4382  0.3108
  145DOPC  C21317245   3.209   4.660   5.594  0.7211 -0.0134 -0.0085
  145DOPC  H13R17246   3.108   4.647   5.638  0.2285  2.8055 -0.1172
  145DOPC  H13S17247   3.259   4.561   5.590  1.2013  0.1394  1.4488
  145DOPC  C21417248   3.200   4.717   5.459 -0.3867 -0.8077  0.0282
  145DOPC  H14R17249   3.182   4.827   5.462 -0.7810 -0.7942 -1.6387
  145DOPC  H14S17250   3.109   4.673   5.414  0.2889 -1.6837 -0.5001
  145DOPC  C21517251   3.328   4.711   5.378 -0.5104 -0.4079 -0.1477
  145DOPC  H15R17252   3.403   4.782   5.419 -0.3604 -0.5420 -0.1874
  145DOPC  H15S17253   3.317   4.738   5.271 -0.8764 -2.1270 -0.5811
  145DOPC  C21617254   3.397   4.575   5.369 -0.0519 -0.3585 -0.3924
  145DOPC  H16R17255   3.319   4.504   5.334 -0.0631 -0.4558 -0.1742
  145DOPC  H16S17256   3.426   4.550   5.474 -1.8928  0.6716  0.4038
  145DOPC  C21717257   3.516   4.575   5.283 -0.4583  0.5389  0.2490
  145DOPC  H17R17258   3.578   4.661   5.315  0.1727  0.5221 -0.9183
  145DOPC  H17S17259   3.492   4.592   5.176 -0.0396 -0.4737 -0.0152
  145DOPC  C21817260   3.609   4.452   5.309  0.1331 -0.2284  0.3529
  145DOPC  H18R17261   3.677   4.441   5.222  1.0414  1.7342  0.7626
  145DOPC  H18S17262   3.559   4.355   5.331  1.8350 -0.6212  3.0001
  145DOPC  H18T17263   3.666   4.472   5.402 -2.2016 -2.8065  2.5101
  145DOPC   C3317264   3.570   5.065   6.501 -0.2195  0.8496  0.6335
  145DOPC   H3X17265   3.545   5.172   6.513  0.5525  0.9470  1.5195
  145DOPC   H3Y17266   3.488   5.009   6.551 -0.8426 -0.8702 -2.0729
  145DOPC   C3417267   3.572   5.022   6.354 -0.0015 -0.3901 -0.3038
  145DOPC   H4X17268   3.479   5.062   6.308  0.4656 -0.3342 -1.2218
  145DOPC   H4Y17269   3.564   4.911   6.357  0.6083 -0.4696 -1.2707
  145DOPC   C3517270   3.697   5.055   6.270 -0.0437 -0.6652  0.3857
  145DOPC   H5X17271   3.780   4.990   6.304 -0.9212 -1.6425  0.7237
  145DOPC   H5Y17272   3.726   5.161   6.280 -0.2942 -0.2127 -2.6843
  145DOPC   C3617273   3.677   5.035   6.120 -0.1593 -0.1673  0.0982
  145DOPC   H6X17274   3.626   4.936   6.120  1.3863 -0.9914  0.5718
  145DOPC   H6Y17275   3.605   5.113   6.087  0.9967 -0.3732 -3.1986
  145DOPC   C3717276   3.802   5.034   6.029 -0.0932  0.5372 -0.3089
  145DOPC   H7X17277   3.869   5.115   6.064  0.7686 -0.8171  1.3518
  145DOPC   H7Y17278   3.863   4.941   6.030  1.7749  1.6848 -1.4045
  145DOPC   C3817279   3.781   5.089   5.879  0.1691  0.6186 -0.8130
  145DOPC   H8X17280   3.883   5.110   5.840  1.7884 -2.2850  1.4608
  145DOPC   H8Y17281   3.740   5.192   5.883 -0.1748  0.4981 -1.1746
  145DOPC   C3917282   3.700   5.005   5.793  0.3479 -0.1500 -0.1318
  145DOPC   H9X17283   3.625   4.942   5.843 -0.3347  1.0710  0.4245
  145DOPC  C31017284   3.734   4.968   5.664  0.5180  0.3618 -0.1969
  145DOPC  H10X17285   3.665   4.905   5.606 -1.0257  2.6024 -0.9488
  145DOPC  C31117286   3.850   5.026   5.584 -0.2481 -0.3983  0.3316
  145DOPC  H11X17287   3.926   4.951   5.553  2.4324  1.7911  1.1828
  145DOPC  H11Y17288   3.908   5.097   5.647  0.5908 -1.2344  0.5275
  145DOPC  C31217289   3.800   5.117   5.473  0.1959 -0.0130 -0.6057
  145DOPC  H12X17290   3.886   5.175   5.432 -1.6545  1.1093 -3.1861
  145DOPC  H12Y17291   3.731   5.191   5.519  0.5755  0.3722 -0.6494
  145DOPC  C31317292   3.719   5.055   5.360  0.0488  0.8316  1.0388
  145DOPC  H13X17293   3.655   4.974   5.398  0.0610  0.4678  0.3026
  145DOPC  H13Y17294   3.647   5.125   5.312  0.8869 -0.4899 -2.4576
  145DOPC  C31417295   3.802   5.001   5.240 -1.0318 -0.0217  0.1930
  145DOPC  H14X17296   3.853   5.088   5.194  0.1516  0.8403  2.9053
  145DOPC  H14Y17297   3.876   4.922   5.263  2.5339  2.6652 -1.0566
  145DOPC  C31517298   3.700   4.953   5.136  0.3580 -0.0831  0.2971
  145DOPC  H15X17299   3.619   5.027   5.118 -0.9794 -1.3190  0.9806
  145DOPC  H15Y17300   3.657   4.858   5.174 -1.9497  0.3712 -0.9730
  145DOPC  C31617301   3.766   4.916   5.000  0.6031 -0.5535  0.3061
  145DOPC  H16X17302   3.867   4.875   5.017  0.7939 -0.1533  0.1496
  145DOPC  H16Y17303   3.705   4.835   4.954  2.2097 -0.4444 -2.1721
  145DOPC  C31717304   3.776   5.042   4.916  0.1689  0.3427  0.2455
  145DOPC  H17X17305   3.672   5.067   4.884  0.7339 -1.1701 -3.2120
  145DOPC  H17Y17306   3.812   5.127   4.977  1.9809  1.2306 -1.9287
  145DOPC  C31817307   3.871   5.030   4.791  0.8032  0.1164  0.6901
  145DOPC  H18X17308   3.885   5.126   4.739 -0.2872  0.3085  0.7444
  145DOPC  H18Y17309   3.970   4.994   4.828  1.3033  2.6627  2.0532
  145DOPC  H18Z17310   3.840   4.952   4.718  1.9300  0.4240 -0.1542
  146DOPC     N17311   5.923   2.891   7.292  0.9311 -0.7709 -0.1143
  146DOPC   C1217312   5.877   2.745   7.290 -0.0765 -0.4737 -0.2305
  146DOPC  H12A17313   5.893   2.692   7.382  1.3491  0.2334 -0.0495
  146DOPC  H12B17314   5.933   2.700   7.209  0.6616  2.4075 -1.4433
  146DOPC   C1317315   5.908   2.962   7.162 -0.0201 -0.1696 -0.4104
  146DOPC  H13A17316   5.964   3.055   7.160 -0.4676  0.0986 -0.6156
  146DOPC  H13B17317   5.948   2.900   7.083  1.6160 -0.9575  0.9661
  146DOPC  H13C17318   5.802   2.971   7.145 -0.5309 -2.0005  1.4045
  146DOPC   C1417319   6.071   2.903   7.316 -0.3296  0.7909  0.5532
  146DOPC  H14A17320   6.111   2.851   7.402 -1.0566 -1.2820 -0.2928
  146DOPC  H14B17321   6.120   2.858   7.231 -1.4000  1.0046 -0.2059
  146DOPC  H14C17322   6.089   3.007   7.336  1.6357  0.8499 -1.2228
  146DOPC   C1517323   5.845   2.975   7.396  0.0661  0.6386 -0.1987
  146DOPC  H15A17324   5.859   3.081   7.379  3.1782  0.6184  1.4892
  146DOPC  H15B17325   5.874   2.946   7.496 -1.7544 -0.1855  0.1380
  146DOPC  H15C17326   5.741   2.944   7.390  0.5742 -1.5482  1.2393
  146DOPC   C1117327   5.729   2.727   7.259  0.1279 -0.9160 -0.3277
  146DOPC  H11A17328   5.719   2.773   7.158 -1.3469 -3.2490 -1.3264
  146DOPC  H11B17329   5.713   2.619   7.240  1.5814 -1.1597 -0.3162
  146DOPC     P17330   5.499   2.767   7.350  0.4103 -0.1797 -0.0093
  146DOPC   O1317331   5.422   2.885   7.403  0.0072 -0.2122  0.4643
  146DOPC   O1417332   5.473   2.632   7.413 -0.4576  0.3751 -0.5047
  146DOPC   O1217333   5.645   2.788   7.355  0.3908  0.0223 -0.0674
  146DOPC   O1117334   5.469   2.760   7.194  0.5853 -0.0464  0.3486
  146DOPC    C117335   5.373   2.667   7.144 -0.2696 -0.1882  0.0566
  146DOPC    HA17336   5.269   2.680   7.180 -0.3439 -0.6359  0.0120
  146DOPC    HB17337   5.413   2.565   7.159 -1.0033 -0.2771  1.5537
  146DOPC    C217338   5.358   2.682   6.992 -0.2459 -0.1809  0.3906
  146DOPC    HS17339   5.321   2.589   6.945  0.0275 -0.2491  0.3090
  146DOPC   O2117340   5.480   2.737   6.933  0.4508  0.4885 -0.3585
  146DOPC   C2117341   5.578   2.641   6.906  0.1872 -0.5796 -0.2826
  146DOPC   O2217342   5.568   2.523   6.926 -0.6670  0.2721  0.5122
  146DOPC   C2217343   5.703   2.718   6.875 -0.4311  0.2106  0.0322
  146DOPC   H2R17344   5.778   2.694   6.953 -1.5844 -1.2827  0.7304
  146DOPC   H2S17345   5.667   2.822   6.878 -2.0951 -0.3662  1.4084
  146DOPC    C317346   5.248   2.781   6.948 -0.2203  0.1271 -0.4982
  146DOPC    HX17347   5.278   2.879   6.991  1.6365  0.0876 -1.6334
  146DOPC    HY17348   5.147   2.767   6.993  0.5461 -1.8166  0.6916
  146DOPC   O3117349   5.237   2.795   6.807 -0.1650  0.6845  0.1798
  146DOPC   C3117350   5.307   2.889   6.746 -0.5002  0.2083 -0.4214
  146DOPC   O3217351   5.383   2.965   6.795 -0.3594 -0.3261  0.2552
  146DOPC   C3217352   5.278   2.884   6.597  0.1708 -0.6332  0.4713
  146DOPC   H2X17353   5.305   2.785   6.554  1.0259  0.4713 -1.6749
  146DOPC   H2Y17354   5.169   2.902   6.591  0.4319  0.5739 -1.2183
  146DOPC   C2317355   5.762   2.687   6.728 -0.5412  0.2285 -0.3203
  146DOPC   H3R17356   5.770   2.577   6.717  1.6575  0.2912  0.1700
  146DOPC   H3S17357   5.867   2.719   6.714 -1.0235  2.4306  0.5996
  146DOPC   C2417358   5.682   2.766   6.624  0.8228 -0.4399  0.6912
  146DOPC   H4R17359   5.696   2.875   6.641  1.4937 -0.1563 -1.3594
  146DOPC   H4S17360   5.572   2.753   6.627  0.6907  0.2290 -0.5985
  146DOPC   C2517361   5.732   2.746   6.480 -0.5264 -0.2650  0.1469
  146DOPC   H5R17362   5.720   2.637   6.463  0.9589 -0.3441 -0.5776
  146DOPC   H5S17363   5.842   2.764   6.483 -0.4093 -0.0067 -2.9345
  146DOPC   C2617364   5.659   2.823   6.374  0.5913  0.2748  0.2778
  146DOPC   H6R17365   5.683   2.929   6.398 -2.4116  1.2841 -0.6670
  146DOPC   H6S17366   5.549   2.808   6.377  0.2675  2.4790  0.7543
  146DOPC   C2717367   5.711   2.800   6.228 -0.0291  0.1134 -0.0163
  146DOPC   H7R17368   5.693   2.698   6.186  0.9728 -0.1627  0.1901
  146DOPC   H7S17369   5.821   2.808   6.239  0.3000 -2.6471 -0.3689
  146DOPC   C2817370   5.660   2.910   6.130 -0.2787 -0.1328  0.3606
  146DOPC   H8R17371   5.682   3.009   6.175 -1.8395 -0.7111  2.5673
  146DOPC   H8S17372   5.550   2.896   6.123 -0.5162  0.1142  2.8306
  146DOPC   C2917373   5.727   2.896   5.995 -0.1775 -0.0770  0.9139
  146DOPC   H9R17374   5.835   2.920   5.991 -0.5653  1.6513 -1.1428
  146DOPC  C21017375   5.659   2.885   5.880  0.7335 -0.0953  0.5103
  146DOPC  H10R17376   5.713   2.873   5.784  0.6034  1.9658  0.1403
  146DOPC  C21117377   5.504   2.884   5.848 -0.9299  0.8075  0.2089
  146DOPC  H11R17378   5.440   2.843   5.929 -0.5071  1.7470  1.0372
  146DOPC  H11S17379   5.495   2.817   5.760  3.0910  0.5684 -0.2383
  146DOPC  C21217380   5.461   3.023   5.791  0.4484 -0.1778  0.9390
  146DOPC  H12R17381   5.369   3.013   5.731  1.6670 -1.7958 -0.7620
  146DOPC  H12S17382   5.535   3.055   5.715  0.3734 -0.1231  0.8892
  146DOPC  C21317383   5.457   3.126   5.905 -0.0077 -0.2234 -0.3465
  146DOPC  H13R17384   5.434   3.228   5.865 -0.9991 -0.3583 -0.1461
  146DOPC  H13S17385   5.555   3.127   5.958 -0.0344 -0.5769 -0.2911
  146DOPC  C21417386   5.342   3.095   6.003 -0.9747  0.2620  0.3511
  146DOPC  H14R17387   5.381   3.046   6.094 -0.0631 -1.1045 -0.7382
  146DOPC  H14S17388   5.272   3.023   5.956  0.3257 -2.2067  1.9830
  146DOPC  C21517389   5.263   3.221   6.048 -0.2364 -0.6082  0.0800
  146DOPC  H15R17390   5.187   3.180   6.118 -0.8790  0.0397 -0.2242
  146DOPC  H15S17391   5.210   3.257   5.957 -1.1550  0.1761  0.9031
  146DOPC  C21617392   5.345   3.339   6.105 -0.0397 -0.5004 -0.5467
  146DOPC  H16R17393   5.419   3.385   6.036  0.6736 -1.3479 -0.3619
  146DOPC  H16S17394   5.408   3.307   6.190  0.8308  0.6848 -0.7149
  146DOPC  C21717395   5.257   3.452   6.154  0.4231 -0.9558 -0.6267
  146DOPC  H17R17396   5.170   3.421   6.215 -1.0446  2.2585 -0.9108
  146DOPC  H17S17397   5.218   3.497   6.060 -0.3498 -0.5109 -0.1030
  146DOPC  C21817398   5.333   3.565   6.225  0.3547 -0.1817 -0.6268
  146DOPC  H18R17399   5.395   3.533   6.311  0.8962  2.7711  0.1973
  146DOPC  H18S17400   5.263   3.639   6.270 -0.7007 -1.2403 -0.4800
  146DOPC  H18T17401   5.398   3.627   6.159 -2.4176  0.9319 -2.5006
  146DOPC   C3317402   5.340   3.001   6.510 -0.2187  0.2511 -0.1013
  146DOPC   H3X17403   5.308   2.977   6.406  0.1774  0.1723 -0.2038
  146DOPC   H3Y17404   5.450   2.994   6.507 -0.1436  0.5154  1.4615
  146DOPC   C3417405   5.293   3.139   6.543  0.5552  0.0298  0.8600
  146DOPC   H4X17406   5.383   3.203   6.554  1.4554 -1.0016 -0.2788
  146DOPC   H4Y17407   5.246   3.139   6.643  1.1921 -1.8949  1.1864
  146DOPC   C3517408   5.189   3.184   6.441  0.0424 -0.1369  0.0873
  146DOPC   H5X17409   5.232   3.176   6.340 -0.3985 -0.8273 -0.0530
  146DOPC   H5Y17410   5.177   3.295   6.448  1.7066  0.1579 -1.0961
  146DOPC   C3617411   5.054   3.119   6.436  0.1727  0.0814  0.1115
  146DOPC   H6X17412   5.054   3.009   6.449 -0.4664 -0.3538 -2.8136
  146DOPC   H6Y17413   4.990   3.150   6.522  1.1155 -3.6241  2.4134
  146DOPC   C3717414   4.971   3.153   6.315  0.4767  0.4927  0.4004
  146DOPC   H7X17415   4.870   3.185   6.348  0.5499  1.8098 -0.5758
  146DOPC   H7Y17416   5.016   3.243   6.268  0.1035  0.5007  0.0519
  146DOPC   C3817417   4.965   3.032   6.221  0.2396 -0.4004  0.7210
  146DOPC   H8X17418   4.909   2.944   6.259  1.4711 -2.2158 -1.4717
  146DOPC   H8Y17419   5.071   3.003   6.209  0.4356  0.3604  0.5203
  146DOPC   C3917420   4.904   3.096   6.098  0.5711  0.6157 -0.3784
  146DOPC   H9X17421   4.885   3.204   6.107 -1.1055  0.2006  2.4991
  146DOPC  C31017422   4.877   3.036   5.979 -0.2014  0.0940  0.2738
  146DOPC  H10X17423   4.855   3.101   5.893  0.5273 -0.1820 -0.1327
  146DOPC  C31117424   4.904   2.886   5.965 -0.6913  0.2227  0.1643
  146DOPC  H11X17425   4.808   2.844   5.929 -0.1791  1.2176 -2.6286
  146DOPC  H11Y17426   4.940   2.833   6.056  1.2666  0.7969 -0.2316
  146DOPC  C31217427   5.002   2.853   5.850  0.2316  0.7138 -0.3557
  146DOPC  H12X17428   5.019   2.743   5.844  1.7951  0.9380 -0.6272
  146DOPC  H12Y17429   5.100   2.903   5.867  0.8575 -0.9810  1.4639
  146DOPC  C31317430   4.942   2.878   5.710 -0.2410  0.3494 -0.8335
  146DOPC  H13X17431   4.838   2.838   5.707 -0.6232  1.2659 -0.2381
  146DOPC  H13Y17432   4.920   2.985   5.689  1.5293  1.2608  1.5599
  146DOPC  C31417433   5.027   2.819   5.588 -0.6261 -0.4585  0.4923
  146DOPC  H14X17434   5.028   2.712   5.616  1.5071  0.0277  2.6790
  146DOPC  H14Y17435   4.984   2.854   5.492  2.0399 -0.7586 -0.8928
  146DOPC  C31517436   5.168   2.865   5.585 -1.3941 -0.1929  0.5021
  146DOPC  H15X17437   5.223   2.841   5.678 -0.8751  0.9193  0.5022
  146DOPC  H15Y17438   5.170   2.976   5.576  1.3362 -0.1917  0.2512
  146DOPC  C31617439   5.243   2.817   5.456 -0.0636  0.9141 -0.1825
  146DOPC  H16X17440   5.178   2.859   5.376 -0.9401  2.3725  1.2244
  146DOPC  H16Y17441   5.342   2.866   5.439 -0.2084  1.1386 -0.3963
  146DOPC  C31717442   5.269   2.672   5.465 -0.9008  0.0356 -0.2166
  146DOPC  H17X17443   5.310   2.647   5.565 -1.6083  1.0024  0.3242
  146DOPC  H17Y17444   5.169   2.625   5.471 -0.9818  0.0224 -1.4509
  146DOPC  C31817445   5.358   2.622   5.350 -0.4838  0.6578 -0.3965
  146DOPC  H18X17446   5.384   2.515   5.364 -1.8631  0.4705  1.0848
  146DOPC  H18Y17447   5.299   2.623   5.256  0.7078  2.9576 -1.1686
  146DOPC  H18Z17448   5.447   2.687   5.340  1.3112 -0.9062  3.2589
  147DOPC     N17449   1.774   1.305   6.819 -0.0531 -0.3317 -0.1613
  147DOPC   C1217450   1.909   1.372   6.815 -0.1416  0.0725  0.3472
  147DOPC  H12A17451   1.984   1.329   6.750 -1.4214 -0.4521 -0.8414
  147DOPC  H12B17452   1.951   1.362   6.913 -0.0654  0.3620  0.3452
  147DOPC   C1317453   1.794   1.162   6.855  0.5158 -0.2812 -0.4662
  147DOPC  H13A17454   1.825   1.102   6.772  4.8718  0.3868  0.4585
  147DOPC  H13B17455   1.865   1.163   6.936 -0.4550  0.9633  0.4199
  147DOPC  H13C17456   1.697   1.133   6.894  0.0047  3.3896  1.5446
  147DOPC   C1417457   1.693   1.315   6.682 -0.1802 -0.4828 -0.2798
  147DOPC  H14A17458   1.720   1.230   6.621  1.8266 -0.0569 -0.0835
  147DOPC  H14B17459   1.587   1.312   6.698  0.0165  1.0114  1.7735
  147DOPC  H14C17460   1.725   1.408   6.637  0.4469  0.4988  2.0389
  147DOPC   C1517461   1.687   1.371   6.927  0.6466  0.3872 -0.2857
  147DOPC  H15A17462   1.668   1.472   6.896  0.8499  1.1765  2.0026
  147DOPC  H15B17463   1.733   1.377   7.024 -1.3245 -2.8258  1.0053
  147DOPC  H15C17464   1.592   1.320   6.928  0.2355  1.1167 -1.0903
  147DOPC   C1117465   1.905   1.529   6.785 -0.1782 -0.6865 -0.0150
  147DOPC  H11A17466   1.868   1.584   6.875  0.7035 -0.8431  0.4517
  147DOPC  H11B17467   2.011   1.558   6.770  0.1786 -1.8305  0.2285
  147DOPC     P17468   1.860   1.695   6.584 -0.4383 -0.2911 -0.0679
  147DOPC   O1317469   1.882   1.803   6.682 -0.4517  0.4974 -0.1595
  147DOPC   O1417470   1.752   1.709   6.488  0.2115 -0.3922  0.2311
  147DOPC   O1217471   1.827   1.571   6.670  0.2810 -0.0834 -0.2561
  147DOPC   O1117472   1.992   1.666   6.512 -0.2935 -0.1187  0.0590
  147DOPC    C117473   2.017   1.538   6.453 -0.4015  0.3323 -0.6075
  147DOPC    HA17474   2.023   1.558   6.344  2.2432  1.4945 -0.3408
  147DOPC    HB17475   1.937   1.465   6.478  1.6091 -1.8522 -0.2873
  147DOPC    C217476   2.159   1.485   6.502 -0.5665  0.0325  0.4757
  147DOPC    HS17477   2.174   1.517   6.607  2.3284  3.7497 -0.8242
  147DOPC   O2117478   2.252   1.555   6.412  0.1681  0.5517 -0.0053
  147DOPC   C2117479   2.372   1.574   6.466  0.0258  0.0716 -0.7867
  147DOPC   O2217480   2.404   1.525   6.573 -0.2730 -0.4406 -0.4345
  147DOPC   C2217481   2.470   1.659   6.371 -0.2126  0.2725 -0.2647
  147DOPC   H2R17482   2.470   1.756   6.424  1.0247 -1.2255  2.7569
  147DOPC   H2S17483   2.415   1.673   6.276 -0.2782  0.2008 -0.2378
  147DOPC    C317484   2.170   1.328   6.488 -0.1216 -0.5792 -0.0402
  147DOPC    HX17485   2.090   1.281   6.548  0.5088  1.4796  2.6508
  147DOPC    HY17486   2.261   1.293   6.541 -0.8699 -1.8423  0.4395
  147DOPC   O3117487   2.151   1.281   6.355 -0.2811 -0.1209 -0.7415
  147DOPC   C3117488   2.265   1.269   6.282  0.1235 -0.3159 -0.1870
  147DOPC   O3217489   2.376   1.290   6.329 -0.1041  0.3781 -0.0212
  147DOPC   C3217490   2.238   1.215   6.149  0.2631 -0.1237  0.3788
  147DOPC   H2X17491   2.297   1.121   6.141  0.2039 -0.1067 -0.3297
  147DOPC   H2Y17492   2.128   1.200   6.145  0.0143  1.2369  1.4526
  147DOPC   C2317493   2.609   1.597   6.346 -0.3736 -0.2490  0.2768
  147DOPC   H3R17494   2.599   1.491   6.314  1.6818 -0.3910 -0.0206
  147DOPC   H3S17495   2.659   1.604   6.446  0.2573  0.7621 -0.0995
  147DOPC   C2417496   2.688   1.679   6.234 -0.0912  0.2328 -0.2977
  147DOPC   H4R17497   2.796   1.681   6.260  0.2957  0.0028 -1.7640
  147DOPC   H4S17498   2.661   1.786   6.240  1.0722  0.5092  0.3628
  147DOPC   C2517499   2.672   1.621   6.094 -0.8143 -0.3705  0.8256
  147DOPC   H5R17500   2.564   1.597   6.081 -1.0997  1.3741 -0.4699
  147DOPC   H5S17501   2.751   1.545   6.077 -0.5773  0.0448  0.0099
  147DOPC   C2617502   2.704   1.731   5.997  0.2218  0.2122  0.0442
  147DOPC   H6R17503   2.811   1.750   5.974 -0.2765  5.1123  0.7480
  147DOPC   H6S17504   2.664   1.827   6.036 -2.0964  0.1914 -2.0248
  147DOPC   C2717505   2.629   1.705   5.858  0.1058 -0.2239  0.0791
  147DOPC   H7R17506   2.636   1.799   5.800  0.9937  0.6933  1.6066
  147DOPC   H7S17507   2.521   1.696   5.884  0.0005 -0.0224 -0.2862
  147DOPC   C2817508   2.678   1.584   5.777 -0.4914  0.0009  0.2930
  147DOPC   H8R17509   2.685   1.498   5.848 -2.2427 -1.9688 -1.7671
  147DOPC   H8S17510   2.776   1.610   5.732 -0.9580  2.6775  0.6264
  147DOPC   C2917511   2.581   1.533   5.674 -1.0357 -0.4799 -0.3218
  147DOPC   H9R17512   2.518   1.455   5.721 -0.3210 -0.9737 -0.1685
  147DOPC  C21017513   2.577   1.575   5.546  0.2931 -0.6926 -0.0459
  147DOPC  H10R17514   2.495   1.532   5.485 -2.4823  2.1535  1.3629
  147DOPC  C21117515   2.663   1.672   5.477  0.5315  0.1963 -0.2434
  147DOPC  H11R17516   2.724   1.620   5.401 -1.6192 -0.1046 -1.8616
  147DOPC  H11S17517   2.713   1.740   5.550 -2.4184  2.0360  0.2408
  147DOPC  C21217518   2.577   1.780   5.395  0.0275  0.1800  0.1302
  147DOPC  H12R17519   2.518   1.728   5.317 -1.3346 -1.4679  2.1529
  147DOPC  H12S17520   2.657   1.835   5.341  0.2883  0.9432  1.2638
  147DOPC  C21317521   2.499   1.881   5.473  0.5113  0.0020  0.3997
  147DOPC  H13R17522   2.569   1.937   5.538  0.9937  0.7084 -0.6939
  147DOPC  H13S17523   2.431   1.812   5.527  0.2244  0.7914  1.0584
  147DOPC  C21417524   2.432   1.990   5.387  0.1495 -0.5594 -0.1298
  147DOPC  H14R17525   2.497   2.035   5.308 -0.3276  0.9290  0.2921
  147DOPC  H14S17526   2.408   2.075   5.453  1.6026 -0.4902  0.3502
  147DOPC  C21517527   2.307   1.938   5.321  0.5038 -0.1870  0.1967
  147DOPC  H15R17528   2.243   1.885   5.396 -0.4766  2.5273  1.3978
  147DOPC  H15S17529   2.332   1.857   5.249  0.3510 -0.9166  0.9506
  147DOPC  C21617530   2.239   2.054   5.238  0.1191  0.4852 -0.2130
  147DOPC  H16R17531   2.248   2.041   5.128 -0.5516  0.1984 -0.2335
  147DOPC  H16S17532   2.289   2.148   5.269 -1.0304  1.2726 -0.6812
  147DOPC  C21717533   2.088   2.066   5.260  0.1828  0.0100 -0.0186
  147DOPC  H17R17534   2.051   2.121   5.171  0.3864  0.1804  0.0023
  147DOPC  H17S17535   2.077   2.123   5.354  1.7275 -0.0080  0.1998
  147DOPC  C21817536   1.999   1.942   5.265  1.0582  0.4529  0.0797
  147DOPC  H18R17537   1.898   1.984   5.284  1.2120  1.7556 -1.7693
  147DOPC  H18S17538   2.020   1.886   5.359  0.9791  3.4713  2.0526
  147DOPC  H18T17539   1.992   1.887   5.168 -3.6542  0.9339 -0.0891
  147DOPC   C3317540   2.297   1.315   6.041  0.5052  0.4674  0.6136
  147DOPC   H3X17541   2.305   1.279   5.936  0.0853  3.9172 -0.7413
  147DOPC   H3Y17542   2.403   1.336   6.064  1.2530 -1.4378 -0.7823
  147DOPC   C3417543   2.207   1.443   6.038  0.4837 -0.7263  0.3815
  147DOPC   H4X17544   2.196   1.484   6.140 -0.2210 -1.9018  0.8008
  147DOPC   H4Y17545   2.102   1.427   6.004 -0.3318  2.1722  1.2628
  147DOPC   C3517546   2.261   1.553   5.948 -0.2685  0.0997 -0.2008
  147DOPC   H5X17547   2.233   1.533   5.842 -0.2897  1.8016 -0.5483
  147DOPC   H5Y17548   2.372   1.553   5.950 -0.1747 -1.8941 -1.8785
  147DOPC   C3617549   2.217   1.688   5.991 -0.1327  0.0862 -0.3765
  147DOPC   H6X17550   2.110   1.678   6.018  0.1452 -1.5571  0.2621
  147DOPC   H6Y17551   2.259   1.739   6.081 -0.9133 -1.3686  0.8629
  147DOPC   C3717552   2.230   1.780   5.868 -0.0186 -1.1653 -0.4206
  147DOPC   H7X17553   2.338   1.803   5.851 -0.2143 -0.5390 -0.8306
  147DOPC   H7Y17554   2.199   1.723   5.778  0.1165 -2.7109  0.4743
  147DOPC   C3817555   2.164   1.914   5.883 -0.2073  0.6326  0.0761
  147DOPC   H8X17556   2.216   1.950   5.974  1.6524 -0.6151 -0.4299
  147DOPC   H8Y17557   2.054   1.905   5.899 -0.4015 -0.3530 -1.4825
  147DOPC   C3917558   2.182   1.991   5.754 -0.7543  0.4208 -0.8054
  147DOPC   H9X17559   2.289   2.005   5.735 -0.0960 -2.6698  0.0289
  147DOPC  C31017560   2.090   2.028   5.668 -0.0266 -0.6418 -0.5361
  147DOPC  H10X17561   2.121   2.058   5.567  1.0182 -0.8260 -0.2839
  147DOPC  C31117562   1.940   2.002   5.679  0.4901 -0.0614  0.1439
  147DOPC  H11X17563   1.926   1.895   5.708  1.7300 -0.2169  0.1989
  147DOPC  H11Y17564   1.889   2.016   5.582 -0.7461 -1.3895  0.5555
  147DOPC  C31217565   1.859   2.090   5.782  0.0407 -0.5667 -0.0750
  147DOPC  H12X17566   1.917   2.079   5.876 -0.0523 -1.7093 -0.1255
  147DOPC  H12Y17567   1.753   2.057   5.788  0.4427 -2.3358 -1.6535
  147DOPC  C31317568   1.852   2.240   5.750 -0.8446 -0.0930  0.6410
  147DOPC  H13X17569   1.780   2.284   5.822 -0.8848  0.3229  0.3465
  147DOPC  H13Y17570   1.945   2.295   5.775 -0.5955 -0.9162  1.5867
  147DOPC  C31417571   1.802   2.277   5.611 -0.4726 -0.1162  0.0604
  147DOPC  H14X17572   1.885   2.247   5.543  1.8977  0.9901  2.2688
  147DOPC  H14Y17573   1.709   2.229   5.575 -0.7795  0.7414 -0.3272
  147DOPC  C31517574   1.774   2.429   5.602 -0.0030  0.2068  0.0598
  147DOPC  H15X17575   1.872   2.480   5.594  0.0678  0.2235  0.8836
  147DOPC  H15Y17576   1.723   2.462   5.695 -2.0937 -2.4385 -0.0419
  147DOPC  C31617577   1.679   2.465   5.492  0.2290 -0.2188  0.1375
  147DOPC  H16X17578   1.580   2.416   5.500 -0.5594  1.3381  0.3054
  147DOPC  H16Y17579   1.650   2.573   5.494 -1.6540 -0.6889  0.2567
  147DOPC  C31717580   1.728   2.428   5.352  0.1887  0.4759  0.1431
  147DOPC  H17X17581   1.824   2.484   5.349 -0.3883  1.5567  1.2145
  147DOPC  H17Y17582   1.749   2.319   5.343  0.4447  0.4459  1.0395
  147DOPC  C31817583   1.629   2.466   5.243 -0.9151 -0.8078  0.3381
  147DOPC  H18X17584   1.677   2.469   5.143  1.2044  0.8965  1.3306
  147DOPC  H18Y17585   1.545   2.393   5.233 -0.8665 -0.6713 -1.2970
  147DOPC  H18Z17586   1.588   2.566   5.266 -3.0803 -1.2046 -1.4742
  148DOPC     N17587   2.593   4.904   7.038 -0.0232 -0.4297  0.5375
  148DOPC   C1217588   2.674   4.923   6.905  0.1664 -0.3637 -0.0759
  148DOPC  H12A17589   2.624   4.863   6.832 -2.5142  0.2549  1.1252
  148DOPC  H12B17590   2.772   4.878   6.911 -0.6318 -2.3766 -1.3259
  148DOPC   C1317591   2.605   4.761   7.091 -0.4065 -0.3894 -0.0600
  148DOPC  H13A17592   2.558   4.759   7.188 -0.8187  1.9382 -0.1459
  148DOPC  H13B17593   2.554   4.700   7.018 -0.6969  1.6842 -1.6938
  148DOPC  H13C17594   2.705   4.724   7.101  0.0616  0.8592  0.0663
  148DOPC   C1417595   2.446   4.938   7.004 -0.9123  0.5299 -1.3547
  148DOPC  H14A17596   2.413   4.871   6.925  0.8164 -0.4372 -1.3072
  148DOPC  H14B17597   2.396   4.939   7.100  1.9481 -0.0774  0.2491
  148DOPC  H14C17598   2.448   5.042   6.976  3.8407  0.5164 -1.8828
  148DOPC   C1517599   2.634   4.993   7.143  0.2856  0.0551 -0.1964
  148DOPC  H15A17600   2.739   4.985   7.164  0.3228  0.0063 -0.3985
  148DOPC  H15B17601   2.585   4.984   7.239  2.3627  2.3150  1.1934
  148DOPC  H15C17602   2.619   5.097   7.118  3.5788  0.0553 -2.7011
  148DOPC   C1117603   2.685   5.064   6.849 -0.0103 -0.4882 -0.0368
  148DOPC  H11A17604   2.719   5.068   6.743 -0.8318  0.7916 -0.2670
  148DOPC  H11B17605   2.585   5.111   6.855  0.9616  1.9450 -1.4454
  148DOPC     P17606   2.921   5.141   6.934  0.2381 -0.2494 -0.4189
  148DOPC   O1317607   2.966   5.001   6.957  0.3090  0.1795  0.2553
  148DOPC   O1417608   2.959   5.242   7.030 -0.4242 -0.3466 -0.1072
  148DOPC   O1217609   2.763   5.151   6.928  0.1420  0.3659 -0.2010
  148DOPC   O1117610   2.965   5.183   6.789  0.0370 -0.5551  0.6210
  148DOPC    C117611   2.912   5.298   6.720 -0.6568  0.4299 -0.5039
  148DOPC    HA17612   2.982   5.383   6.729  0.2835 -0.2412 -1.2443
  148DOPC    HB17613   2.811   5.323   6.758 -0.8233  0.1778 -0.7760
  148DOPC    C217614   2.892   5.265   6.574 -0.9917  0.5422  0.0782
  148DOPC    HS17615   2.804   5.198   6.563 -1.2487  0.7551  0.7677
  148DOPC   O2117616   3.011   5.225   6.522 -0.1331  0.0007  0.9873
  148DOPC   C2117617   3.015   5.100   6.481  0.6121 -0.0266  0.2725
  148DOPC   O2217618   2.930   5.017   6.502  0.1269  0.1002 -0.3223
  148DOPC   C2217619   3.152   5.077   6.417 -0.0768 -0.1104 -0.0086
  148DOPC   H2R17620   3.224   5.084   6.501  0.4525  2.7952 -0.5889
  148DOPC   H2S17621   3.184   5.161   6.352  1.2244 -0.8362 -0.3409
  148DOPC    C317622   2.856   5.395   6.505  0.0956 -0.1284  0.4296
  148DOPC    HX17623   2.945   5.461   6.497 -0.3848  0.2889 -2.8093
  148DOPC    HY17624   2.780   5.442   6.571  0.9628 -1.0531  2.1656
  148DOPC   O3117625   2.806   5.367   6.372 -0.1417 -0.4012 -0.6834
  148DOPC   C3117626   2.791   5.479   6.305  0.0098  0.1047  0.5848
  148DOPC   O3217627   2.777   5.590   6.351  0.5384 -0.2514 -0.5317
  148DOPC   C3217628   2.784   5.442   6.155  0.2571  0.0844  0.2774
  148DOPC   H2X17629   2.856   5.359   6.142 -0.2627  0.0250 -3.2006
  148DOPC   H2Y17630   2.678   5.415   6.136 -0.2010  2.1350 -0.3917
  148DOPC   C2317631   3.159   4.945   6.333  0.2988 -0.1533 -0.4209
  148DOPC   H3R17632   3.140   4.861   6.403  1.0093  0.1186  0.1087
  148DOPC   H3S17633   3.263   4.931   6.296  0.3582  0.8612 -0.6768
  148DOPC   C2417634   3.067   4.943   6.211  0.3086 -0.3468 -0.7556
  148DOPC   H4R17635   2.960   4.956   6.240  0.8219  1.5690  0.4918
  148DOPC   H4S17636   3.068   4.844   6.160 -3.2245 -0.5296 -0.6968
  148DOPC   C2517637   3.092   5.053   6.115 -0.3877 -0.3091 -0.1576
  148DOPC   H5R17638   3.198   5.061   6.081  0.6386 -2.2238  2.2717
  148DOPC   H5S17639   3.079   5.153   6.163  3.5283  0.1455  0.3079
  148DOPC   C2617640   3.014   5.032   5.986  0.4907 -0.6309 -0.2578
  148DOPC   H6R17641   2.908   5.063   5.991  0.4023 -1.1395  1.5789
  148DOPC   H6S17642   3.007   4.925   5.958 -0.2412 -1.4220  2.6766
  148DOPC   C2717643   3.068   5.105   5.868 -0.1292 -0.6376 -0.0309
  148DOPC   H7R17644   3.178   5.093   5.871 -0.0351 -1.4729 -3.1967
  148DOPC   H7S17645   3.035   5.211   5.862  1.3510 -0.1253  0.3637
  148DOPC   C2817646   3.020   5.053   5.733 -0.1190 -0.1507 -0.0861
  148DOPC   H8R17647   3.047   4.947   5.712  3.8306  0.5738  0.5415
  148DOPC   H8S17648   3.077   5.103   5.651  2.4225 -0.8492  1.1429
  148DOPC   C2917649   2.875   5.072   5.701 -0.2895 -0.3067  0.2371
  148DOPC   H9R17650   2.810   4.983   5.704  2.1031 -2.2362 -1.0004
  148DOPC  C21017651   2.822   5.187   5.652  0.6244  0.1898  0.2923
  148DOPC  H10R17652   2.716   5.188   5.623  0.6140 -0.9351  0.2421
  148DOPC  C21117653   2.902   5.313   5.622 -0.2507 -0.1586 -0.2319
  148DOPC  H11R17654   3.004   5.315   5.667 -0.7532  1.0985  0.9186
  148DOPC  H11S17655   2.845   5.403   5.654 -1.4096 -1.1877  0.6869
  148DOPC  C21217656   2.908   5.336   5.469 -0.0964  0.4578  0.2472
  148DOPC  H12R17657   2.953   5.246   5.422 -2.2782 -0.2896 -0.5343
  148DOPC  H12S17658   2.978   5.418   5.446  1.1066 -0.1384  1.6351
  148DOPC  C21317659   2.770   5.371   5.417 -0.0514  0.0427  0.6537
  148DOPC  H13R17660   2.749   5.473   5.456 -0.8620  0.6084 -1.1610
  148DOPC  H13S17661   2.690   5.300   5.448 -0.4740 -0.3902 -1.2555
  148DOPC  C21417662   2.771   5.388   5.263  0.1665 -0.5510  0.1401
  148DOPC  H14R17663   2.789   5.285   5.226 -0.8506 -1.6288  2.4337
  148DOPC  H14S17664   2.864   5.445   5.241 -0.3326 -0.9496 -3.6631
  148DOPC  C21517665   2.652   5.469   5.215 -0.0839  0.3847 -0.0956
  148DOPC  H15R17666   2.641   5.572   5.257  2.0115  0.0558  1.4216
  148DOPC  H15S17667   2.566   5.408   5.250  0.4531 -0.7758 -0.7637
  148DOPC  C21617668   2.664   5.474   5.059  0.6548 -0.0496 -0.0234
  148DOPC  H16R17669   2.719   5.383   5.027 -1.2944 -0.5937 -2.0113
  148DOPC  H16S17670   2.723   5.565   5.033  1.5171 -1.0391 -1.7613
  148DOPC  C21717671   2.529   5.489   4.991 -0.2469 -0.1662  0.5372
  148DOPC  H17R17672   2.469   5.400   5.021 -0.9223  0.0076 -0.2320
  148DOPC  H17S17673   2.543   5.506   4.882 -1.3737  1.9280  0.6631
  148DOPC  C21817674   2.451   5.616   5.033 -0.4463 -0.1899 -0.8702
  148DOPC  H18R17675   2.516   5.706   5.019  3.4612 -2.7504 -0.6826
  148DOPC  H18S17676   2.421   5.604   5.139 -0.6276  1.8981 -0.6368
  148DOPC  H18T17677   2.366   5.631   4.963 -1.2034 -0.5106 -0.0388
  148DOPC   C3317678   2.825   5.561   6.068 -0.2119 -0.3544  0.7627
  148DOPC   H3X17679   2.936   5.572   6.073 -0.2961  0.3247  1.1667
  148DOPC   H3Y17680   2.781   5.657   6.101 -1.4519 -1.0933  1.3327
  148DOPC   C3417681   2.777   5.553   5.920 -0.1689 -0.1652  0.2286
  148DOPC   H4X17682   2.671   5.518   5.917  0.2035 -1.3240 -0.0265
  148DOPC   H4Y17683   2.834   5.473   5.868  1.6454  1.6604 -0.7145
  148DOPC   C3517684   2.798   5.682   5.826  0.8333  0.3075  0.0999
  148DOPC   H5X17685   2.732   5.749   5.885 -2.7377 -2.7649 -0.0404
  148DOPC   H5Y17686   2.750   5.671   5.726 -1.8363 -0.7841  1.3975
  148DOPC   C3617687   2.938   5.741   5.821 -0.6191  0.5211  0.2984
  148DOPC   H6X17688   2.935   5.828   5.752  0.2394 -1.6235 -2.6146
  148DOPC   H6Y17689   2.975   5.771   5.922  0.1227 -1.7857  0.7652
  148DOPC   C3717690   3.033   5.641   5.762 -0.3295  0.1518  0.0342
  148DOPC   H7X17691   3.043   5.547   5.819 -0.2460 -0.6469 -1.2546
  148DOPC   H7Y17692   2.989   5.609   5.665  0.5334 -1.2644  0.0874
  148DOPC   C3817693   3.174   5.703   5.744  0.1625  0.6497 -0.6472
  148DOPC   H8X17694   3.243   5.622   5.715  1.7623  0.8198  2.3279
  148DOPC   H8Y17695   3.207   5.742   5.843  0.2825 -0.7726 -0.1097
  148DOPC   C3917696   3.168   5.810   5.647  0.1757 -0.4681 -0.7420
  148DOPC   H9X17697   3.150   5.914   5.680 -4.0873 -0.8938 -1.0487
  148DOPC  C31017698   3.191   5.790   5.512  0.0480 -0.4329 -0.1597
  148DOPC  H10X17699   3.189   5.877   5.446 -1.1072  0.0709  0.5073
  148DOPC  C31117700   3.204   5.662   5.432  0.1719  0.5618 -0.2705
  148DOPC  H11X17701   3.111   5.638   5.376 -0.8813  0.8771  1.2830
  148DOPC  H11Y17702   3.218   5.574   5.498 -0.6305  0.2636 -0.4760
  148DOPC  C31217703   3.318   5.672   5.331 -0.4810 -1.0219  0.2545
  148DOPC  H12X17704   3.415   5.671   5.384 -0.2457 -1.6328 -0.1766
  148DOPC  H12Y17705   3.322   5.765   5.271 -0.4574 -0.5335  0.9988
  148DOPC  C31317706   3.332   5.555   5.224  0.3006  0.3368  0.5566
  148DOPC  H13X17707   3.423   5.587   5.168 -0.5711  0.6678 -0.7215
  148DOPC  H13Y17708   3.350   5.460   5.278  0.2557 -1.0412 -1.7287
  148DOPC  C31417709   3.203   5.532   5.144  0.1450  0.6018 -0.0403
  148DOPC  H14X17710   3.132   5.488   5.218  0.7871  0.3930  0.4627
  148DOPC  H14Y17711   3.165   5.635   5.123 -1.2606 -0.0504 -0.8846
  148DOPC  C31517712   3.217   5.449   5.016  0.1506 -0.2861 -0.6661
  148DOPC  H15X17713   3.120   5.427   4.967  0.2139 -0.5047 -0.6962
  148DOPC  H15Y17714   3.260   5.353   5.053 -0.8009 -0.0875  1.0639
  148DOPC  C31617715   3.306   5.507   4.904  0.9179  0.1289  0.2506
  148DOPC  H16X17716   3.256   5.595   4.860  1.1611  0.1520  0.0180
  148DOPC  H16Y17717   3.403   5.544   4.945  0.1732 -1.8890  4.4039
  148DOPC  C31717718   3.317   5.414   4.782 -0.0571 -0.0115  0.3836
  148DOPC  H17X17719   3.219   5.416   4.728 -0.4569 -0.2297  1.0825
  148DOPC  H17Y17720   3.382   5.467   4.710 -1.9010 -1.1166 -2.2724
  148DOPC  C31817721   3.376   5.273   4.802 -0.2770 -0.3213  0.3302
  148DOPC  H18X17722   3.483   5.266   4.831 -0.1037  0.9921  0.0484
  148DOPC  H18Y17723   3.317   5.229   4.885 -2.6536  0.3670 -0.9007
  148DOPC  H18Z17724   3.358   5.227   4.702  0.6159  1.3279 -0.6204
  149DOPC     N17725   3.084   1.599   6.890  0.1025 -0.2758  0.4679
  149DOPC   C1217726   3.111   1.643   7.035 -0.2323 -0.4181 -0.9686
  149DOPC  H12A17727   3.218   1.630   7.041  0.1516  2.6625  1.4007
  149DOPC  H12B17728   3.071   1.568   7.101  0.7720 -0.5251 -0.4796
  149DOPC   C1317729   3.096   1.448   6.887  0.4205 -0.4496  0.7858
  149DOPC  H13A17730   3.196   1.414   6.908  0.0144 -0.3870  3.1069
  149DOPC  H13B17731   3.029   1.406   6.960 -1.8296 -0.8347 -1.3422
  149DOPC  H13C17732   3.067   1.412   6.789 -0.2011  1.7942  0.0661
  149DOPC   C1417733   3.176   1.663   6.786 -0.3781  0.1939 -1.1960
  149DOPC  H14A17734   3.279   1.630   6.791 -0.5853 -0.3761 -0.4701
  149DOPC  H14B17735   3.146   1.636   6.686 -1.0445 -0.1926 -0.9004
  149DOPC  H14C17736   3.174   1.770   6.796  1.0896  0.1590 -0.2917
  149DOPC   C1517737   2.949   1.630   6.839 -0.3465 -0.2263 -0.6141
  149DOPC  H15A17738   2.872   1.590   6.904 -1.0271  0.2981 -1.0826
  149DOPC  H15B17739   2.935   1.572   6.750 -1.0723  0.1883 -0.7788
  149DOPC  H15C17740   2.932   1.735   6.818 -0.2750  0.1910  1.1759
  149DOPC   C1117741   3.080   1.795   7.073 -0.4429  0.6110  0.0793
  149DOPC  H11A17742   2.972   1.796   7.101 -0.6581 -0.1008 -0.6860
  149DOPC  H11B17743   3.138   1.831   7.161  0.4394  1.3133 -0.7731
  149DOPC     P17744   3.025   2.000   6.921  0.2349  0.2929 -0.0343
  149DOPC   O1317745   3.088   2.112   6.997  0.1117 -0.0159  0.2992
  149DOPC   O1417746   2.885   1.952   6.954  0.1329 -0.7116 -0.1968
  149DOPC   O1217747   3.119   1.879   6.961 -0.1406  0.0145 -0.1258
  149DOPC   O1117748   3.051   2.024   6.764  0.5623 -0.1980 -0.1572
  149DOPC    C117749   3.175   2.029   6.706 -0.5528 -0.2846 -0.1012
  149DOPC    HA17750   3.211   1.924   6.696  0.4021 -0.1076  1.2059
  149DOPC    HB17751   3.250   2.087   6.764 -0.4966  1.3751 -1.7474
  149DOPC    C217752   3.196   2.087   6.560  0.0468 -0.1727 -0.4622
  149DOPC    HS17753   3.153   2.190   6.563  0.0578 -0.1295 -1.5671
  149DOPC   O2117754   3.117   2.009   6.478 -0.0984 -0.5029 -0.3447
  149DOPC   C2117755   3.054   2.070   6.373  0.6607  0.3377  0.1471
  149DOPC   O2217756   3.034   2.190   6.368 -0.1283 -0.5051  0.3531
  149DOPC   C2217757   2.981   1.968   6.284  0.0886  0.0636 -0.1382
  149DOPC   H2R17758   2.901   1.935   6.353  2.1864 -0.0552  2.3861
  149DOPC   H2S17759   3.038   1.878   6.252  0.3560 -0.4294  1.6174
  149DOPC    C317760   3.342   2.098   6.510  0.5663  0.6740  0.5869
  149DOPC    HX17761   3.377   1.993   6.521 -2.2117 -0.4148 -0.0602
  149DOPC    HY17762   3.405   2.168   6.568 -0.5592  1.8694  0.4180
  149DOPC   O3117763   3.348   2.129   6.371  0.0008 -0.1728 -0.0566
  149DOPC   C3117764   3.351   2.258   6.340  0.3848 -0.3849  0.5971
  149DOPC   O3217765   3.360   2.360   6.410 -0.1960  0.5495 -0.3546
  149DOPC   C3217766   3.314   2.275   6.192  0.6964 -0.2662 -0.3610
  149DOPC   H2X17767   3.227   2.208   6.177  1.6314 -1.0724 -2.5021
  149DOPC   H2Y17768   3.274   2.378   6.185  0.6486 -0.2867 -0.3813
  149DOPC   C2317769   2.905   2.025   6.163 -0.3886 -0.0816  0.9651
  149DOPC   H3R17770   2.885   2.134   6.167 -0.0502  0.0862 -1.0170
  149DOPC   H3S17771   2.817   1.960   6.147  0.0134 -0.4569  0.2319
  149DOPC   C2417772   3.007   2.022   6.035 -0.2874 -0.1503  0.4568
  149DOPC   H4R17773   3.042   1.917   6.025 -1.2202 -0.7949  3.0210
  149DOPC   H4S17774   3.093   2.084   6.067 -1.7444  2.2554 -0.0539
  149DOPC   C2517775   2.947   2.071   5.902 -0.6199  0.3768  0.6272
  149DOPC   H5R17776   2.907   2.169   5.936 -0.4116  0.0031  2.0416
  149DOPC   H5S17777   2.867   2.007   5.859 -1.4588  1.5935  0.3202
  149DOPC   C2617778   3.059   2.075   5.789 -0.5249  0.0884 -0.1828
  149DOPC   H6R17779   3.121   1.984   5.798 -0.3264  0.2782  0.4542
  149DOPC   H6S17780   3.123   2.164   5.806 -1.6557  0.9065 -0.0423
  149DOPC   C2717781   3.001   2.088   5.647  0.2693 -0.3308 -0.0917
  149DOPC   H7R17782   3.095   2.107   5.591  0.2965  1.4971  0.4707
  149DOPC   H7S17783   2.948   2.186   5.635  1.1573  0.1373 -0.2617
  149DOPC   C2817784   2.918   1.968   5.597 -0.1256 -0.0164 -0.1966
  149DOPC   H8R17785   2.915   1.999   5.490 -0.0267 -0.1950 -0.2506
  149DOPC   H8S17786   2.812   1.972   5.627 -0.1195  0.1847 -0.1972
  149DOPC   C2917787   2.968   1.825   5.607 -0.1976  0.4863 -0.1786
  149DOPC   H9R17788   2.919   1.756   5.678 -2.8290  2.8198  0.4141
  149DOPC  C21017789   3.059   1.765   5.530  0.3811  0.7119  0.3045
  149DOPC  H10R17790   3.070   1.655   5.536 -3.6325  0.0214 -1.7431
  149DOPC  C21117791   3.129   1.820   5.421 -0.2234  0.6400 -0.4405
  149DOPC  H11R17792   3.238   1.808   5.433 -0.3950 -1.5148 -0.7149
  149DOPC  H11S17793   3.102   1.928   5.424 -0.4917  0.6318  3.6933
  149DOPC  C21217794   3.086   1.753   5.295  0.1607 -0.1955  0.3497
  149DOPC  H12R17795   3.096   1.643   5.294 -1.9554 -0.4268 -1.3514
  149DOPC  H12S17796   3.160   1.787   5.220  0.0252  0.5530  0.5434
  149DOPC  C21317797   2.942   1.790   5.247  0.2134  0.3308  0.9168
  149DOPC  H13R17798   2.933   1.899   5.266 -1.3731  0.0576  1.8323
  149DOPC  H13S17799   2.875   1.738   5.318  0.3521 -0.1730  0.6808
  149DOPC  C21417800   2.911   1.752   5.096  0.0652  0.3931  0.4185
  149DOPC  H14R17801   2.801   1.754   5.081  0.1389  0.7894 -0.0990
  149DOPC  H14S17802   2.951   1.650   5.079  1.6269  1.0172  0.1802
  149DOPC  C21517803   2.980   1.854   5.005  0.4677  0.2885  0.3849
  149DOPC  H15R17804   3.088   1.837   5.025  0.1231  1.0664  3.5417
  149DOPC  H15S17805   2.965   1.958   5.041 -1.8215 -0.0126  0.4344
  149DOPC  C21617806   2.940   1.832   4.861 -0.1144  0.5652  0.4013
  149DOPC  H16R17807   2.831   1.812   4.861 -0.0467  0.1358  1.5566
  149DOPC  H16S17808   2.988   1.739   4.824 -1.1335 -0.4275  1.5100
  149DOPC  C21717809   2.988   1.942   4.773  0.9170 -0.1057  0.1705
  149DOPC  H17R17810   3.096   1.961   4.793  0.6369  0.4932  1.2332
  149DOPC  H17S17811   2.934   2.033   4.806 -0.4463 -0.7733 -0.1672
  149DOPC  C21817812   2.970   1.922   4.623 -0.1825 -0.4400 -0.9157
  149DOPC  H18R17813   3.057   1.865   4.583 -0.1401 -0.5721 -0.6392
  149DOPC  H18S17814   2.977   2.021   4.574  0.0835 -0.8262 -1.6687
  149DOPC  H18T17815   2.876   1.867   4.601  0.6595 -2.4150  0.1649
  149DOPC   C3317816   3.432   2.246   6.097  0.2348  0.0297 -0.0926
  149DOPC   H3X17817   3.513   2.174   6.121  0.6250 -0.0512 -1.5544
  149DOPC   H3Y17818   3.479   2.344   6.073 -0.7469  0.7215  0.7398
  149DOPC   C3417819   3.360   2.202   5.964  0.2015 -0.6772  0.1058
  149DOPC   H4X17820   3.263   2.253   5.949  0.6285  0.5802  1.4603
  149DOPC   H4Y17821   3.344   2.092   5.962 -0.9742 -0.5511 -2.7993
  149DOPC   C3517822   3.445   2.235   5.840  0.2220 -0.2724  0.8865
  149DOPC   H5X17823   3.542   2.183   5.856  1.0726  1.0010  0.0278
  149DOPC   H5Y17824   3.464   2.344   5.831 -0.8065 -0.1010  0.6493
  149DOPC   C3617825   3.386   2.174   5.705 -0.2155  0.3848 -0.4109
  149DOPC   H6X17826   3.346   2.071   5.718  0.8643 -0.1470 -1.2032
  149DOPC   H6Y17827   3.305   2.241   5.667  0.9206  1.0102 -1.8100
  149DOPC   C3717828   3.489   2.170   5.589 -0.1255 -0.2458 -0.8239
  149DOPC   H7X17829   3.524   2.276   5.588  1.6928 -0.8017 -0.4095
  149DOPC   H7Y17830   3.579   2.113   5.620 -0.7860 -0.7370  0.2557
  149DOPC   C3817831   3.432   2.129   5.453 -0.3706  0.6170 -0.2567
  149DOPC   H8X17832   3.324   2.154   5.444 -0.9747 -0.2270  3.2205
  149DOPC   H8Y17833   3.424   2.020   5.467 -2.0018  0.8546  0.9927
  149DOPC   C3917834   3.517   2.183   5.342 -0.3486  0.0013  0.2287
  149DOPC   H9X17835   3.499   2.289   5.320 -0.8121 -0.1968 -0.3887
  149DOPC  C31017836   3.600   2.106   5.266  0.0213  0.0501  0.1162
  149DOPC  H10X17837   3.657   2.153   5.184 -2.3990  1.3560 -0.9260
  149DOPC  C31117838   3.606   1.955   5.276  0.3807 -0.0729  0.3372
  149DOPC  H11X17839   3.511   1.897   5.283  1.3899 -1.7541  0.6542
  149DOPC  H11Y17840   3.660   1.927   5.369  0.5336 -0.0709  0.2487
  149DOPC  C31217841   3.682   1.894   5.154 -0.1573  0.0652 -0.1126
  149DOPC  H12X17842   3.706   1.786   5.162 -0.3475  0.0424  0.1640
  149DOPC  H12Y17843   3.782   1.939   5.166 -0.3280  0.2853  0.5282
  149DOPC  C31317844   3.621   1.922   5.020  0.3531 -0.1457  0.4486
  149DOPC  H13X17845   3.601   2.032   5.017  0.5556 -0.1207 -0.9957
  149DOPC  H13Y17846   3.694   1.909   4.937  0.6934  0.0889  0.7104
  149DOPC  C31417847   3.496   1.836   4.995 -0.2145 -0.0151 -0.1000
  149DOPC  H14X17848   3.525   1.729   4.998 -0.8099 -0.1904 -0.5367
  149DOPC  H14Y17849   3.419   1.856   5.073  1.1850  0.1782  1.2990
  149DOPC  C31517850   3.454   1.847   4.845 -0.0434  0.0147  0.1980
  149DOPC  H15X17851   3.540   1.865   4.778 -0.2239  1.9803  0.4421
  149DOPC  H15Y17852   3.397   1.941   4.832  0.6655  0.3802 -0.2935
  149DOPC  C31617853   3.370   1.729   4.789  0.5770  0.4738  0.3727
  149DOPC  H16X17854   3.428   1.636   4.807  1.3212  1.0728  1.1941
  149DOPC  H16Y17855   3.268   1.725   4.835 -0.4028 -1.0162 -1.7748
  149DOPC  C31717856   3.359   1.732   4.637 -0.1404  0.1040  0.3170
  149DOPC  H17X17857   3.320   1.830   4.604 -3.1470 -1.1461 -0.1421
  149DOPC  H17Y17858   3.459   1.709   4.595  0.5350  0.4674  1.6606
  149DOPC  C31817859   3.243   1.634   4.584  0.0309  0.2294 -0.4383
  149DOPC  H18X17860   3.275   1.528   4.573  1.8548  0.9454 -2.8574
  149DOPC  H18Y17861   3.159   1.643   4.656  2.0983 -1.3685  2.3576
  149DOPC  H18Z17862   3.209   1.677   4.487  0.7494 -2.9712 -2.2827
  150DOPC     N17863   5.554   4.774   7.509 -0.0188  0.0816  0.4983
  150DOPC   C1217864   5.613   4.803   7.361 -0.7151  0.1057 -0.5164
  150DOPC  H12A17865   5.607   4.713   7.302  0.2190  0.5285 -1.2757
  150DOPC  H12B17866   5.719   4.822   7.370 -0.9186  1.1909 -0.2385
  150DOPC   C1317867   5.405   4.762   7.505 -0.0623 -0.6762  0.3073
  150DOPC  H13A17868   5.377   4.741   7.608  1.6771 -1.1092  0.7187
  150DOPC  H13B17869   5.357   4.852   7.470 -2.2843 -1.4413  1.1734
  150DOPC  H13C17870   5.371   4.676   7.449 -0.6049 -0.4598  0.2984
  150DOPC   C1417871   5.593   4.871   7.616 -0.1606  0.2082 -0.1277
  150DOPC  H14A17872   5.539   4.965   7.615 -2.1215 -0.8494  0.1774
  150DOPC  H14B17873   5.557   4.826   7.707  0.7382 -1.9339 -0.7670
  150DOPC  H14C17874   5.700   4.876   7.625 -0.3312  1.1772  1.9654
  150DOPC   C1517875   5.608   4.642   7.551  0.0886 -0.4584 -0.6667
  150DOPC  H15A17876   5.588   4.571   7.473 -0.1670 -0.6646 -0.4147
  150DOPC  H15B17877   5.567   4.610   7.646  0.9780 -1.3526 -0.5667
  150DOPC  H15C17878   5.714   4.652   7.569 -0.1955  0.5948  0.5962
  150DOPC   C1117879   5.555   4.921   7.285 -0.2661  0.2208 -0.6646
  150DOPC  H11A17880   5.609   4.937   7.189 -1.0324 -0.3764 -1.2081
  150DOPC  H11B17881   5.446   4.909   7.266 -0.1674  1.2905 -2.0296
  150DOPC     P17882   5.481   5.170   7.357 -0.0673 -0.4148  0.0751
  150DOPC   O1317883   5.537   5.288   7.427 -0.1044  0.3848  0.7601
  150DOPC   O1417884   5.349   5.120   7.396  0.3133  0.5624  0.2126
  150DOPC   O1217885   5.574   5.037   7.363 -0.4371  0.0821  0.6845
  150DOPC   O1117886   5.476   5.199   7.202  0.0687 -0.2547  0.4831
  150DOPC    C117887   5.565   5.300   7.141 -0.0746 -0.2473 -0.0165
  150DOPC    HA17888   5.669   5.274   7.170 -0.4031 -2.6094 -0.7512
  150DOPC    HB17889   5.530   5.399   7.178 -0.2441  0.4041 -1.8105
  150DOPC    C217890   5.542   5.304   6.986  0.3451  0.0964 -0.0203
  150DOPC    HS17891   5.451   5.366   6.970 -0.5831 -1.2561 -0.1611
  150DOPC   O2117892   5.529   5.161   6.938  0.2223 -0.2187 -0.0471
  150DOPC   C2117893   5.420   5.145   6.853  0.0030  0.1630  0.0164
  150DOPC   O2217894   5.340   5.231   6.817  0.2774  0.2241 -0.2596
  150DOPC   C2217895   5.425   4.994   6.826 -0.4023 -0.5958 -0.3890
  150DOPC   H2R17896   5.409   4.940   6.922 -0.8770  0.5558  0.1913
  150DOPC   H2S17897   5.525   4.970   6.783 -1.3627 -0.2741 -2.9882
  150DOPC    C317898   5.673   5.365   6.919  1.4197 -0.1856 -0.1286
  150DOPC    HX17899   5.761   5.317   6.967  0.7621 -1.7777 -0.4639
  150DOPC    HY17900   5.669   5.470   6.954  0.5966 -0.4621  0.6434
  150DOPC   O3117901   5.683   5.355   6.773 -0.4514  0.3774  0.7449
  150DOPC   C3117902   5.591   5.426   6.712 -0.4300  0.0088  0.0893
  150DOPC   O3217903   5.511   5.504   6.757 -0.2949  0.4916  0.3161
  150DOPC   C3217904   5.593   5.371   6.568  0.0074 -0.1803 -0.5676
  150DOPC   H2X17905   5.695   5.374   6.524 -1.3216  0.7821 -3.9376
  150DOPC   H2Y17906   5.571   5.264   6.585  0.7039  0.1850  3.7217
  150DOPC   C2317907   5.331   4.954   6.721 -0.2952  0.1947  0.4690
  150DOPC   H3R17908   5.226   4.984   6.746  0.8111  2.7364  2.6194
  150DOPC   H3S17909   5.340   4.844   6.718  0.2489  0.2660 -0.6375
  150DOPC   C2417910   5.380   5.009   6.581  0.7241  0.3545 -0.2745
  150DOPC   H4R17911   5.386   5.120   6.575  2.4657  0.3057  0.1099
  150DOPC   H4S17912   5.293   4.983   6.517  0.8403  1.7144 -1.0293
  150DOPC   C2517913   5.513   4.953   6.536  0.3481  0.1171  0.3774
  150DOPC   H5R17914   5.528   4.844   6.553  0.3037 -0.2197 -1.5070
  150DOPC   H5S17915   5.602   5.002   6.581  0.8631  1.3685 -1.8367
  150DOPC   C2617916   5.528   4.962   6.381  0.2713  0.7658  0.4955
  150DOPC   H6R17917   5.635   4.953   6.354 -0.0908  0.0371 -0.7929
  150DOPC   H6S17918   5.492   5.062   6.350 -2.5681  0.0867  1.2783
  150DOPC   C2717919   5.456   4.845   6.303 -0.3678  0.8944  0.2335
  150DOPC   H7R17920   5.352   4.849   6.342 -0.6514 -0.4076 -0.3378
  150DOPC   H7S17921   5.493   4.748   6.342 -0.0199  1.1013  0.4261
  150DOPC   C2817922   5.469   4.843   6.148  0.3675  0.4612  0.2479
  150DOPC   H8R17923   5.557   4.905   6.121 -0.7239  1.0439 -2.2459
  150DOPC   H8S17924   5.390   4.910   6.108  0.3733 -0.9604 -2.3823
  150DOPC   C2917925   5.460   4.705   6.076 -0.5354  0.0938  0.2156
  150DOPC   H9R17926   5.364   4.652   6.080  0.9698 -3.0065  5.8073
  150DOPC  C21017927   5.565   4.642   6.022 -0.1467  0.8122 -0.1605
  150DOPC  H10R17928   5.556   4.534   6.005 -1.1044  0.6241  1.4471
  150DOPC  C21117929   5.711   4.692   6.006  0.7453  0.0332  0.4958
  150DOPC  H11R17930   5.731   4.797   6.033 -0.0611  0.2733  0.2064
  150DOPC  H11S17931   5.719   4.705   5.896 -1.0572  0.5846  0.4061
  150DOPC  C21217932   5.822   4.611   6.062 -0.1871  0.7147 -0.3904
  150DOPC  H12R17933   5.921   4.639   6.020 -0.6926  1.0282 -1.4157
  150DOPC  H12S17934   5.814   4.502   6.041 -0.4774  0.4244  1.1039
  150DOPC  C21317935   5.825   4.632   6.219 -0.1722 -0.1666 -0.1458
  150DOPC  H13R17936   5.742   4.588   6.279  0.7447 -1.1294  0.4527
  150DOPC  H13S17937   5.825   4.736   6.257 -0.4663 -0.1697 -0.1343
  150DOPC  C21417938   5.954   4.557   6.255 -0.4427 -0.2920  0.0451
  150DOPC  H14R17939   6.036   4.593   6.189  0.3032  0.0162  1.1110
  150DOPC  H14S17940   5.956   4.447   6.249  1.6897 -0.2042 -2.2930
  150DOPC  C21517941   5.999   4.600   6.399 -0.3439  0.5345  0.0803
  150DOPC  H15R17942   5.983   4.709   6.413 -1.6125  0.5194 -0.9475
  150DOPC  H15S17943   6.108   4.586   6.408 -0.1807 -0.3427 -2.4972
  150DOPC  C21617944   5.934   4.520   6.510  0.1822  0.1436  0.2622
  150DOPC  H16R17945   5.831   4.558   6.530 -0.2897 -1.3219  0.7714
  150DOPC  H16S17946   5.982   4.555   6.604  0.8798  0.7567 -0.3202
  150DOPC  C21717947   5.941   4.364   6.494  0.5532 -1.1520  0.7506
  150DOPC  H17R17948   6.048   4.356   6.464  0.1707  1.2041 -1.6240
  150DOPC  H17S17949   5.867   4.345   6.414  0.5596 -1.9124  0.9182
  150DOPC  C21817950   5.900   4.272   6.610  0.0352 -0.0988  0.6938
  150DOPC  H18R17951   5.945   4.171   6.596 -1.1524 -1.0375  3.0958
  150DOPC  H18S17952   5.791   4.253   6.617 -0.3159  1.9787  1.2394
  150DOPC  H18T17953   5.927   4.325   6.703 -2.5431  3.5420 -0.4176
  150DOPC   C3317954   5.498   5.432   6.465 -0.0514  0.5021  0.0566
  150DOPC   H3X17955   5.433   5.513   6.503  1.2666  0.7885  1.8445
  150DOPC   H3Y17956   5.428   5.353   6.430  1.1392 -0.6729  0.2273
  150DOPC   C3417957   5.577   5.477   6.335 -0.6323 -0.8396 -0.2740
  150DOPC   H4X17958   5.668   5.531   6.369 -0.3873 -1.4122 -0.0072
  150DOPC   H4Y17959   5.513   5.529   6.260 -0.3742 -0.9914 -0.5978
  150DOPC   C3517960   5.635   5.358   6.249  0.7766  0.3084  0.7918
  150DOPC   H5X17961   5.666   5.278   6.319 -0.9642 -2.1443 -1.0994
  150DOPC   H5Y17962   5.724   5.400   6.195  1.5419  0.1250  1.8844
  150DOPC   C3617963   5.534   5.303   6.142  0.6156 -0.0135 -0.0674
  150DOPC   H6X17964   5.458   5.241   6.194  0.9264  0.2519  0.7305
  150DOPC   H6Y17965   5.479   5.388   6.097  1.8833  1.6903  1.4710
  150DOPC   C3717966   5.596   5.215   6.034  0.7317 -0.3003  0.4462
  150DOPC   H7X17967   5.686   5.268   5.995 -0.8455  1.3390 -1.1440
  150DOPC   H7Y17968   5.624   5.118   6.080  1.6585 -0.0244  0.4856
  150DOPC   C3817969   5.503   5.184   5.922  0.3386 -0.2472  0.5981
  150DOPC   H8X17970   5.449   5.275   5.889  1.8750  0.8938  1.1209
  150DOPC   H8Y17971   5.432   5.107   5.960  0.5649 -0.0154  1.5049
  150DOPC   C3917972   5.580   5.130   5.804 -0.0052  0.1640 -0.0904
  150DOPC   H9X17973   5.674   5.182   5.783  0.7657 -0.8173  0.7846
  150DOPC  C31017974   5.555   5.031   5.722 -0.0901  0.4404  0.1569
  150DOPC  H10X17975   5.623   5.004   5.639  0.7738 -2.0603  1.5612
  150DOPC  C31117976   5.436   4.939   5.729 -0.4256 -0.2103 -0.1747
  150DOPC  H11X17977   5.418   4.900   5.831  2.2684  1.4046  1.0326
  150DOPC  H11Y17978   5.453   4.848   5.669  1.1383  0.9365 -1.5798
  150DOPC  C31217979   5.306   4.994   5.674  0.5517  0.5188 -0.0383
  150DOPC  H12X17980   5.322   5.017   5.566 -1.8442  0.2619 -0.5061
  150DOPC  H12Y17981   5.283   5.086   5.731 -0.0290 -1.0881  2.4682
  150DOPC  C31317982   5.188   4.895   5.683  0.6380  0.6762  0.1599
  150DOPC  H13X17983   5.229   4.794   5.661 -1.0357  0.5522 -2.9877
  150DOPC  H13Y17984   5.150   4.899   5.788 -0.3976 -1.3298 -0.0825
  150DOPC  C31417985   5.075   4.919   5.571  0.4980  0.0742  0.1683
  150DOPC  H14X17986   5.029   5.019   5.589 -0.2643 -0.1839 -0.2890
  150DOPC  H14Y17987   5.120   4.913   5.470 -1.8118  2.1581 -1.0973
  150DOPC  C31517988   4.982   4.802   5.559  0.6499  0.2375  0.0147
  150DOPC  H15X17989   5.043   4.712   5.534 -1.3972 -1.2052 -0.0596
  150DOPC  H15Y17990   4.911   4.828   5.477  0.9543  1.2421  0.0512
  150DOPC  C31617991   4.914   4.780   5.696  0.1632  0.1520  0.3639
  150DOPC  H16X17992   4.992   4.767   5.775  0.7013 -0.9907 -0.3214
  150DOPC  H16Y17993   4.846   4.864   5.719  0.2393  0.2227  0.3304
  150DOPC  C31717994   4.827   4.645   5.705 -0.2651 -0.1597 -0.1627
  150DOPC  H17X17995   4.759   4.649   5.617  0.9978 -1.0758 -1.2388
  150DOPC  H17Y17996   4.891   4.556   5.685 -2.4120 -1.6527 -0.6749
  150DOPC  C31817997   4.752   4.642   5.837  0.2280 -0.0170  0.1168
  150DOPC  H18X17998   4.825   4.627   5.919  0.6176 -1.6140 -0.4781
  150DOPC  H18Y17999   4.698   4.737   5.860 -0.4052 -0.6250  1.2109
  150DOPC  H18Z18000   4.686   4.553   5.839  0.4078 -0.1437  1.1685
  151DOPC     N18001   2.317   2.238   6.799 -0.2268  0.4563  0.0302
  151DOPC   C1218002   2.374   2.237   6.658 -0.5592 -0.0785  0.4145
  151DOPC  H12A18003   2.374   2.140   6.612  0.3959  0.8234 -1.6540
  151DOPC  H12B18004   2.481   2.252   6.657 -0.2332 -1.7194 -2.9453
  151DOPC   C1318005   2.337   2.368   6.876 -0.5785  0.7056 -0.0657
  151DOPC  H13A18006   2.265   2.443   6.846 -0.1147  1.0308 -0.3791
  151DOPC  H13B18007   2.314   2.353   6.980  1.4860 -0.8707  0.2344
  151DOPC  H13C18008   2.438   2.406   6.880  0.0214 -0.9367  2.7312
  151DOPC   C1418009   2.398   2.134   6.883  0.4204 -0.0939 -0.2120
  151DOPC  H14A18010   2.503   2.160   6.876  0.0289  1.5769 -0.2238
  151DOPC  H14B18011   2.375   2.121   6.988  0.2322  0.2580 -0.2091
  151DOPC  H14C18012   2.366   2.040   6.841 -0.0339 -0.9256  1.8907
  151DOPC   C1518013   2.172   2.205   6.804 -0.1456  0.7870 -0.5659
  151DOPC  H15A18014   2.115   2.268   6.738  0.0560 -0.0711 -1.5899
  151DOPC  H15B18015   2.131   2.205   6.904 -0.0072 -0.3235 -0.4971
  151DOPC  H15C18016   2.157   2.104   6.768  0.2611 -0.3715  2.2365
  151DOPC   C1118017   2.308   2.334   6.557  0.2655 -0.3919 -0.0776
  151DOPC  H11A18018   2.337   2.307   6.453  0.2916 -1.0475  0.1007
  151DOPC  H11B18019   2.199   2.310   6.558  0.0166  0.6502 -0.4645
  151DOPC     P18020   2.247   2.586   6.507 -0.1146 -0.0466  0.3883
  151DOPC   O1318021   2.297   2.716   6.563 -0.2970  0.1975  0.2544
  151DOPC   O1418022   2.104   2.554   6.505  0.3315  0.0434  0.2404
  151DOPC   O1218023   2.324   2.473   6.585  0.0426  0.0370  0.6082
  151DOPC   O1118024   2.314   2.572   6.359  0.7972  0.0013 -0.3444
  151DOPC    C118025   2.237   2.552   6.243  0.4108  0.3608  0.0293
  151DOPC    HA18026   2.280   2.622   6.168  0.5610 -0.0656 -0.2812
  151DOPC    HB18027   2.135   2.593   6.259  0.5814  0.9677 -0.3954
  151DOPC    C218028   2.253   2.407   6.190 -0.4438 -0.1689  0.4795
  151DOPC    HS18029   2.215   2.338   6.268  0.9099 -0.9277  0.4972
  151DOPC   O2118030   2.394   2.398   6.170  0.3551  0.0803  0.3391
  151DOPC   C2118031   2.433   2.274   6.140  0.0687 -0.0855 -0.3776
  151DOPC   O2218032   2.363   2.177   6.142  0.8949 -0.0841 -0.6081
  151DOPC   C2218033   2.583   2.278   6.107  0.1615 -0.2042 -0.0199
  151DOPC   H2R18034   2.618   2.192   6.169 -2.1821 -0.5922  0.8478
  151DOPC   H2S18035   2.628   2.375   6.136  2.5387 -0.5952 -2.0756
  151DOPC    C318036   2.175   2.386   6.056  0.6502 -0.4874  0.5625
  151DOPC    HX18037   2.187   2.285   6.011  2.3806  0.5800 -1.5504
  151DOPC    HY18038   2.229   2.455   5.989 -0.2110 -0.0621  0.2970
  151DOPC   O3118039   2.040   2.433   6.062  0.3901  0.2685  0.3813
  151DOPC   C3118040   1.952   2.340   6.093  0.6917 -1.2078 -0.0588
  151DOPC   O3218041   1.975   2.226   6.137 -0.1016  0.1378 -0.2642
  151DOPC   C3218042   1.811   2.401   6.085  0.0906 -0.0800  0.1656
  151DOPC   H2X18043   1.757   2.324   6.027  1.3428  0.1075 -1.3254
  151DOPC   H2Y18044   1.774   2.422   6.188 -0.1112  0.2172  0.0328
  151DOPC   C2318045   2.618   2.243   5.963 -0.0878 -0.0032 -0.3229
  151DOPC   H3R18046   2.561   2.151   5.939 -4.2771  1.9227  1.2743
  151DOPC   H3S18047   2.728   2.240   5.948 -0.0003 -1.5648  0.4019
  151DOPC   C2418048   2.578   2.353   5.861 -0.6486 -0.0248 -0.0040
  151DOPC   H4R18049   2.616   2.452   5.893 -0.0086 -0.7069  1.4478
  151DOPC   H4S18050   2.470   2.368   5.838 -1.7082 -3.0956  2.2573
  151DOPC   C2518051   2.648   2.328   5.728  0.4515 -1.0288 -0.1033
  151DOPC   H5R18052   2.622   2.223   5.700  0.7518 -2.3662  3.9136
  151DOPC   H5S18053   2.756   2.334   5.756  0.2587 -0.4166  0.5148
  151DOPC   C2618054   2.635   2.435   5.617  0.7573 -0.2801  0.0613
  151DOPC   H6R18055   2.622   2.531   5.670  0.6233 -0.7502  0.8916
  151DOPC   H6S18056   2.541   2.407   5.565 -0.5639 -0.3973  2.4006
  151DOPC   C2718057   2.754   2.424   5.523  0.1842 -0.2721 -0.2976
  151DOPC   H7R18058   2.773   2.318   5.495 -0.6565 -0.7907  1.0058
  151DOPC   H7S18059   2.849   2.456   5.571 -0.8046  0.0763  1.5012
  151DOPC   C2818060   2.746   2.504   5.390 -0.2107  0.0463 -0.5419
  151DOPC   H8R18061   2.850   2.520   5.354 -0.3672 -1.4771 -1.7688
  151DOPC   H8S18062   2.696   2.601   5.411  0.9764  0.9157 -1.5782
  151DOPC   C2918063   2.659   2.435   5.289 -0.3530  0.2512  0.4654
  151DOPC   H9R18064   2.554   2.449   5.319 -0.1333  1.5209  0.7051
  151DOPC  C21018065   2.704   2.395   5.169  0.4327  0.1112  0.1118
  151DOPC  H10R18066   2.633   2.355   5.095  0.7895 -0.6801  0.1837
  151DOPC  C21118067   2.845   2.386   5.120 -0.5046  0.5085 -0.2867
  151DOPC  H11R18068   2.905   2.470   5.161  0.9782 -0.6562  0.0211
  151DOPC  H11S18069   2.853   2.378   5.010 -0.4601  1.2999 -0.3495
  151DOPC  C21218070   2.926   2.266   5.165 -0.0936 -0.4382  0.5046
  151DOPC  H12R18071   2.856   2.181   5.148 -1.0189 -0.3787  3.5617
  151DOPC  H12S18072   2.948   2.262   5.273  1.2024  1.6789  0.3588
  151DOPC  C21318073   3.050   2.236   5.067  0.5163 -0.4437  0.2219
  151DOPC  H13R18074   3.007   2.223   4.966 -0.0240  0.5640  0.2992
  151DOPC  H13S18075   3.101   2.141   5.094  0.3764 -0.8094 -0.7534
  151DOPC  C21418076   3.163   2.334   5.076 -0.2608 -0.3372  0.4741
  151DOPC  H14R18077   3.194   2.331   5.183  0.0659  0.1451  0.3957
  151DOPC  H14S18078   3.126   2.436   5.052  0.5280  0.0543  0.8834
  151DOPC  C21518079   3.281   2.310   4.982 -0.0839  0.5637 -0.1265
  151DOPC  H15R18080   3.327   2.222   5.032 -0.6715  0.4542  0.2379
  151DOPC  H15S18081   3.368   2.377   5.001  0.8713 -0.8383  0.5947
  151DOPC  C21618082   3.259   2.298   4.833  0.3662  0.1896  0.2590
  151DOPC  H16R18083   3.182   2.223   4.807  0.0631  0.0940  1.3899
  151DOPC  H16S18084   3.353   2.261   4.786  0.5596 -1.5703  1.9404
  151DOPC  C21718085   3.222   2.435   4.771 -0.0218  0.3570 -0.7119
  151DOPC  H17R18086   3.312   2.500   4.775 -0.3335  0.7255  0.7297
  151DOPC  H17S18087   3.136   2.474   4.829 -0.5269 -1.8397  0.1247
  151DOPC  C21818088   3.180   2.430   4.623 -0.2307 -0.1971 -0.2732
  151DOPC  H18R18089   3.108   2.347   4.609 -1.3856  0.9315 -1.3126
  151DOPC  H18S18090   3.266   2.418   4.554  1.2848  3.1347  0.7937
  151DOPC  H18T18091   3.137   2.528   4.593  0.6493  0.2500 -0.1100
  151DOPC   C3318092   1.802   2.535   6.006 -0.2959 -0.4633 -0.1224
  151DOPC   H3X18093   1.857   2.523   5.910  2.6169 -0.3911  1.4034
  151DOPC   H3Y18094   1.847   2.618   6.065  1.6147 -1.8367  0.4469
  151DOPC   C3418095   1.654   2.563   5.955 -0.1776 -0.3823 -0.2699
  151DOPC   H4X18096   1.582   2.554   6.038  0.4974 -0.8157  0.2853
  151DOPC   H4Y18097   1.615   2.492   5.879  2.1677 -0.4002 -1.5568
  151DOPC   C3518098   1.639   2.709   5.905 -0.4498 -0.3564 -0.1256
  151DOPC   H5X18099   1.671   2.777   5.987 -0.4372 -1.5112  0.8543
  151DOPC   H5Y18100   1.533   2.739   5.893  0.1612  1.8770 -0.5423
  151DOPC   C3618101   1.709   2.729   5.775 -0.6848  0.2510 -0.6409
  151DOPC   H6X18102   1.819   2.713   5.782 -0.5537  1.7385  3.3886
  151DOPC   H6Y18103   1.661   2.655   5.708 -0.2951  0.9960 -1.7823
  151DOPC   C3718104   1.693   2.866   5.711  0.0025  0.5699  0.7368
  151DOPC   H7X18105   1.585   2.884   5.734 -0.2540  1.1398 -0.8229
  151DOPC   H7Y18106   1.751   2.946   5.761 -1.3755  0.7628  2.1247
  151DOPC   C3818107   1.715   2.860   5.553  0.4647  0.6852 -0.1533
  151DOPC   H8X18108   1.679   2.957   5.512  2.1363  2.3421  2.0578
  151DOPC   H8Y18109   1.661   2.776   5.504 -0.1260  0.9834 -0.0194
  151DOPC   C3918110   1.859   2.844   5.507  0.0411 -0.1605  0.9208
  151DOPC   H9X18111   1.895   2.740   5.499  0.8314  0.0636  1.4741
  151DOPC  C31018112   1.938   2.945   5.472 -0.9315 -0.2554  0.0962
  151DOPC  H10X18113   2.035   2.920   5.426 -2.4865 -4.0522 -1.5469
  151DOPC  C31118114   1.903   3.083   5.507  0.6790 -0.7972  0.0494
  151DOPC  H11X18115   1.827   3.082   5.589 -2.0249  2.7072 -2.1475
  151DOPC  H11Y18116   1.854   3.135   5.423  0.5954  1.7577  1.5884
  151DOPC  C31218117   2.034   3.154   5.561  0.5145  0.3647 -0.1286
  151DOPC  H12X18118   2.009   3.259   5.584  1.9054  0.5252  0.8031
  151DOPC  H12Y18119   2.105   3.147   5.476  0.5962  0.9432 -0.1054
  151DOPC  C31318120   2.087   3.093   5.692 -0.4734  0.2031  0.4590
  151DOPC  H13X18121   2.079   2.982   5.690 -0.4682  0.1678  1.5023
  151DOPC  H13Y18122   2.192   3.128   5.704 -0.2615 -0.1422 -0.3588
  151DOPC  C31418123   2.020   3.155   5.814 -0.7878 -0.5733  0.2505
  151DOPC  H14X18124   2.035   3.264   5.824  0.7216 -0.6003 -1.2853
  151DOPC  H14Y18125   1.910   3.149   5.800 -0.9990  2.1951  0.3406
  151DOPC  C31518126   2.064   3.096   5.950  0.4434  0.8109 -0.4776
  151DOPC  H15X18127   2.025   3.145   6.042  0.5050 -2.0307  1.1816
  151DOPC  H15Y18128   2.174   3.078   5.953  0.3878  0.2905 -1.3374
  151DOPC  C31618129   1.997   2.957   5.959 -0.4087  0.2707  1.0442
  151DOPC  H16X18130   1.893   2.961   5.999 -0.2721 -1.3479  1.6200
  151DOPC  H16Y18131   1.995   2.909   5.858 -0.5270  1.4802  0.4497
  151DOPC  C31718132   2.070   2.861   6.047  0.1050  0.5164 -0.5151
  151DOPC  H17X18133   2.005   2.774   6.068 -0.6857  0.9532 -1.1133
  151DOPC  H17Y18134   2.164   2.825   5.999 -0.1433  0.1092 -0.7002
  151DOPC  C31818135   2.101   2.918   6.188 -0.2860  0.2534  0.5405
  151DOPC  H18X18136   2.165   3.008   6.198 -1.3101  0.7420  3.5515
  151DOPC  H18Y18137   2.004   2.940   6.237 -0.0776 -0.8170  1.4686
  151DOPC  H18Z18138   2.149   2.836   6.245  2.4809  0.9151 -0.6924
  152DOPC     N18139   3.495   0.902   7.290 -0.0441  0.2377 -0.6509
  152DOPC   C1218140   3.499   0.828   7.151  0.3600  1.0461  0.0541
  152DOPC  H12A18141   3.407   0.773   7.139  0.5935  0.5217  0.6291
  152DOPC  H12B18142   3.577   0.754   7.155  0.8813  1.5904 -0.0056
  152DOPC   C1318143   3.368   0.982   7.313  0.2136  0.0755  0.8133
  152DOPC  H13A18144   3.345   1.029   7.218  1.3620 -1.1768 -0.1298
  152DOPC  H13B18145   3.289   0.910   7.325 -0.2382  0.0512 -1.7643
  152DOPC  H13C18146   3.367   1.038   7.405 -2.0512 -0.9459  1.4814
  152DOPC   C1418147   3.612   0.993   7.298  0.9298 -0.2635  0.6442
  152DOPC  H14A18148   3.705   0.937   7.293  0.8282 -0.5352  1.5686
  152DOPC  H14B18149   3.622   1.072   7.225 -1.3355 -1.2832 -0.8744
  152DOPC  H14C18150   3.605   1.045   7.393 -1.9776 -0.0457  0.3839
  152DOPC   C1518151   3.501   0.799   7.402  0.7460  0.2171  0.4947
  152DOPC  H15A18152   3.594   0.745   7.401  0.1053 -0.9156 -0.2745
  152DOPC  H15B18153   3.427   0.721   7.398  1.8148 -0.8752  1.6099
  152DOPC  H15C18154   3.488   0.843   7.500 -0.4017 -2.4163  1.5945
  152DOPC   C1118155   3.498   0.925   7.022  0.2009 -0.3878 -0.1102
  152DOPC  H11A18156   3.581   0.998   7.036 -0.1665 -0.0587  0.3994
  152DOPC  H11B18157   3.540   0.869   6.935  1.6145 -0.0988  0.3580
  152DOPC     P18158   3.338   1.076   6.878 -0.2025  0.1361 -0.4536
  152DOPC   O1318159   3.302   1.212   6.930 -0.4612  0.3559 -0.0147
  152DOPC   O1418160   3.240   1.010   6.782 -0.5823  0.3026 -0.3486
  152DOPC   O1218161   3.370   0.977   7.000 -0.4412  0.0443  0.0453
  152DOPC   O1118162   3.467   1.102   6.797 -0.1625  0.7331 -0.4218
  152DOPC    C118163   3.499   1.232   6.750  0.0291 -0.1636 -0.0979
  152DOPC    HA18164   3.502   1.305   6.833  0.0569  0.7037 -0.8380
  152DOPC    HB18165   3.421   1.265   6.677 -1.5952 -1.3432  1.0171
  152DOPC    C218166   3.635   1.247   6.682  0.2011  0.1729  0.5088
  152DOPC    HS18167   3.646   1.356   6.664  1.6097  0.3045  1.8691
  152DOPC   O2118168   3.650   1.182   6.556 -0.0695 -0.2616  0.2504
  152DOPC   C2118169   3.571   1.222   6.461 -0.3963 -0.3871 -0.3114
  152DOPC   O2218170   3.491   1.318   6.461 -0.0240  0.4505 -0.0508
  152DOPC   C2218171   3.582   1.119   6.346  0.3622  0.2433 -0.0657
  152DOPC   H2R18172   3.572   1.019   6.392  2.9246 -0.6803 -1.3795
  152DOPC   H2S18173   3.681   1.123   6.296 -1.3012  0.2775 -3.6966
  152DOPC    C318174   3.750   1.199   6.776 -0.1748  0.2095  0.3437
  152DOPC    HX18175   3.728   1.092   6.795 -2.5465  0.7027  0.6479
  152DOPC    HY18176   3.754   1.256   6.871  1.2080 -1.0202  1.0656
  152DOPC   O3118177   3.874   1.212   6.707  0.1894 -0.4341 -0.5590
  152DOPC   C3118178   3.932   1.337   6.709 -0.2133  0.2492  0.2891
  152DOPC   O3218179   3.885   1.436   6.753 -0.3412 -0.1046 -0.3862
  152DOPC   C3218180   4.063   1.340   6.621 -0.1672 -0.5601 -0.5774
  152DOPC   H2X18181   4.125   1.426   6.656 -1.6401  0.4058 -0.2693
  152DOPC   H2Y18182   4.111   1.241   6.639  0.6946  0.1349  1.1511
  152DOPC   C2318183   3.487   1.156   6.230  0.1071 -0.6565  0.5397
  152DOPC   H3R18184   3.493   1.265   6.209  1.5100 -0.9186 -0.5789
  152DOPC   H3S18185   3.382   1.132   6.257  0.5045 -2.6502  0.4181
  152DOPC   C2418186   3.519   1.076   6.102  0.6131 -0.3568  0.0928
  152DOPC   H4R18187   3.496   0.969   6.122  3.2877 -0.9500  0.3099
  152DOPC   H4S18188   3.629   1.071   6.090  0.5978  0.3496 -0.3996
  152DOPC   C2518189   3.464   1.133   5.979  0.6708 -0.1825 -0.9148
  152DOPC   H5R18190   3.481   1.242   5.979 -0.6703  0.0935  1.7489
  152DOPC   H5S18191   3.357   1.103   5.976  0.3710  0.8297 -0.4767
  152DOPC   C2618192   3.519   1.071   5.847 -0.9791  0.3753 -0.2778
  152DOPC   H6R18193   3.506   0.961   5.857  3.3865 -0.2651  0.1084
  152DOPC   H6S18194   3.623   1.107   5.828 -1.4380  1.5411 -0.7003
  152DOPC   C2718195   3.433   1.121   5.733 -0.1497 -0.3104 -0.0434
  152DOPC   H7R18196   3.444   1.231   5.734  3.0857 -0.5318 -0.3096
  152DOPC   H7S18197   3.327   1.101   5.759 -0.2470  0.9530  0.5766
  152DOPC   C2818198   3.485   1.077   5.593 -1.1047 -0.0925  1.2964
  152DOPC   H8R18199   3.520   0.972   5.603 -3.0269 -0.7723  1.2322
  152DOPC   H8S18200   3.578   1.135   5.575 -2.5243  1.7258 -0.8485
  152DOPC   C2918201   3.384   1.105   5.480 -0.0331 -0.2662 -0.0924
  152DOPC   H9R18202   3.293   1.159   5.508  0.2977  0.5346 -0.5222
  152DOPC  C21018203   3.384   1.065   5.354 -0.2977  0.1174  0.2219
  152DOPC  H10R18204   3.298   1.091   5.291  0.7831 -2.2239 -2.4813
  152DOPC  C21118205   3.493   0.993   5.295 -0.2971  0.7129  0.0250
  152DOPC  H11R18206   3.588   0.979   5.351 -1.0699  0.4084  1.2941
  152DOPC  H11S18207   3.515   1.044   5.199  1.0189  1.7195  0.8360
  152DOPC  C21218208   3.454   0.845   5.261  0.1525 -0.0880 -0.4714
  152DOPC  H12R18209   3.366   0.827   5.196 -0.4881 -0.9096  0.5876
  152DOPC  H12S18210   3.443   0.787   5.355  1.0177 -1.1450 -1.0001
  152DOPC  C21318211   3.563   0.787   5.170  0.2411 -0.2932 -0.1525
  152DOPC  H13R18212   3.649   0.768   5.238 -2.5859 -1.7383  3.3118
  152DOPC  H13S18213   3.584   0.856   5.085 -0.7728  1.7479  1.1841
  152DOPC  C21418214   3.521   0.652   5.099  0.5165  0.0142  0.2713
  152DOPC  H14R18215   3.448   0.679   5.019  0.9522  1.3881  0.3073
  152DOPC  H14S18216   3.478   0.574   5.165 -1.0987  1.8478  1.4915
  152DOPC  C21518217   3.639   0.582   5.026 -0.7357  0.3918 -0.4810
  152DOPC  H15R18218   3.680   0.629   4.934 -1.2760 -0.9231 -1.4168
  152DOPC  H15S18219   3.601   0.481   5.001 -0.0093 -0.1572  0.5530
  152DOPC  C21618220   3.766   0.555   5.100 -0.8536 -0.4294  0.1246
  152DOPC  H16R18221   3.739   0.476   5.173 -1.9859  0.2993  0.5180
  152DOPC  H16S18222   3.811   0.640   5.156 -0.8252 -0.3667  0.0062
  152DOPC  C21718223   3.882   0.485   5.026 -0.0205  0.0342  0.2093
  152DOPC  H17R18224   3.961   0.454   5.098  0.2290 -0.6301 -0.3413
  152DOPC  H17S18225   3.942   0.554   4.963 -1.6987 -0.7463 -2.3865
  152DOPC  C21818226   3.840   0.358   4.956  0.4065  0.7007 -1.2283
  152DOPC  H18R18227   3.784   0.362   4.859 -0.2332 -4.9564 -1.4395
  152DOPC  H18S18228   3.785   0.289   5.023  3.1944 -2.2743 -1.7873
  152DOPC  H18T18229   3.924   0.286   4.946 -0.7865 -0.8655 -0.3202
  152DOPC   C3318230   4.038   1.347   6.464  0.7226 -0.6954  0.0581
  152DOPC   H3X18231   4.134   1.351   6.408 -1.1589  0.1882 -3.4225
  152DOPC   H3Y18232   3.984   1.442   6.444  0.8557 -1.2947 -3.8053
  152DOPC   C3418233   3.958   1.234   6.404 -0.4189 -0.3394 -0.2848
  152DOPC   H4X18234   3.850   1.250   6.422 -0.4236 -0.5511 -0.1197
  152DOPC   H4Y18235   3.982   1.137   6.454 -2.8284 -2.6152 -3.1089
  152DOPC   C3518236   3.971   1.213   6.251  0.4360 -0.2764 -0.4241
  152DOPC   H5X18237   3.922   1.120   6.214 -0.5779  0.8991 -2.1536
  152DOPC   H5Y18238   4.079   1.220   6.224  0.4732 -1.0357 -0.4917
  152DOPC   C3618239   3.895   1.322   6.166 -0.0672  0.3240  0.3923
  152DOPC   H6X18240   3.793   1.345   6.204 -0.6228 -0.7875 -0.3474
  152DOPC   H6Y18241   3.948   1.419   6.163  0.2856  0.1472  0.7764
  152DOPC   C3718242   3.876   1.292   6.014 -0.0503  0.4359 -0.9897
  152DOPC   H7X18243   3.969   1.255   5.965 -0.8344  0.6534 -2.6960
  152DOPC   H7Y18244   3.813   1.200   6.016  1.4947 -0.7357  2.7136
  152DOPC   C3818245   3.816   1.406   5.928 -0.5076  0.1195  0.1474
  152DOPC   H8X18246   3.717   1.423   5.975 -0.8399 -1.9064  0.2527
  152DOPC   H8Y18247   3.791   1.366   5.827 -2.0601  0.8482  0.2134
  152DOPC   C3918248   3.910   1.524   5.919 -0.0193 -0.0263  0.7211
  152DOPC   H9X18249   3.881   1.613   5.976 -0.6213  1.3832 -1.6487
  152DOPC  C31018250   4.034   1.522   5.853 -0.8723  0.4450 -0.6753
  152DOPC  H10X18251   4.105   1.605   5.860  0.4555 -0.7773  1.4340
  152DOPC  C31118252   4.088   1.404   5.771 -0.0591 -0.2277  0.5184
  152DOPC  H11X18253   4.026   1.312   5.778 -0.9506  0.4024  1.3859
  152DOPC  H11Y18254   4.177   1.370   5.828  0.8503  2.0130  0.5642
  152DOPC  C31218255   4.125   1.450   5.627 -0.1227  0.3987 -0.5985
  152DOPC  H12X18256   4.209   1.522   5.633  1.4357 -1.4460  1.7275
  152DOPC  H12Y18257   4.034   1.493   5.581  0.0843 -0.2917 -1.7084
  152DOPC  C31318258   4.163   1.328   5.546  0.0665 -0.1186 -0.0641
  152DOPC  H13X18259   4.249   1.279   5.597  0.4745  0.2123 -0.4384
  152DOPC  H13Y18260   4.079   1.255   5.546 -0.9138  0.9735  0.6149
  152DOPC  C31418261   4.194   1.375   5.404  0.2422 -0.0468 -0.1612
  152DOPC  H14X18262   4.104   1.391   5.341 -0.9733 -0.7712  1.3036
  152DOPC  H14Y18263   4.260   1.462   5.421  0.7232 -0.6868  1.4814
  152DOPC  C31518264   4.279   1.267   5.333 -0.9553  0.4523 -0.2816
  152DOPC  H15X18265   4.222   1.174   5.313 -0.8096 -0.2832  2.2966
  152DOPC  H15Y18266   4.362   1.228   5.396 -1.0249  2.1444  0.9320
  152DOPC  C31618267   4.334   1.309   5.203  0.2756 -0.0376  0.2766
  152DOPC  H16X18268   4.252   1.355   5.145  2.6593  0.3502 -3.0468
  152DOPC  H16Y18269   4.418   1.380   5.219 -1.6338  2.5597 -0.5946
  152DOPC  C31718270   4.398   1.192   5.125  0.9456 -0.1903 -0.0019
  152DOPC  H17X18271   4.478   1.144   5.185  0.1050 -2.4212 -0.5551
  152DOPC  H17Y18272   4.324   1.112   5.105  0.2625  0.1366  1.1194
  152DOPC  C31818273   4.456   1.247   4.996 -0.1627  0.4978  0.5871
  152DOPC  H18X18274   4.379   1.225   4.918  3.5771 -0.2743 -3.2316
  152DOPC  H18Y18275   4.489   1.353   5.003 -0.5351  0.6875 -0.3560
  152DOPC  H18Z18276   4.530   1.172   4.961 -1.5641 -0.9026  0.5153
  153DOPC     N18277   5.366   7.117   6.697  0.0659  0.2180  0.3798
  153DOPC   C1218278   5.450   7.196   6.600  0.2473 -0.0855 -0.2969
  153DOPC  H12A18279   5.494   7.117   6.540  0.7584 -0.2374  0.2552
  153DOPC  H12B18280   5.538   7.240   6.645  0.5084 -0.7553 -0.1234
  153DOPC   C1318281   5.357   7.179   6.830  0.3793 -0.5900  0.3009
  153DOPC  H13A18282   5.448   7.185   6.889 -1.1659  0.9785  2.6879
  153DOPC  H13B18283   5.332   7.284   6.825  2.1118 -0.1000  0.8615
  153DOPC  H13C18284   5.283   7.134   6.893  0.0439 -0.3668  0.0717
  153DOPC   C1418285   5.425   6.978   6.713  0.6212 -0.6871 -0.2813
  153DOPC  H14A18286   5.357   6.923   6.777 -0.7582  1.5972  0.3308
  153DOPC  H14B18287   5.438   6.930   6.618 -1.9004 -0.5268 -0.7797
  153DOPC  H14C18288   5.519   6.985   6.766 -0.3564  1.5454  1.3105
  153DOPC   C1518289   5.218   7.105   6.654 -0.1747 -0.3609  0.1914
  153DOPC  H15A18290   5.184   7.200   6.614 -2.5516 -0.6558  1.3667
  153DOPC  H15B18291   5.153   7.073   6.734 -0.1641  2.0089  1.2400
  153DOPC  H15C18292   5.205   7.031   6.577  0.2265 -0.3616  0.1182
  153DOPC   C1118293   5.379   7.317   6.536 -0.0005 -0.2912 -0.3370
  153DOPC  H11A18294   5.458   7.377   6.484  0.3106 -1.2789 -1.0330
  153DOPC  H11B18295   5.308   7.269   6.466  0.8415 -2.2921  0.0970
  153DOPC     P18296   5.179   7.462   6.652 -0.2694  0.5218 -0.1150
  153DOPC   O1318297   5.188   7.603   6.617  0.0926 -0.0066  0.1265
  153DOPC   O1418298   5.132   7.427   6.787  0.3551 -0.9739  0.9458
  153DOPC   O1218299   5.325   7.396   6.644 -0.0021  0.1785 -0.0094
  153DOPC   O1118300   5.115   7.382   6.538 -0.3813 -0.1672 -0.1355
  153DOPC    C118301   4.984   7.389   6.496  0.0314  0.8155  0.4140
  153DOPC    HA18302   4.963   7.495   6.470 -1.8351  0.6453  1.0860
  153DOPC    HB18303   4.908   7.374   6.576  0.2636  2.4143  0.9741
  153DOPC    C218304   4.945   7.289   6.382  0.1260 -0.2364 -0.0030
  153DOPC    HS18305   4.921   7.192   6.429 -0.7002  0.0257  0.1339
  153DOPC   O2118306   5.059   7.287   6.296  0.6781 -0.3737 -0.0809
  153DOPC   C2118307   5.125   7.177   6.287  0.2112  0.3249 -0.6558
  153DOPC   O2218308   5.110   7.079   6.359  0.7500 -0.0297  0.1620
  153DOPC   C2218309   5.232   7.184   6.175  0.0674  0.0427 -0.2325
  153DOPC   H2R18310   5.323   7.237   6.210 -0.7113  2.3516 -1.4943
  153DOPC   H2S18311   5.199   7.251   6.093  1.7830  2.4655  0.9276
  153DOPC    C318312   4.816   7.320   6.304 -0.4531  0.0349  0.1414
  153DOPC    HX18313   4.735   7.321   6.380 -0.2504  2.9533  0.4673
  153DOPC    HY18314   4.793   7.249   6.222 -0.3329  1.2520 -0.9893
  153DOPC   O3118315   4.829   7.451   6.250  0.9176  0.1444 -0.9177
  153DOPC   C3118316   4.751   7.546   6.282  0.9650  0.8216 -0.1998
  153DOPC   O3218317   4.673   7.541   6.377  0.3688  0.4589 -0.2922
  153DOPC   C3218318   4.755   7.655   6.178 -0.3470 -0.4301  0.1400
  153DOPC   H2X18319   4.665   7.717   6.201  0.0011 -0.0274  0.4193
  153DOPC   H2Y18320   4.845   7.718   6.186 -0.2187 -0.3482 -1.5542
  153DOPC   C2318321   5.263   7.049   6.118  0.1393 -0.0287  0.3244
  153DOPC   H3R18322   5.171   7.005   6.073  0.2038  0.6845 -0.5425
  153DOPC   H3S18323   5.277   6.976   6.200 -1.8774 -3.4921 -2.1222
  153DOPC   C2418324   5.377   7.032   6.021 -1.2483 -0.4044  0.2112
  153DOPC   H4R18325   5.417   6.928   6.024 -0.4399 -0.1433 -0.9941
  153DOPC   H4S18326   5.468   7.089   6.047 -1.1764  0.2001 -1.2958
  153DOPC   C2518327   5.338   7.066   5.870  0.6997 -0.1933 -0.6017
  153DOPC   H5R18328   5.380   7.165   5.842  2.9323 -1.4582 -2.0229
  153DOPC   H5S18329   5.230   7.060   5.847  0.6305 -0.6714 -0.1570
  153DOPC   C2618330   5.410   6.961   5.779 -0.2751 -0.6459 -0.0155
  153DOPC   H6R18331   5.384   6.865   5.827 -0.3576 -1.1494 -1.0425
  153DOPC   H6S18332   5.518   6.987   5.791 -0.7246  0.4679  2.1697
  153DOPC   C2718333   5.388   6.967   5.626  0.3563 -0.1835 -0.3653
  153DOPC   H7R18334   5.464   6.915   5.563  0.7837 -0.7430  0.5910
  153DOPC   H7S18335   5.393   7.075   5.601 -0.7516 -0.1494 -0.4986
  153DOPC   C2818336   5.248   6.920   5.593 -0.1143 -0.2160  0.0374
  153DOPC   H8R18337   5.227   6.933   5.485 -1.3338  1.9650  0.4819
  153DOPC   H8S18338   5.171   6.979   5.648  0.1167 -0.3965  0.5659
  153DOPC   C2918339   5.225   6.776   5.623  0.7914  0.0049 -0.1006
  153DOPC   H9R18340   5.274   6.744   5.717 -0.6949 -0.7487  0.4436
  153DOPC  C21018341   5.151   6.690   5.548  0.0152 -0.4849 -0.4977
  153DOPC  H10R18342   5.147   6.584   5.578  3.0581 -0.3225  0.8494
  153DOPC  C21118343   5.076   6.706   5.419  0.3630 -0.0575  0.3964
  153DOPC  H11R18344   5.021   6.803   5.423 -1.2443 -0.9479  0.9072
  153DOPC  H11S18345   5.000   6.627   5.399  0.1987  0.5653 -1.7078
  153DOPC  C21218346   5.171   6.711   5.295  0.3297  0.5403 -0.2830
  153DOPC  H12R18347   5.238   6.623   5.294 -0.1780  0.1433  0.0239
  153DOPC  H12S18348   5.242   6.793   5.316  0.1900  0.6222 -0.1253
  153DOPC  C21318349   5.087   6.731   5.166 -0.7349  0.7270 -0.5766
  153DOPC  H13R18350   5.032   6.827   5.182 -0.9375 -0.0115  6.2720
  153DOPC  H13S18351   5.014   6.650   5.150  2.8044 -2.6513 -1.0105
  153DOPC  C21418352   5.181   6.730   5.045  0.1405 -0.8164  0.3002
  153DOPC  H14R18353   5.261   6.653   5.044 -1.7570 -2.9172 -1.0739
  153DOPC  H14S18354   5.224   6.832   5.030  0.2155 -0.9265 -0.2569
  153DOPC  C21518355   5.095   6.714   4.922  0.2457 -0.6342  0.2707
  153DOPC  H15R18356   5.029   6.803   4.920  0.3457 -0.4898  2.1185
  153DOPC  H15S18357   5.032   6.622   4.921 -0.4181 -0.1900  0.7091
  153DOPC  C21618358   5.179   6.725   4.792 -0.3237  0.5460 -0.6572
  153DOPC  H16R18359   5.248   6.638   4.798 -1.7335 -0.7363 -1.9524
  153DOPC  H16S18360   5.249   6.810   4.788  0.5459 -0.2079 -2.6770
  153DOPC  C21718361   5.084   6.717   4.677 -1.3293 -0.4079  0.0453
  153DOPC  H17R18362   5.005   6.795   4.677  0.2557  1.2749 -0.6393
  153DOPC  H17S18363   5.031   6.619   4.678 -1.9635 -0.0834 -0.4758
  153DOPC  C21818364   5.162   6.712   4.541  0.0195 -0.3078 -0.2597
  153DOPC  H18R18365   5.079   6.709   4.467 -1.2209  1.7359  0.9333
  153DOPC  H18S18366   5.228   6.625   4.524 -2.1813 -2.0162 -0.6309
  153DOPC  H18T18367   5.216   6.804   4.508  1.4699 -0.7020  0.9320
  153DOPC   C3318368   4.742   7.609   6.027  0.6591  0.0922 -0.5697
  153DOPC   H3X18369   4.673   7.523   6.019  0.9386 -0.0026 -2.2793
  153DOPC   H3Y18370   4.841   7.579   5.986  0.5502  0.6357 -1.2418
  153DOPC   C3418371   4.674   7.715   5.935 -0.2939 -0.0019 -0.5758
  153DOPC   H4X18372   4.749   7.796   5.931 -0.3956  0.1837  0.6834
  153DOPC   H4Y18373   4.573   7.742   5.973 -0.8643 -1.7597 -0.7419
  153DOPC   C3518374   4.640   7.653   5.805  0.0812 -0.2953  0.5616
  153DOPC   H5X18375   4.580   7.566   5.840  0.0415 -0.3323  0.4065
  153DOPC   H5Y18376   4.728   7.612   5.752 -0.3057  0.0426 -0.3650
  153DOPC   C3618377   4.554   7.733   5.702 -0.1352  0.7529 -0.5549
  153DOPC   H6X18378   4.514   7.658   5.630 -0.0518 -0.2196  0.3908
  153DOPC   H6Y18379   4.473   7.789   5.754  0.3744  1.9023 -0.9510
  153DOPC   C3718380   4.631   7.837   5.620  0.2691 -0.4938  0.5268
  153DOPC   H7X18381   4.545   7.899   5.587 -1.0296 -2.6082 -0.2861
  153DOPC   H7Y18382   4.690   7.896   5.693 -0.0851  0.4033  0.1081
  153DOPC   C3818383   4.715   7.789   5.507  0.0019  0.4023  0.5421
  153DOPC   H8X18384   4.771   7.699   5.540  3.1262  2.0356  0.1152
  153DOPC   H8Y18385   4.787   7.865   5.469 -0.1568  0.9153  1.2549
  153DOPC   C3918386   4.618   7.761   5.391  0.7005  0.0568 -0.6587
  153DOPC   H9X18387   4.540   7.838   5.386 -1.2718 -1.8352 -0.7482
  153DOPC  C31018388   4.618   7.661   5.303 -0.6073  0.2069 -0.0052
  153DOPC  H10X18389   4.546   7.665   5.220  1.9242  2.5599 -2.2885
  153DOPC  C31118390   4.710   7.542   5.306 -0.0417 -0.4581 -0.5928
  153DOPC  H11X18391   4.665   7.440   5.310  0.5034 -0.9445 -3.9196
  153DOPC  H11Y18392   4.784   7.545   5.388  0.9414 -1.5182 -1.3961
  153DOPC  C31218393   4.779   7.544   5.166 -0.0637 -0.1850 -0.4739
  153DOPC  H12X18394   4.869   7.482   5.186 -1.0595 -0.8056  2.6564
  153DOPC  H12Y18395   4.821   7.643   5.138  3.0778 -1.1017  0.5780
  153DOPC  C31318396   4.702   7.490   5.042  0.4926  0.3034  0.3244
  153DOPC  H13X18397   4.637   7.404   5.067 -0.8490  0.3702 -2.5123
  153DOPC  H13Y18398   4.625   7.563   5.007 -1.0100 -0.3314  2.1428
  153DOPC  C31418399   4.813   7.455   4.938 -0.4906 -0.2140  0.2566
  153DOPC  H14X18400   4.846   7.554   4.900 -2.1558  0.0870 -0.4928
  153DOPC  H14Y18401   4.897   7.396   4.980 -0.7525 -0.7474  0.0391
  153DOPC  C31518402   4.775   7.375   4.821 -0.0049  0.1243  0.8240
  153DOPC  H15X18403   4.690   7.428   4.773  0.7001  1.6496  1.1650
  153DOPC  H15Y18404   4.755   7.268   4.841  2.3150 -0.7568 -1.0890
  153DOPC  C31618405   4.873   7.353   4.707  0.4270 -0.2897  0.5334
  153DOPC  H16X18406   4.913   7.454   4.684 -1.2330  0.2879  0.0331
  153DOPC  H16Y18407   4.955   7.280   4.725  1.4397  0.3042 -1.3755
  153DOPC  C31718408   4.797   7.302   4.575  0.0319  0.6747  0.1941
  153DOPC  H17X18409   4.727   7.383   4.545 -2.1237 -0.9352  0.6274
  153DOPC  H17Y18410   4.876   7.295   4.497 -0.3642 -0.3133 -0.1366
  153DOPC  C31818411   4.724   7.167   4.586 -0.2628  0.1745 -0.2939
  153DOPC  H18X18412   4.800   7.088   4.602 -1.5818 -0.7223  2.0354
  153DOPC  H18Y18413   4.645   7.173   4.663  0.3679  1.1915  0.3111
  153DOPC  H18Z18414   4.670   7.149   4.491 -0.6587  1.3920 -0.3174
  154DOPC     N18415   5.405   3.361   6.952 -0.2793 -0.1659 -0.0991
  154DOPC   C1218416   5.491   3.259   6.882 -0.1988  0.1666  0.4041
  154DOPC  H12A18417   5.430   3.198   6.817 -0.7394 -1.3030  2.1907
  154DOPC  H12B18418   5.513   3.190   6.962  0.5375 -1.7258 -1.3278
  154DOPC   C1318419   5.270   3.309   6.987 -0.3199  0.0171  0.7515
  154DOPC  H13A18420   5.285   3.222   7.049  1.6663 -0.3549 -0.1767
  154DOPC  H13B18421   5.217   3.377   7.053 -1.8955  1.1623 -1.5533
  154DOPC  H13C18422   5.224   3.263   6.901  1.1258 -2.2801  1.1167
  154DOPC   C1418423   5.387   3.481   6.868  0.4536  0.2545 -0.2765
  154DOPC  H14A18424   5.481   3.523   6.837  0.7760  0.5950  1.0917
  154DOPC  H14B18425   5.326   3.468   6.780  2.4357 -0.3952 -1.6132
  154DOPC  H14C18426   5.353   3.563   6.931  2.5076 -0.2492  1.6173
  154DOPC   C1518427   5.469   3.397   7.086  0.0056  0.3932 -0.3380
  154DOPC  H15A18428   5.424   3.486   7.129  1.4672  0.7497  0.5487
  154DOPC  H15B18429   5.572   3.430   7.078  0.4016 -0.8644 -0.6179
  154DOPC  H15C18430   5.466   3.313   7.154  1.4342  0.5547 -0.0384
  154DOPC   C1118431   5.599   3.312   6.796 -0.4618  0.4127  0.1483
  154DOPC  H11A18432   5.663   3.229   6.759  0.4902  0.9526  0.5541
  154DOPC  H11B18433   5.547   3.347   6.705  0.1559  1.9944  0.3818
  154DOPC     P18434   5.818   3.401   6.923 -0.1793  0.3895  0.1151
  154DOPC   O1318435   5.833   3.281   7.010 -0.2300 -0.7582 -0.3930
  154DOPC   O1418436   5.843   3.530   6.995 -0.4072  0.0394  0.0452
  154DOPC   O1218437   5.677   3.419   6.856 -1.0094 -0.0867  0.0319
  154DOPC   O1118438   5.923   3.395   6.802  0.0210  0.4553  0.0449
  154DOPC    C118439   5.968   3.510   6.725  0.3716  0.0635  0.5724
  154DOPC    HA18440   6.058   3.487   6.665 -1.4719 -1.3394 -1.8469
  154DOPC    HB18441   6.000   3.589   6.797  2.5744 -1.1997  1.0764
  154DOPC    C218442   5.862   3.566   6.622 -0.1542 -0.1352  0.3896
  154DOPC    HS18443   5.789   3.610   6.694  0.6670  1.0276  0.5472
  154DOPC   O2118444   5.824   3.466   6.538 -0.3868 -0.1262 -0.0963
  154DOPC   C2118445   5.694   3.467   6.492 -1.2198  0.4620 -0.9446
  154DOPC   O2218446   5.618   3.558   6.512 -0.7053  0.5990 -0.0386
  154DOPC   C2218447   5.656   3.340   6.421  0.1232 -0.1585  0.0089
  154DOPC   H2R18448   5.555   3.353   6.376  0.1361 -2.0685 -0.6829
  154DOPC   H2S18449   5.659   3.257   6.495 -0.7621  0.2667  0.5428
  154DOPC    C318450   5.925   3.685   6.545 -0.2318 -0.0676  0.2238
  154DOPC    HX18451   6.008   3.645   6.484 -1.6103 -0.7335 -1.3047
  154DOPC    HY18452   5.970   3.754   6.619 -1.3210 -0.0996  0.9412
  154DOPC   O3118453   5.834   3.736   6.446 -0.2861 -0.2466  0.0937
  154DOPC   C3118454   5.754   3.829   6.498  0.2398  0.5123 -0.2740
  154DOPC   O3218455   5.742   3.866   6.613  0.0248 -0.6508  0.4676
  154DOPC   C3218456   5.652   3.868   6.390 -0.0734 -0.8226 -0.2185
  154DOPC   H2X18457   5.630   3.784   6.320 -0.5323  1.0598 -2.4451
  154DOPC   H2Y18458   5.557   3.877   6.448 -0.0425 -1.6973 -0.0128
  154DOPC   C2318459   5.759   3.296   6.310 -0.5426 -0.1397  0.3976
  154DOPC   H3R18460   5.770   3.186   6.296  1.0396  0.0821 -0.4560
  154DOPC   H3S18461   5.858   3.345   6.325  0.1544 -1.1660 -0.6420
  154DOPC   C2418462   5.716   3.356   6.174 -0.9633 -0.0117  0.3228
  154DOPC   H4R18463   5.719   3.466   6.191 -1.2102  0.0911 -0.2847
  154DOPC   H4S18464   5.614   3.321   6.146 -0.8447  0.0288 -0.1731
  154DOPC   C2518465   5.805   3.321   6.056 -0.4875 -0.2920  0.4062
  154DOPC   H5R18466   5.820   3.213   6.037 -1.9100 -0.0740 -2.4724
  154DOPC   H5S18467   5.906   3.365   6.068 -0.7694  0.4181  0.2573
  154DOPC   C2618468   5.758   3.367   5.921 -0.3492 -0.3282 -0.2773
  154DOPC   H6R18469   5.769   3.477   5.906  2.5417 -0.7595 -2.0976
  154DOPC   H6S18470   5.648   3.357   5.905 -0.3376  0.9256 -1.3511
  154DOPC   C2718471   5.817   3.294   5.800 -0.3837 -0.9363  0.0777
  154DOPC   H7R18472   5.748   3.319   5.717 -1.4659  1.9379  1.6718
  154DOPC   H7S18473   5.800   3.184   5.805 -4.3074 -0.7029 -3.0740
  154DOPC   C2818474   5.964   3.341   5.757  0.0305 -0.2098 -0.0188
  154DOPC   H8R18475   5.997   3.277   5.673 -1.8057 -0.6570 -0.4510
  154DOPC   H8S18476   6.024   3.308   5.845  0.1587 -0.9743 -0.3919
  154DOPC   C2918477   5.986   3.488   5.721  0.7267 -0.1416  0.0185
  154DOPC   H9R18478   5.910   3.556   5.761 -0.3089 -1.7602  0.9464
  154DOPC  C21018479   6.056   3.536   5.619 -1.0327 -0.7147  0.0779
  154DOPC  H10R18480   6.064   3.644   5.600  1.5729 -0.3720  2.5324
  154DOPC  C21118481   6.152   3.449   5.539 -0.0247  0.3140 -0.6473
  154DOPC  H11R18482   6.176   3.356   5.595  0.3816  0.5386 -0.4429
  154DOPC  H11S18483   6.253   3.493   5.522  0.5096 -0.0156  1.3404
  154DOPC  C21218484   6.089   3.420   5.407 -0.6812 -0.8843  0.5896
  154DOPC  H12R18485   6.073   3.513   5.350  0.5906 -1.6028 -1.0217
  154DOPC  H12S18486   5.996   3.361   5.420 -1.1133 -0.1506  0.8223
  154DOPC  C21318487   6.173   3.327   5.319  0.9168  0.2807  0.5952
  154DOPC  H13R18488   6.102   3.267   5.258 -1.0308  1.6991  1.3377
  154DOPC  H13S18489   6.212   3.251   5.390 -0.9967 -0.9582  0.3973
  154DOPC  C21418490   6.277   3.392   5.230 -0.0157  0.1107 -0.0495
  154DOPC  H14R18491   6.324   3.468   5.295 -2.6718 -1.2428  3.8339
  154DOPC  H14S18492   6.216   3.444   5.152  0.1110  1.0332  0.4578
  154DOPC  C21518493   6.377   3.293   5.173 -0.4753 -0.7841 -0.0528
  154DOPC  H15R18494   6.320   3.242   5.093  0.1754 -1.4463 -0.1072
  154DOPC  H15S18495   6.415   3.210   5.237  0.1633 -0.8989 -0.5711
  154DOPC  C21618496   6.491   3.364   5.104 -0.0403  0.7659  0.0484
  154DOPC  H16R18497   6.446   3.415   5.017 -1.2805 -1.1247 -0.4956
  154DOPC  H16S18498   6.562   3.294   5.054  2.1872  2.9814 -0.0696
  154DOPC  C21718499   6.569   3.456   5.195 -0.0738  0.0811 -0.5196
  154DOPC  H17R18500   6.594   3.404   5.290 -2.8389 -0.8114 -0.2035
  154DOPC  H17S18501   6.523   3.555   5.213 -0.1740  0.0723 -0.7285
  154DOPC  C21818502   6.711   3.501   5.146 -0.1848 -0.0313  0.4665
  154DOPC  H18R18503   6.709   3.555   5.049 -0.8405  0.2919  0.6524
  154DOPC  H18S18504   6.781   3.415   5.143  1.4869  1.1964 -3.9410
  154DOPC  H18T18505   6.747   3.571   5.224 -0.2701 -1.0668  1.4658
  154DOPC   C3318506   5.678   4.000   6.317 -0.6907  0.6590  0.6622
  154DOPC   H3X18507   5.713   3.957   6.221  0.9581  1.5237  0.8372
  154DOPC   H3Y18508   5.768   4.052   6.357  0.9789 -1.5140 -0.0764
  154DOPC   C3418509   5.561   4.094   6.291  0.4492  0.1487  0.2500
  154DOPC   H4X18510   5.514   4.119   6.388 -0.1984  0.0674 -0.0429
  154DOPC   H4Y18511   5.478   4.049   6.232 -1.2275  0.5053  2.2345
  154DOPC   C3518512   5.611   4.222   6.235 -0.3672 -0.2083  0.0645
  154DOPC   H5X18513   5.667   4.283   6.308 -0.2386 -0.6412  0.3281
  154DOPC   H5Y18514   5.521   4.284   6.212 -0.5589  0.0748  1.4767
  154DOPC   C3618515   5.697   4.209   6.108 -0.2094  0.2311  0.6610
  154DOPC   H6X18516   5.739   4.309   6.084 -0.3435 -0.3268 -2.2904
  154DOPC   H6Y18517   5.782   4.140   6.127  1.2176  1.3459 -1.2438
  154DOPC   C3718518   5.620   4.152   5.986  0.1294  0.0236 -0.0649
  154DOPC   H7X18519   5.589   4.047   6.006 -1.7400 -0.5773 -4.7125
  154DOPC   H7Y18520   5.531   4.216   5.968 -0.1165 -0.5479 -0.9680
  154DOPC   C3818521   5.699   4.150   5.853  0.8445  0.3219 -0.6116
  154DOPC   H8X18522   5.652   4.079   5.781 -1.0122 -0.4238  1.2483
  154DOPC   H8Y18523   5.802   4.109   5.857  0.5511 -0.5029 -1.1908
  154DOPC   C3918524   5.714   4.295   5.803 -0.4623  0.1682 -0.3898
  154DOPC   H9X18525   5.758   4.372   5.869  1.2215 -0.1526 -1.0969
  154DOPC  C31018526   5.679   4.336   5.686 -0.3179 -1.0605  0.3702
  154DOPC  H10X18527   5.703   4.433   5.641 -1.2922 -1.6057 -1.4598
  154DOPC  C31118528   5.616   4.254   5.580  0.0950 -0.0810 -0.7559
  154DOPC  H11X18529   5.621   4.143   5.582 -2.9430 -0.3501 -1.9448
  154DOPC  H11Y18530   5.652   4.292   5.482  1.5676  3.3137  0.9337
  154DOPC  C31218531   5.460   4.285   5.566 -0.5880  0.4526  0.4572
  154DOPC  H12X18532   5.436   4.392   5.585 -0.5508  0.2777  1.5628
  154DOPC  H12Y18533   5.411   4.242   5.655  0.4793 -2.8711 -0.4361
  154DOPC  C31318534   5.392   4.245   5.437 -0.2463  0.5924 -0.5043
  154DOPC  H13X18535   5.285   4.274   5.432 -0.5618 -0.6590 -1.5179
  154DOPC  H13Y18536   5.436   4.299   5.350  1.6593  1.1070  0.7060
  154DOPC  C31418537   5.399   4.098   5.406 -0.2209  0.1974 -0.6482
  154DOPC  H14X18538   5.507   4.072   5.414 -0.3943 -0.5378 -0.6678
  154DOPC  H14Y18539   5.344   4.054   5.492 -0.1432 -0.5818 -0.9925
  154DOPC  C31518540   5.344   4.072   5.271  0.2236  0.8738  0.2240
  154DOPC  H15X18541   5.428   4.098   5.203  0.8331 -2.1914 -0.3588
  154DOPC  H15Y18542   5.264   4.147   5.252  1.0327  1.1541 -2.6304
  154DOPC  C31618543   5.295   3.931   5.248 -0.2220  0.0622 -0.2781
  154DOPC  H16X18544   5.252   3.940   5.146  2.3176  0.3838 -1.3982
  154DOPC  H16Y18545   5.370   3.850   5.240 -1.4945 -1.0637 -1.4407
  154DOPC  C31718546   5.185   3.880   5.344 -0.5527 -0.7789  0.2808
  154DOPC  H17X18547   5.146   3.781   5.311  1.1544 -1.0122 -1.1578
  154DOPC  H17Y18548   5.240   3.853   5.437  0.5349 -2.5976 -0.8289
  154DOPC  C31818549   5.071   3.978   5.384 -0.2781 -0.5425 -0.1320
  154DOPC  H18X18550   5.008   4.018   5.302 -0.4168 -0.4596  0.0143
  154DOPC  H18Y18551   5.009   3.936   5.467 -1.4633  1.7674  0.2452
  154DOPC  H18Z18552   5.117   4.075   5.414  1.0796 -1.4501  0.8448
  155DOPC     N18553   1.591   2.426   6.872 -0.1649 -0.0860  0.6605
  155DOPC   C1218554   1.503   2.400   6.753  0.5970  0.4173 -0.0788
  155DOPC  H12A18555   1.446   2.312   6.779  2.2389 -0.8078 -0.4412
  155DOPC  H12B18556   1.570   2.371   6.673 -0.0474 -2.1051  0.1925
  155DOPC   C1318557   1.687   2.540   6.854 -0.7906  0.1359 -0.2760
  155DOPC  H13A18558   1.633   2.632   6.841 -0.3805  0.2917 -0.9018
  155DOPC  H13B18559   1.751   2.547   6.940 -0.7982 -1.8928 -0.0362
  155DOPC  H13C18560   1.755   2.515   6.774 -2.3343 -1.7368 -1.0965
  155DOPC   C1418561   1.671   2.300   6.902  0.2992 -0.4296 -0.2846
  155DOPC  H14A18562   1.729   2.282   6.813 -0.8060  2.3530 -1.7004
  155DOPC  H14B18563   1.738   2.312   6.987 -0.7428 -1.8597  0.7859
  155DOPC  H14C18564   1.601   2.223   6.929  0.0418 -0.6471 -1.5140
  155DOPC   C1518565   1.505   2.468   6.989 -0.7352 -0.0476 -0.6185
  155DOPC  H15A18566   1.430   2.394   7.009 -2.0851  1.3156 -0.5057
  155DOPC  H15B18567   1.452   2.559   6.967  0.0984  0.7742  0.5997
  155DOPC  H15C18568   1.564   2.489   7.077 -0.7175  4.8577 -1.5318
  155DOPC   C1118569   1.409   2.513   6.701 -0.5978  0.1232  0.8944
  155DOPC  H11A18570   1.459   2.612   6.690  0.4739 -0.6064 -1.5278
  155DOPC  H11B18571   1.378   2.489   6.597 -0.5109 -1.3802  1.1927
  155DOPC     P18572   1.169   2.438   6.798  0.4329 -0.0148 -0.0412
  155DOPC   O1318573   1.054   2.512   6.753  0.1095 -0.2499 -0.2507
  155DOPC   O1418574   1.162   2.392   6.938  0.5684  0.3221 -0.1779
  155DOPC   O1218575   1.293   2.539   6.786 -0.2213  1.0114 -0.4300
  155DOPC   O1118576   1.199   2.323   6.692 -0.0851  0.0193  0.2970
  155DOPC    C118577   1.103   2.237   6.631  0.3569  0.9396  0.0064
  155DOPC    HA18578   1.029   2.286   6.566 -0.6750 -0.9777 -0.3455
  155DOPC    HB18579   1.049   2.175   6.707  1.6118 -0.9344 -0.5381
  155DOPC    C218580   1.178   2.128   6.538  0.4364  0.1441 -0.2670
  155DOPC    HS18581   1.267   2.089   6.592 -0.3621  0.3326  1.2117
  155DOPC   O2118582   1.213   2.207   6.424  0.0628  0.4351  0.1128
  155DOPC   C2118583   1.297   2.144   6.346  0.4338 -0.0940 -0.3172
  155DOPC   O2218584   1.370   2.054   6.381  0.6576  0.1114 -0.5678
  155DOPC   C2218585   1.303   2.219   6.209 -0.1207 -0.2337 -0.9358
  155DOPC   H2R18586   1.408   2.256   6.208  0.2327 -0.6527  3.3895
  155DOPC   H2S18587   1.239   2.308   6.225 -0.0994 -0.6022  1.6595
  155DOPC    C318588   1.083   2.010   6.501 -0.9207  0.0496 -0.4962
  155DOPC    HX18589   1.022   2.064   6.425  0.3018 -0.9849 -2.3178
  155DOPC    HY18590   1.029   1.982   6.593 -1.0554  0.3626 -0.4810
  155DOPC   O3118591   1.153   1.897   6.450  0.0305 -0.0914 -0.1775
  155DOPC   C3118592   1.112   1.854   6.333 -0.9514 -0.9242 -0.0157
  155DOPC   O3218593   1.037   1.915   6.264 -0.1032 -0.2967 -0.0581
  155DOPC   C3218594   1.178   1.722   6.298  0.0158 -0.4143 -0.0151
  155DOPC   H2X18595   1.218   1.670   6.387 -2.5280 -0.5669  1.1398
  155DOPC   H2Y18596   1.089   1.662   6.267 -0.2437  0.7224 -1.6283
  155DOPC   C2318597   1.265   2.131   6.091  0.1327  0.3591 -0.2148
  155DOPC   H3R18598   1.159   2.157   6.072  0.2662  0.5536 -0.7284
  155DOPC   H3S18599   1.274   2.021   6.106  0.8134  0.7603  3.1211
  155DOPC   C2418600   1.351   2.154   5.966  0.4601 -0.5361  0.0601
  155DOPC   H4R18601   1.337   2.080   5.884  0.1262 -0.1706 -0.2147
  155DOPC   H4S18602   1.460   2.154   5.990  0.7639 -2.6488 -1.0852
  155DOPC   C2518603   1.294   2.275   5.899  0.1162 -0.5865  0.8673
  155DOPC   H5R18604   1.281   2.354   5.976 -0.0680  0.5728 -0.3176
  155DOPC   H5S18605   1.194   2.259   5.854 -0.1030 -0.2380  1.2199
  155DOPC   C2618606   1.379   2.340   5.789  0.0881  0.5413 -0.0060
  155DOPC   H6R18607   1.381   2.264   5.708  0.2876  1.6580 -1.0772
  155DOPC   H6S18608   1.485   2.350   5.823 -0.2534  2.4116  0.6411
  155DOPC   C2718609   1.336   2.470   5.716 -0.0743 -0.5442 -0.1997
  155DOPC   H7R18610   1.250   2.438   5.652 -0.5374  0.8583 -0.3238
  155DOPC   H7S18611   1.413   2.503   5.643 -1.0882  0.2475 -0.9532
  155DOPC   C2818612   1.289   2.584   5.797  0.1557  0.1773 -0.1901
  155DOPC   H8R18613   1.352   2.604   5.886  0.7385  0.3278 -0.6271
  155DOPC   H8S18614   1.187   2.567   5.837  0.5504 -0.6473  0.4914
  155DOPC   C2918615   1.294   2.712   5.716  0.3421  0.2530 -0.4163
  155DOPC   H9R18616   1.389   2.766   5.701  0.0464  0.5041 -1.4428
  155DOPC  C21018617   1.188   2.779   5.661 -0.0293 -0.2381  0.4695
  155DOPC  H10R18618   1.221   2.868   5.606 -0.2232 -0.1199  0.5411
  155DOPC  C21118619   1.039   2.748   5.677  0.1295 -0.0591 -0.0740
  155DOPC  H11R18620   1.032   2.661   5.745  3.2243 -0.4746 -0.1429
  155DOPC  H11S18621   0.991   2.705   5.586 -1.4614 -1.5243  1.4015
  155DOPC  C21218622   0.950   2.863   5.742 -0.6211 -0.2010  0.3621
  155DOPC  H12R18623   0.844   2.836   5.723 -0.2471  0.3066 -2.9404
  155DOPC  H12S18624   0.960   2.953   5.678 -0.5255 -0.5957 -0.1916
  155DOPC  C21318625   0.979   2.886   5.892  0.0108  0.1486 -0.3449
  155DOPC  H13R18626   1.082   2.928   5.891  0.7981 -1.6567 -1.6839
  155DOPC  H13S18627   0.977   2.784   5.936 -2.1989  0.0470 -0.5803
  155DOPC  C21418628   0.872   2.974   5.952 -0.3261 -0.4421 -0.2098
  155DOPC  H14R18629   0.775   2.921   5.938 -1.9224  2.3057 -0.4467
  155DOPC  H14S18630   0.863   3.070   5.896  0.2047 -1.3002 -1.8355
  155DOPC  C21518631   0.873   2.988   6.105  0.1308 -0.0804  0.8677
  155DOPC  H15R18632   0.881   2.888   6.153  0.8318  0.3101  1.6003
  155DOPC  H15S18633   0.776   3.032   6.136  0.7035  1.4829  0.5151
  155DOPC  C21618634   0.987   3.078   6.146 -0.0287 -0.0807 -0.6958
  155DOPC  H16R18635   0.972   3.176   6.095 -0.6910 -0.8247 -1.9699
  155DOPC  H16S18636   1.076   3.022   6.110 -0.5701 -0.5681 -1.2992
  155DOPC  C21718637   0.981   3.100   6.294 -0.0461  0.0372 -0.5827
  155DOPC  H17R18638   0.886   3.151   6.320 -0.9510 -2.1570  0.6012
  155DOPC  H17S18639   1.053   3.179   6.325  0.6030 -0.4308 -0.8772
  155DOPC  C21818640   1.009   2.986   6.387 -0.7873  0.6814  0.0769
  155DOPC  H18R18641   1.097   2.922   6.363 -2.9505 -2.4921 -0.1077
  155DOPC  H18S18642   0.929   2.908   6.394  0.2420 -0.4187 -0.0408
  155DOPC  H18T18643   1.019   3.031   6.488 -0.3169 -1.2160  0.9177
  155DOPC   C3318644   1.290   1.731   6.192  0.8878  0.3269 -0.1841
  155DOPC   H3X18645   1.370   1.792   6.239 -0.9606  1.7893  1.2197
  155DOPC   H3Y18646   1.247   1.782   6.104  1.9189 -0.5514 -1.2186
  155DOPC   C3418647   1.351   1.606   6.135 -0.2894  0.7339  0.6184
  155DOPC   H4X18648   1.278   1.541   6.082  0.0262  0.7421  0.1741
  155DOPC   H4Y18649   1.385   1.541   6.218  1.0667  0.3331 -0.2196
  155DOPC   C3518650   1.466   1.612   6.032 -0.1086 -0.4812  0.5288
  155DOPC   H5X18651   1.486   1.508   5.997 -0.6085 -0.2990 -0.3416
  155DOPC   H5Y18652   1.554   1.662   6.079 -0.3435  1.5154 -1.0283
  155DOPC   C3618653   1.437   1.694   5.904  0.2033 -0.3287 -0.1090
  155DOPC   H6X18654   1.344   1.659   5.855  0.7888 -2.1341  0.0147
  155DOPC   H6Y18655   1.420   1.802   5.926 -1.7517 -0.5065 -0.5704
  155DOPC   C3718656   1.561   1.696   5.820  0.1949 -0.2601  1.0531
  155DOPC   H7X18657   1.644   1.748   5.872  2.3304  0.5932 -2.7905
  155DOPC   H7Y18658   1.589   1.589   5.815 -0.3757 -0.4010  0.8409
  155DOPC   C3818659   1.538   1.768   5.686  0.3189  1.0086 -0.2678
  155DOPC   H8X18660   1.524   1.876   5.710 -1.4974  0.5870  0.7346
  155DOPC   H8Y18661   1.446   1.733   5.636 -0.0403 -0.6876  1.4424
  155DOPC   C3918662   1.663   1.745   5.610 -0.0786  0.6238 -0.6318
  155DOPC   H9X18663   1.756   1.734   5.668  0.9456  2.5495 -1.8272
  155DOPC  C31018664   1.674   1.757   5.477 -0.6593 -1.0410 -0.2544
  155DOPC  H10X18665   1.767   1.733   5.424  0.5679 -1.8832  2.1536
  155DOPC  C31118666   1.561   1.786   5.380 -0.2487 -0.3649 -0.2736
  155DOPC  H11X18667   1.470   1.816   5.436  0.0357 -1.2860  0.7178
  155DOPC  H11Y18668   1.537   1.689   5.330  1.0365 -0.0844 -1.5151
  155DOPC  C31218669   1.587   1.893   5.275 -0.9462  0.1550 -0.1444
  155DOPC  H12X18670   1.514   1.885   5.192 -2.6607 -1.8629  1.4389
  155DOPC  H12Y18671   1.685   1.862   5.234 -1.5113 -2.0837  0.0906
  155DOPC  C31318672   1.592   2.039   5.326  0.4380 -0.4952 -0.3355
  155DOPC  H13X18673   1.660   2.047   5.414  1.2227  0.0412 -0.9751
  155DOPC  H13Y18674   1.641   2.105   5.252  1.5156 -0.7843  0.0922
  155DOPC  C31418675   1.464   2.097   5.371 -0.0644  0.3276  0.2155
  155DOPC  H14X18676   1.446   2.050   5.471 -0.5928 -2.1049 -0.9448
  155DOPC  H14Y18677   1.477   2.206   5.384  1.4440  0.4218 -1.7632
  155DOPC  C31518678   1.336   2.076   5.284 -0.1563 -0.1484  0.9750
  155DOPC  H15X18679   1.318   1.970   5.256  0.4614 -0.2464  0.9255
  155DOPC  H15Y18680   1.342   2.145   5.197  3.1030  3.4248  3.6946
  155DOPC  C31618681   1.209   2.136   5.349  0.7554  0.1212 -0.6379
  155DOPC  H16X18682   1.124   2.127   5.278  0.4512 -0.7758 -0.1730
  155DOPC  H16Y18683   1.186   2.086   5.445  0.1305  0.0712 -0.8071
  155DOPC  C31718684   1.227   2.288   5.364 -0.0700 -0.0299  0.5030
  155DOPC  H17X18685   1.303   2.318   5.440 -0.6084  3.8657 -0.2837
  155DOPC  H17Y18686   1.266   2.336   5.272  0.2654  0.8057  1.0675
  155DOPC  C31818687   1.094   2.353   5.401 -0.4043  0.0763  0.5597
  155DOPC  H18X18688   1.029   2.336   5.313  0.4793 -0.9024  0.0756
  155DOPC  H18Y18689   1.061   2.286   5.483  0.9410 -0.5724  0.6010
  155DOPC  H18Z18690   1.105   2.456   5.440 -3.5862 -0.3893  3.0901
  156DOPC     N18691   5.832   6.681   7.408  0.2822 -0.3243  0.0479
  156DOPC   C1218692   5.924   6.609   7.316  0.7167  0.1816 -0.3073
  156DOPC  H12A18693   6.016   6.574   7.361  0.2951  1.1767  1.4118
  156DOPC  H12B18694   5.961   6.676   7.240  2.4533 -2.2353 -1.7390
  156DOPC   C1318695   5.740   6.775   7.329  0.1625  0.3979 -0.2725
  156DOPC  H13A18696   5.692   6.832   7.407 -0.3483  0.6441 -0.7616
  156DOPC  H13B18697   5.803   6.818   7.252 -0.7561  1.6094 -0.3752
  156DOPC  H13C18698   5.665   6.719   7.275 -0.5508  0.9995  0.0796
  156DOPC   C1418699   5.904   6.764   7.506 -0.2467 -0.0404 -0.3364
  156DOPC  H14A18700   5.836   6.837   7.547  0.0284  0.5513 -0.9279
  156DOPC  H14B18701   5.943   6.709   7.591 -0.8581  0.5041  0.3126
  156DOPC  H14C18702   5.992   6.815   7.470 -0.6264  2.0038  1.4078
  156DOPC   C1518703   5.761   6.581   7.492 -0.2930  0.0736  0.4245
  156DOPC  H15A18704   5.695   6.522   7.431 -0.5062  1.4859 -0.7638
  156DOPC  H15B18705   5.698   6.622   7.570 -1.2211 -0.5858  0.0333
  156DOPC  H15C18706   5.823   6.498   7.525  1.1249  0.5362 -0.9695
  156DOPC   C1118707   5.875   6.489   7.232 -0.0878 -0.5254 -0.1300
  156DOPC  H11A18708   5.963   6.445   7.180  0.6512  1.3177 -0.5246
  156DOPC  H11B18709   5.819   6.415   7.293 -0.6370  0.2337  0.3033
  156DOPC     P18710   5.828   6.617   7.003 -0.1568  0.1608  0.0586
  156DOPC   O1318711   5.953   6.691   7.044  0.5326 -0.0003 -0.4003
  156DOPC   O1418712   5.710   6.693   6.949  0.1999  0.2559  0.2845
  156DOPC   O1218713   5.779   6.531   7.133 -0.8063 -0.2555  0.5337
  156DOPC   O1118714   5.873   6.503   6.902  0.0554 -0.4134 -0.1896
  156DOPC    C118715   5.787   6.402   6.855  0.0469  0.0976  1.2077
  156DOPC    HA18716   5.683   6.440   6.845  0.1329  0.8712  2.9440
  156DOPC    HB18717   5.782   6.313   6.922 -0.8508 -0.4439  0.4394
  156DOPC    C218718   5.838   6.342   6.718 -0.0464 -0.2840  0.0521
  156DOPC    HS18719   5.762   6.274   6.673  2.9401 -1.5160 -3.6338
  156DOPC   O2118720   5.969   6.281   6.733  0.2815 -0.0863  0.2175
  156DOPC   C2118721   5.969   6.163   6.786 -0.4691 -0.2679 -0.4561
  156DOPC   O2218722   5.867   6.103   6.821 -0.2645  0.1708  0.6189
  156DOPC   C2218723   6.112   6.108   6.796  0.0333 -0.0718 -0.1335
  156DOPC   H2R18724   6.096   5.999   6.809  0.4870 -0.0492  0.6959
  156DOPC   H2S18725   6.168   6.150   6.882  0.1146  0.8366 -0.6211
  156DOPC    C318726   5.845   6.458   6.613 -0.2345  0.2940  0.7137
  156DOPC    HX18727   5.934   6.520   6.640  2.9086 -2.8636 -1.4592
  156DOPC    HY18728   5.757   6.523   6.631 -0.9698 -1.1881  2.8395
  156DOPC   O3118729   5.843   6.417   6.476 -0.0918  0.2648  0.7112
  156DOPC   C3118730   5.900   6.501   6.387  0.0236 -0.5926  0.1979
  156DOPC   O3218731   5.952   6.606   6.421 -0.2646  0.3079  0.2398
  156DOPC   C3218732   5.878   6.462   6.240  0.5039 -0.5570 -1.0365
  156DOPC   H2X18733   5.838   6.358   6.229 -0.0039 -0.6067  0.9720
  156DOPC   H2Y18734   5.791   6.515   6.196 -1.2989 -3.4926 -1.3172
  156DOPC   C2318735   6.199   6.132   6.671 -0.1849  0.8610 -0.2990
  156DOPC   H3R18736   6.305   6.103   6.688  0.1267  0.6710 -2.3555
  156DOPC   H3S18737   6.211   6.241   6.653 -0.8091  1.0338  0.2672
  156DOPC   C2418738   6.159   6.053   6.547 -0.1979  0.2020 -0.5798
  156DOPC   H4R18739   6.057   6.086   6.517 -0.6786 -1.8949 -1.4111
  156DOPC   H4S18740   6.147   5.944   6.562  0.5536  0.2675  0.6163
  156DOPC   C2518741   6.252   6.076   6.432  0.1855 -0.4674  0.8258
  156DOPC   H5R18742   6.348   6.027   6.457  0.0369 -0.2701  1.8106
  156DOPC   H5S18743   6.266   6.183   6.407 -1.1042 -0.5506 -0.3588
  156DOPC   C2618744   6.210   6.004   6.302 -0.1977 -0.2399  0.0242
  156DOPC   H6R18745   6.123   6.042   6.245  0.8575 -2.2397 -3.2041
  156DOPC   H6S18746   6.186   5.901   6.336  1.8583 -0.2008  1.8030
  156DOPC   C2718747   6.321   6.011   6.194  0.8000  0.4002  0.3130
  156DOPC   H7R18748   6.414   5.971   6.241 -0.1373 -1.0317  1.0057
  156DOPC   H7S18749   6.332   6.110   6.145 -1.4374 -0.1103 -1.3850
  156DOPC   C2818750   6.301   5.908   6.078  0.1664  0.0621 -0.2083
  156DOPC   H8R18751   6.212   5.927   6.014 -1.6904 -3.1698  1.1333
  156DOPC   H8S18752   6.265   5.813   6.123 -0.3170 -0.8278 -2.3437
  156DOPC   C2918753   6.412   5.884   5.979 -0.2202  0.0180  0.4333
  156DOPC   H9R18754   6.482   5.801   5.996 -0.8430 -0.7683 -0.7178
  156DOPC  C21018755   6.450   5.961   5.877 -0.6839  0.3373 -0.1188
  156DOPC  H10R18756   6.513   5.912   5.802 -1.8820  1.3626 -1.8849
  156DOPC  C21118757   6.380   6.084   5.833  0.5796  0.3209  0.6403
  156DOPC  H11R18758   6.458   6.159   5.809  1.7750 -0.9961  0.2832
  156DOPC  H11S18759   6.320   6.138   5.910 -0.8739 -0.0267 -0.2001
  156DOPC  C21218760   6.281   6.045   5.719  0.2055  0.2202 -0.1528
  156DOPC  H12R18761   6.210   6.130   5.724 -0.0798 -0.0812  2.5988
  156DOPC  H12S18762   6.218   5.959   5.750 -0.8563  0.3262 -1.8983
  156DOPC  C21318763   6.342   6.036   5.573  0.0974 -0.4144  0.4377
  156DOPC  H13R18764   6.394   5.938   5.562 -0.6993 -0.7509 -0.5347
  156DOPC  H13S18765   6.415   6.119   5.555 -0.9592  1.6825  4.5455
  156DOPC  C21418766   6.235   6.043   5.457 -0.2877  0.3435  0.3376
  156DOPC  H14R18767   6.151   5.977   5.486 -1.6227  2.0958  0.6331
  156DOPC  H14S18768   6.281   5.995   5.368 -1.9113 -1.6403  0.4869
  156DOPC  C21518769   6.176   6.179   5.427 -0.1783 -0.3449 -0.4166
  156DOPC  H15R18770   6.262   6.241   5.393  1.2735 -2.0272  0.0467
  156DOPC  H15S18771   6.138   6.218   5.524  0.0938 -1.3064  0.0908
  156DOPC  C21618772   6.056   6.186   5.337 -0.3895 -0.1260  0.1194
  156DOPC  H16R18773   5.970   6.132   5.382 -0.3076  0.6517  1.2505
  156DOPC  H16S18774   6.087   6.138   5.242  0.4627  1.0088 -0.1971
  156DOPC  C21718775   6.005   6.328   5.301  0.4168 -0.0533 -1.2046
  156DOPC  H17R18776   5.939   6.321   5.212 -2.3059 -1.6888  0.7702
  156DOPC  H17S18777   6.093   6.393   5.284  0.2915 -0.5725 -4.5351
  156DOPC  C21818778   5.916   6.383   5.419 -0.0022 -0.0592  0.7353
  156DOPC  H18R18779   5.964   6.405   5.517 -0.4406  1.1106  0.6982
  156DOPC  H18S18780   5.826   6.321   5.436  0.5508 -1.0116  0.2627
  156DOPC  H18T18781   5.874   6.477   5.379  0.4141  0.2927  1.1095
  156DOPC   C3318782   6.003   6.500   6.151  0.5342 -0.1828 -0.5340
  156DOPC   H3X18783   6.096   6.467   6.202  1.1667  3.5941  1.1495
  156DOPC   H3Y18784   6.015   6.611   6.155  1.5936 -0.3083  2.2723
  156DOPC   C3418785   5.997   6.442   6.008  0.0178 -0.4720  0.5354
  156DOPC   H4X18786   5.920   6.501   5.954  0.0691  1.9560  2.9135
  156DOPC   H4Y18787   5.964   6.336   6.009  2.1492 -1.1870  0.0361
  156DOPC   C3518788   6.128   6.464   5.931 -0.0613 -0.2566 -0.3384
  156DOPC   H5X18789   6.200   6.399   5.987 -0.4410 -0.3568  0.0397
  156DOPC   H5Y18790   6.161   6.569   5.945  1.2310 -0.2082 -3.0749
  156DOPC   C3618791   6.128   6.432   5.778 -0.0467  0.6468 -0.0658
  156DOPC   H6X18792   6.073   6.335   5.774 -0.1207  0.6715  0.2969
  156DOPC   H6Y18793   6.056   6.501   5.728 -0.7769  0.8289  1.1742
  156DOPC   C3718794   6.266   6.428   5.709  0.8932 -0.2494 -0.4140
  156DOPC   H7X18795   6.328   6.362   5.774  1.3182  0.2694 -0.2795
  156DOPC   H7Y18796   6.261   6.379   5.610  0.8003  0.0880 -0.5800
  156DOPC   C3818797   6.336   6.560   5.683  0.0501 -0.5194  0.1812
  156DOPC   H8X18798   6.444   6.538   5.670  0.4950  0.6290  1.5796
  156DOPC   H8Y18799   6.334   6.628   5.771 -0.7501  2.1746 -1.7787
  156DOPC   C3918800   6.273   6.627   5.562 -1.0768  0.4089  0.6822
  156DOPC   H9X18801   6.173   6.599   5.525 -0.8157 -0.1221  0.3597
  156DOPC  C31018802   6.335   6.724   5.489 -0.2924  0.4854 -0.2835
  156DOPC  H10X18803   6.274   6.767   5.409 -1.4031 -2.0080 -0.8620
  156DOPC  C31118804   6.462   6.797   5.518 -0.0593 -0.3018  0.0828
  156DOPC  H11X18805   6.525   6.748   5.596  2.2041  0.8606 -0.9434
  156DOPC  H11Y18806   6.440   6.899   5.555  0.3458 -0.3113  0.3543
  156DOPC  C31218807   6.546   6.834   5.391  0.3792  0.0544 -0.0350
  156DOPC  H12X18808   6.627   6.902   5.425 -1.6098  1.9031  1.3320
  156DOPC  H12Y18809   6.468   6.895   5.339  1.1646  2.0400  0.9892
  156DOPC  C31318810   6.602   6.720   5.311 -0.2354  0.2939  0.2657
  156DOPC  H13X18811   6.679   6.675   5.378 -0.6786 -0.1441  0.4870
  156DOPC  H13Y18812   6.520   6.650   5.286  0.3577  0.6460 -3.1661
  156DOPC  C31418813   6.658   6.769   5.172  0.3946  0.3515 -0.3159
  156DOPC  H14X18814   6.649   6.682   5.103  0.8817  0.2220 -0.2184
  156DOPC  H14Y18815   6.579   6.833   5.126 -0.4233 -1.1924 -1.1577
  156DOPC  C31518816   6.799   6.825   5.183 -0.2379 -0.7100  0.2477
  156DOPC  H15X18817   6.867   6.755   5.236  0.2200 -0.5694 -0.1436
  156DOPC  H15Y18818   6.808   6.923   5.235  1.3834 -0.6376 -0.1395
  156DOPC  C31618819   6.854   6.847   5.036  0.2880  0.8740  0.8866
  156DOPC  H16X18820   6.852   6.754   4.975 -0.9386  0.7610  1.0888
  156DOPC  H16Y18821   6.784   6.916   4.986 -1.0051 -1.7262 -1.1565
  156DOPC  C31718822   6.998   6.888   5.041 -0.4089 -0.2669 -0.7258
  156DOPC  H17X18823   7.057   6.812   5.097  1.5714  0.6455 -1.4799
  156DOPC  H17Y18824   7.038   6.886   4.937  0.9199  0.5922 -0.2658
  156DOPC  C31818825   7.033   7.024   5.111 -0.1029 -0.7158  0.5901
  156DOPC  H18X18826   6.995   7.112   5.054 -0.2048 -0.1154  1.5461
  156DOPC  H18Y18827   6.995   7.018   5.216 -3.0023 -1.4290 -0.4219
  156DOPC  H18Z18828   7.142   7.046   5.118 -0.4158  1.1454  0.1287
  157DOPC     N18829   6.452   1.937   7.173 -0.5902  0.7540 -0.5524
  157DOPC   C1218830   6.480   2.062   7.094 -0.5795  0.2199 -0.4578
  157DOPC  H12A18831   6.581   2.094   7.117 -1.3452  3.9691 -1.6252
  157DOPC  H12B18832   6.418   2.140   7.136 -0.3191 -0.2725  0.8590
  157DOPC   C1318833   6.323   1.882   7.125  0.1119  0.0247  0.8721
  157DOPC  H13A18834   6.256   1.963   7.102  1.0072  0.8122  0.9462
  157DOPC  H13B18835   6.337   1.834   7.030 -0.1690  2.6690 -0.6064
  157DOPC  H13C18836   6.280   1.804   7.186  0.9952 -1.9768 -0.9640
  157DOPC   C1418837   6.436   1.974   7.316 -0.2102  0.3693  0.0911
  157DOPC  H14A18838   6.368   2.058   7.321 -0.3822  0.2219  0.2607
  157DOPC  H14B18839   6.399   1.885   7.366 -1.3556 -0.3158 -1.8655
  157DOPC  H14C18840   6.532   1.997   7.359  1.4102 -0.0628 -3.0684
  157DOPC   C1518841   6.576   1.843   7.162  0.2162 -0.2243  0.9580
  157DOPC  H15A18842   6.663   1.900   7.189  0.3698 -1.0599  2.2891
  157DOPC  H15B18843   6.585   1.817   7.057  0.8775  2.0101  0.4029
  157DOPC  H15C18844   6.558   1.759   7.226 -0.9929 -0.8315 -0.1216
  157DOPC   C1118845   6.473   2.058   6.942 -0.0533 -0.3276  0.0694
  157DOPC  H11A18846   6.368   2.032   6.916  0.4307 -1.8028 -0.5113
  157DOPC  H11B18847   6.492   2.157   6.893 -3.8105 -0.1773 -1.4561
  157DOPC     P18848   6.510   1.847   6.780  0.1819 -0.2618  0.5079
  157DOPC   O1318849   6.418   1.754   6.851  0.1807  0.4176  0.1700
  157DOPC   O1418850   6.635   1.795   6.714 -0.0275  0.4535  0.4987
  157DOPC   O1218851   6.558   1.965   6.879 -0.8188  0.2467 -0.5899
  157DOPC   O1118852   6.420   1.932   6.671 -0.1997  0.1653 -0.3192
  157DOPC    C118853   6.386   1.864   6.548  0.6014  0.9716 -0.4459
  157DOPC    HA18854   6.291   1.896   6.501  1.5170  1.3416 -2.1304
  157DOPC    HB18855   6.382   1.753   6.562  1.8836  0.6976 -1.9271
  157DOPC    C218856   6.495   1.883   6.441  0.1574  0.5682 -0.3485
  157DOPC    HS18857   6.583   1.823   6.470  0.4475  0.7984 -0.7452
  157DOPC   O2118858   6.529   2.020   6.431  0.1089 -0.4447 -0.5014
  157DOPC   C2118859   6.641   2.051   6.373  0.0861  0.2031  0.2031
  157DOPC   O2218860   6.716   1.970   6.324 -0.0928  0.2296 -0.2196
  157DOPC   C2218861   6.660   2.201   6.379  1.0074 -0.6465 -0.0859
  157DOPC   H2R18862   6.708   2.243   6.470 -0.2527  0.5725  0.0460
  157DOPC   H2S18863   6.559   2.247   6.375  1.0570 -0.5227  0.0871
  157DOPC    C318864   6.458   1.830   6.294 -0.2850  0.1253  0.7770
  157DOPC    HX18865   6.555   1.812   6.242 -1.2562 -0.4086 -0.9389
  157DOPC    HY18866   6.416   1.918   6.239 -1.3014  0.9934  2.8291
  157DOPC   O3118867   6.379   1.707   6.290 -0.1356 -0.2023 -0.1802
  157DOPC   C3118868   6.247   1.720   6.268  0.3547 -0.3952 -0.1565
  157DOPC   O3218869   6.179   1.822   6.275 -0.4595 -0.4008 -0.3253
  157DOPC   C3218870   6.186   1.579   6.233  0.1011 -0.6110  0.4525
  157DOPC   H2X18871   6.259   1.508   6.277  1.6570  1.4230  1.3849
  157DOPC   H2Y18872   6.081   1.583   6.268  0.7371 -1.4206  2.5597
  157DOPC   C2318873   6.751   2.262   6.262  0.1487  0.3725  0.0699
  157DOPC   H3R18874   6.716   2.366   6.247  1.5593  0.7470 -0.7867
  157DOPC   H3S18875   6.731   2.212   6.165 -1.0549 -0.4841  0.7381
  157DOPC   C2418876   6.902   2.263   6.282 -0.4725  0.0234 -0.1822
  157DOPC   H4R18877   6.943   2.161   6.299 -2.8250 -0.8440  0.7741
  157DOPC   H4S18878   6.911   2.315   6.379 -0.3742 -1.9043  0.9043
  157DOPC   C2518879   6.970   2.333   6.164  0.2007 -0.1091 -0.7881
  157DOPC   H5R18880   6.943   2.438   6.143  1.7658  0.7838  1.2392
  157DOPC   H5S18881   6.942   2.279   6.071 -2.1114 -1.4179  0.5736
  157DOPC   C2618882   7.121   2.315   6.176 -0.4869  0.0867  0.0277
  157DOPC   H6R18883   7.139   2.206   6.163 -0.2321  0.1941 -0.5566
  157DOPC   H6S18884   7.163   2.350   6.273 -0.7759  0.9999 -0.1737
  157DOPC   C2718885   7.200   2.380   6.063  0.4670  0.1104 -0.1666
  157DOPC   H7R18886   7.181   2.489   6.052  2.1399  0.6720  1.9458
  157DOPC   H7S18887   7.158   2.333   5.971  0.9582 -1.1918  0.2487
  157DOPC   C2818888   7.355   2.360   6.069  0.6985 -0.0905  0.0164
  157DOPC   H8R18889   7.390   2.254   6.073 -0.4748 -0.5860 -1.6769
  157DOPC   H8S18890   7.403   2.401   6.161  2.1387  1.0878 -1.2139
  157DOPC   C2918891   7.427   2.431   5.960 -0.3793 -0.1133  1.1518
  157DOPC   H9R18892   7.426   2.540   5.971  2.8370 -0.0857  2.3948
  157DOPC  C21018893   7.499   2.376   5.859  0.2664  0.2663  0.8559
  157DOPC  H10R18894   7.558   2.448   5.800 -1.5478  0.7370 -0.4743
  157DOPC  C21118895   7.516   2.230   5.836 -0.6920 -0.7010  0.3847
  157DOPC  H11R18896   7.420   2.177   5.856 -1.1099  0.2877  1.0928
  157DOPC  H11S18897   7.597   2.194   5.903 -1.7894 -3.4269  0.3643
  157DOPC  C21218898   7.568   2.187   5.698  0.4900 -0.6269 -0.1059
  157DOPC  H12R18899   7.651   2.252   5.665 -0.4524  0.9166  0.4287
  157DOPC  H12S18900   7.482   2.199   5.628  1.7597  1.6226 -1.3829
  157DOPC  C21318901   7.605   2.042   5.689 -0.5927 -0.8315 -0.3094
  157DOPC  H13R18902   7.519   1.980   5.722 -2.2679  1.6590  0.2591
  157DOPC  H13S18903   7.689   2.020   5.758 -0.7048 -1.6236 -0.4220
  157DOPC  C21418904   7.639   1.995   5.544 -0.4824 -0.1751 -0.5178
  157DOPC  H14R18905   7.574   2.039   5.466  1.9756  2.3450 -1.3254
  157DOPC  H14S18906   7.642   1.884   5.557  0.3927 -0.1983 -0.8705
  157DOPC  C21518907   7.775   2.046   5.504 -0.0256 -0.6650 -0.0840
  157DOPC  H15R18908   7.851   2.030   5.584 -0.1933 -0.0874  0.1938
  157DOPC  H15S18909   7.770   2.155   5.488 -1.7479 -0.5869  0.6906
  157DOPC  C21618910   7.817   1.994   5.365 -0.6273  0.0928  0.3940
  157DOPC  H16R18911   7.843   1.886   5.354 -0.5671  0.2582 -1.3683
  157DOPC  H16S18912   7.909   2.048   5.335 -0.7465  1.1220  1.7836
  157DOPC  C21718913   7.726   2.029   5.244 -0.0670 -0.2783  0.8651
  157DOPC  H17R18914   7.728   2.138   5.222 -0.1672 -0.0493  1.9484
  157DOPC  H17S18915   7.619   2.004   5.260 -0.8163  0.2869 -2.4484
  157DOPC  C21818916   7.772   1.944   5.122 -0.1467  0.1784 -0.2908
  157DOPC  H18R18917   7.869   1.970   5.075  0.2324 -1.9655 -0.7620
  157DOPC  H18S18918   7.697   1.965   5.042 -1.1443 -0.3179  0.5002
  157DOPC  H18T18919   7.771   1.838   5.153 -0.0418 -0.0701 -1.0985
  157DOPC   C3318920   6.183   1.557   6.080  1.0440  0.1682  0.7998
  157DOPC   H3X18921   6.099   1.617   6.039  0.2803 -0.6028  1.2014
  157DOPC   H3Y18922   6.146   1.453   6.066  0.1489  0.6615 -0.7420
  157DOPC   C3418923   6.313   1.571   6.005 -0.5997 -0.4364  0.3422
  157DOPC   H4X18924   6.382   1.484   6.000 -0.0718  0.0000 -0.0178
  157DOPC   H4Y18925   6.376   1.648   6.054 -2.1794  1.4920 -0.4819
  157DOPC   C3518926   6.296   1.611   5.850 -0.2025  0.0824  0.3108
  157DOPC   H5X18927   6.250   1.524   5.799 -0.5202  0.8815 -0.8144
  157DOPC   H5Y18928   6.396   1.630   5.806 -0.4147  2.5970  0.7641
  157DOPC   C3618929   6.227   1.751   5.822 -0.2134 -0.4947 -0.2877
  157DOPC   H6X18930   6.213   1.773   5.714  1.6824  1.3123 -0.2344
  157DOPC   H6Y18931   6.121   1.743   5.855  0.2295 -2.1129  0.8510
  157DOPC   C3718932   6.310   1.870   5.887  0.3860 -0.1254  0.8512
  157DOPC   H7X18933   6.326   1.843   5.994  2.5943 -1.6333  0.1961
  157DOPC   H7Y18934   6.404   1.874   5.829 -0.3944 -0.5837 -0.5026
  157DOPC   C3818935   6.230   2.003   5.863  0.0526  0.1117  0.1102
  157DOPC   H8X18936   6.137   1.981   5.920 -0.9605  0.4842 -1.3280
  157DOPC   H8Y18937   6.203   2.003   5.755 -1.0183 -0.4818  0.3621
  157DOPC   C3918938   6.309   2.131   5.889  0.2009  0.6256 -0.3337
  157DOPC   H9X18939   6.378   2.165   5.811  1.5007 -0.0275  0.4993
  157DOPC  C31018940   6.312   2.175   6.017  0.0627  0.1025  0.3879
  157DOPC  H10X18941   6.365   2.270   6.037 -0.7440  0.7872 -0.6422
  157DOPC  C31118942   6.233   2.126   6.133 -0.2583  0.3364  0.1371
  157DOPC  H11X18943   6.296   2.108   6.223 -0.4732  1.0837  0.4421
  157DOPC  H11Y18944   6.176   2.031   6.122 -0.0333 -0.2270  3.1327
  157DOPC  C31218945   6.128   2.233   6.167 -0.4041  0.6583 -0.3127
  157DOPC  H12X18946   6.061   2.194   6.246  1.7484  1.4705  2.0269
  157DOPC  H12Y18947   6.066   2.270   6.082  0.2817 -0.3264 -1.2679
  157DOPC  C31318948   6.180   2.357   6.240 -0.2784 -0.0632  0.9619
  157DOPC  H13X18949   6.225   2.321   6.335 -0.5106 -2.3245  0.2684
  157DOPC  H13Y18950   6.267   2.389   6.178 -1.1394 -0.9522 -0.7957
  157DOPC  C31418951   6.078   2.469   6.262 -0.0606 -0.8511  0.7412
  157DOPC  H14X18952   6.059   2.498   6.156  0.0597  0.2849  1.0181
  157DOPC  H14Y18953   5.981   2.433   6.304 -0.1316 -2.1042 -0.4145
  157DOPC  C31518954   6.131   2.586   6.339  0.0999  1.1517  0.2228
  157DOPC  H15X18955   6.056   2.668   6.344 -1.3534 -0.1966  3.2031
  157DOPC  H15Y18956   6.222   2.623   6.288 -0.4227  0.1028 -1.5533
  157DOPC  C31618957   6.158   2.558   6.486  0.6312 -0.0802 -0.4699
  157DOPC  H16X18958   6.244   2.490   6.501  1.2902  0.7366 -0.5241
  157DOPC  H16Y18959   6.183   2.659   6.524 -1.6982  0.7429 -0.9646
  157DOPC  C31718960   6.034   2.512   6.560 -0.3125  0.4567 -0.3140
  157DOPC  H17X18961   6.036   2.569   6.656  1.0784  1.2657 -0.7946
  157DOPC  H17Y18962   5.943   2.532   6.501 -0.9814  0.5621  0.7169
  157DOPC  C31818963   6.049   2.359   6.594  0.5733  0.8110 -0.5607
  157DOPC  H18X18964   6.143   2.343   6.651  2.4917  2.5629 -3.0350
  157DOPC  H18Y18965   5.953   2.314   6.628  2.0806 -0.4431  2.3601
  157DOPC  H18Z18966   6.061   2.313   6.494  0.3809  0.3191 -0.3568
  158DOPC     N18967   3.910   7.067   7.030 -0.0838  0.3558 -0.0242
  158DOPC   C1218968   4.037   7.095   6.951  0.0864  0.7565 -0.1710
  158DOPC  H12A18969   4.103   7.161   7.005  1.0171 -1.1157  1.0922
  158DOPC  H12B18970   4.005   7.148   6.862 -0.2714  1.3864  0.3305
  158DOPC   C1318971   3.839   7.197   7.060  0.2042 -0.2938  0.5070
  158DOPC  H13A18972   3.739   7.171   7.092 -0.2507 -0.1276 -0.7249
  158DOPC  H13B18973   3.890   7.261   7.130 -0.6850  1.3849 -0.3135
  158DOPC  H13C18974   3.826   7.257   6.971 -0.7040 -0.5296  0.4613
  158DOPC   C1418975   3.947   6.999   7.158  0.4415  0.3480  0.1072
  158DOPC  H14A18976   3.970   7.066   7.240  0.0596 -0.6840  1.0889
  158DOPC  H14B18977   3.859   6.954   7.203 -0.3193  1.5601 -0.1207
  158DOPC  H14C18978   4.017   6.916   7.154 -0.5808 -0.5897  0.8787
  158DOPC   C1518979   3.815   6.979   6.961  0.2869  0.0294 -0.2184
  158DOPC  H15A18980   3.783   7.027   6.870  0.6497 -1.2914 -1.0693
  158DOPC  H15B18981   3.730   6.950   7.022  0.5047 -1.4876 -0.5806
  158DOPC  H15C18982   3.862   6.888   6.926  0.0884  0.3402 -1.3288
  158DOPC   C1118983   4.131   6.964   6.908  0.0945 -0.2920 -0.3271
  158DOPC  H11A18984   4.204   6.998   6.832  0.3750 -0.6768 -0.2300
  158DOPC  H11B18985   4.177   6.942   7.006 -0.9121  1.1531  0.5040
  158DOPC     P18986   4.122   6.708   6.876  0.6842 -0.3341 -0.2244
  158DOPC   O1318987   4.007   6.624   6.914  0.8248  0.4889 -0.2174
  158DOPC   O1418988   4.241   6.706   6.964 -0.0437  0.2887  0.0179
  158DOPC   O1218989   4.059   6.850   6.852 -0.5123 -0.3539  0.0907
  158DOPC   O1118990   4.158   6.655   6.729 -0.0875 -0.0181 -0.1928
  158DOPC    C118991   4.267   6.716   6.660  0.5501  0.7993 -0.6951
  158DOPC    HA18992   4.323   6.637   6.605  0.3776 -1.8108  2.5468
  158DOPC    HB18993   4.332   6.770   6.732 -0.4744  1.3874 -0.1889
  158DOPC    C218994   4.221   6.830   6.572  1.0344  0.4017  0.2469
  158DOPC    HS18995   4.140   6.882   6.629  1.4363  0.3961  0.8255
  158DOPC   O2118996   4.163   6.773   6.452  0.3718  0.3884 -0.3513
  158DOPC   C2118997   4.032   6.761   6.448  0.0920 -0.4738  0.1884
  158DOPC   O2218998   3.949   6.800   6.528  0.3065  0.0245  0.3111
  158DOPC   C2218999   4.002   6.718   6.300 -0.4918  0.5359 -0.2620
  158DOPC   H2R19000   3.952   6.619   6.305  0.1471  0.0608 -2.2486
  158DOPC   H2S19001   4.102   6.701   6.255 -0.0464  2.5407 -0.1230
  158DOPC    C319002   4.332   6.939   6.550 -0.3405  0.3444  0.6046
  158DOPC    HX19003   4.411   6.882   6.499 -0.1982  2.4290 -1.6799
  158DOPC    HY19004   4.370   6.989   6.642  0.1540  1.4155 -0.1667
  158DOPC   O3119005   4.290   7.042   6.459 -0.2923 -0.1476 -0.1015
  158DOPC   C3119006   4.200   7.126   6.507  0.2014  0.4173 -0.4996
  158DOPC   O3219007   4.170   7.133   6.625 -0.1036 -0.5206  0.3972
  158DOPC   C3219008   4.152   7.216   6.395  0.1186  0.0861  0.3579
  158DOPC   H2X19009   4.234   7.288   6.375 -1.9519  2.6460  0.4686
  158DOPC   H2Y19010   4.155   7.153   6.303  2.8285 -0.1766  0.5520
  158DOPC   C2319011   3.926   6.827   6.222  0.1536 -0.1209 -1.4300
  158DOPC   H3R19012   3.942   6.927   6.267 -2.4000 -0.0427 -0.5731
  158DOPC   H3S19013   3.817   6.824   6.242 -0.1031  0.9169 -2.5324
  158DOPC   C2419014   3.953   6.829   6.076  0.0119  0.0267 -0.0679
  158DOPC   H4R19015   4.056   6.858   6.048  0.2634  0.3514  1.1393
  158DOPC   H4S19016   3.895   6.912   6.030 -0.5743  0.2726  1.0839
  158DOPC   C2519017   3.916   6.699   6.006 -0.7474  0.1466 -0.3517
  158DOPC   H5R19018   3.806   6.683   6.013 -1.0031  1.3197 -1.4189
  158DOPC   H5S19019   3.969   6.616   6.058 -1.9183 -0.7024 -0.4732
  158DOPC   C2619020   3.960   6.679   5.863  0.0878 -0.2122  0.2441
  158DOPC   H6R19021   4.058   6.731   5.863 -0.0140  0.1618  3.4161
  158DOPC   H6S19022   3.887   6.746   5.814  1.7156  1.2496 -0.2832
  158DOPC   C2719023   3.970   6.532   5.809  0.3285  0.9443 -0.3701
  158DOPC   H7R19024   3.870   6.484   5.811  0.6547 -0.0329 -2.9439
  158DOPC   H7S19025   4.036   6.471   5.875  1.9006  3.5613  0.6503
  158DOPC   C2819026   4.026   6.537   5.663  0.8274  0.5531 -0.8722
  158DOPC   H8R19027   4.133   6.568   5.666  1.7026 -2.0660 -1.7915
  158DOPC   H8S19028   3.965   6.619   5.619 -0.3796  0.4820  0.5968
  158DOPC   C2919029   3.998   6.405   5.596 -0.3086  0.2733 -0.0353
  158DOPC   H9R19030   3.893   6.376   5.607  0.3849 -2.8776 -0.6434
  158DOPC  C21019031   4.081   6.320   5.536 -1.1573  0.2972 -0.5566
  158DOPC  H10R19032   4.043   6.222   5.502 -0.3027  0.1804 -1.2198
  158DOPC  C21119033   4.231   6.333   5.523 -0.7375 -0.7609  0.7521
  158DOPC  H11R19034   4.285   6.348   5.619  3.7738  1.8038 -1.8963
  158DOPC  H11S19035   4.247   6.433   5.478 -1.5781 -0.5454  0.9146
  158DOPC  C21219036   4.299   6.221   5.436 -0.4209 -0.0842  1.3801
  158DOPC  H12R19037   4.293   6.130   5.500 -3.5544  0.7847  2.4798
  158DOPC  H12S19038   4.405   6.245   5.411 -0.3625 -0.8151  0.8997
  158DOPC  C21319039   4.230   6.189   5.302 -0.0128 -0.3571  0.2122
  158DOPC  H13R19040   4.235   6.280   5.238  0.2635 -0.1033  0.5937
  158DOPC  H13S19041   4.122   6.167   5.317 -0.6439  0.9781 -1.9532
  158DOPC  C21419042   4.291   6.078   5.212  0.0238  0.2109 -0.5397
  158DOPC  H14R19043   4.290   5.997   5.289 -4.9694  0.9217  0.4735
  158DOPC  H14S19044   4.396   6.094   5.180  0.9361  0.7390  2.3541
  158DOPC  C21519045   4.196   6.050   5.093 -0.8093  0.0271 -0.2139
  158DOPC  H15R19046   4.211   6.120   5.008 -0.5291 -0.0824 -0.2557
  158DOPC  H15S19047   4.094   6.086   5.117 -0.9260 -0.0668 -0.5587
  158DOPC  C21619048   4.217   5.905   5.050 -0.2924 -0.6305 -0.4618
  158DOPC  H16R19049   4.158   5.839   5.118 -0.1205 -2.2259 -1.7772
  158DOPC  H16S19050   4.321   5.868   5.057  0.2767  0.7236 -1.4024
  158DOPC  C21719051   4.172   5.880   4.901  0.6395 -0.5641  0.3064
  158DOPC  H17R19052   4.216   5.781   4.878 -0.7290 -1.3221  0.8477
  158DOPC  H17S19053   4.238   5.942   4.837 -1.2730  0.2064 -1.0131
  158DOPC  C21819054   4.029   5.905   4.871  0.1096 -0.4721 -0.3255
  158DOPC  H18R19055   4.005   6.006   4.909  1.2909 -0.2054 -0.2645
  158DOPC  H18S19056   3.952   5.833   4.907  1.5205 -2.6181 -1.3580
  158DOPC  H18T19057   4.013   5.920   4.762  1.4421 -0.0814 -0.4839
  158DOPC   C3319058   4.011   7.272   6.414  0.2612  0.6773 -0.0056
  158DOPC   H3X19059   4.010   7.360   6.481 -0.1900  1.5208 -1.0871
  158DOPC   H3Y19060   3.942   7.199   6.461  1.5283  0.6152  1.8830
  158DOPC   C3419061   3.950   7.323   6.283  0.0561 -0.1197  0.5819
  158DOPC   H4X19062   3.940   7.232   6.220 -2.4593 -0.3272  1.2018
  158DOPC   H4Y19063   4.028   7.390   6.240 -0.9204  1.2232  0.8637
  158DOPC   C3519064   3.815   7.397   6.293  0.2096  0.8217  0.5132
  158DOPC   H5X19065   3.826   7.490   6.353  1.4662 -0.4036  2.2966
  158DOPC   H5Y19066   3.739   7.335   6.346  0.2715 -0.5742 -0.9387
  158DOPC   C3619067   3.751   7.430   6.155  0.4544 -0.1388 -0.2010
  158DOPC   H6X19068   3.723   7.334   6.106 -1.0211  1.0080 -1.7229
  158DOPC   H6Y19069   3.655   7.485   6.163  0.5766  0.0515 -0.0435
  158DOPC   C3719070   3.843   7.501   6.048  0.4436 -0.8989 -0.3447
  158DOPC   H7X19071   3.870   7.605   6.073  1.1874 -1.2294  0.2271
  158DOPC   H7Y19072   3.940   7.448   6.044  0.4832 -0.7635 -1.6229
  158DOPC   C3819073   3.776   7.487   5.907  0.5543  0.1018 -0.1118
  158DOPC   H8X19074   3.747   7.386   5.874 -0.6988  0.2020  0.6254
  158DOPC   H8Y19075   3.854   7.527   5.838 -0.2215  1.1003 -0.4347
  158DOPC   C3919076   3.654   7.579   5.906  0.0428 -0.4019 -0.7420
  158DOPC   H9X19077   3.632   7.636   5.998  1.4117  0.1480 -0.7280
  158DOPC  C31019078   3.571   7.603   5.802 -0.1908 -0.8571  0.1319
  158DOPC  H10X19079   3.479   7.661   5.820 -0.1823 -0.8124  0.0343
  158DOPC  C31119080   3.569   7.517   5.679 -0.1841  0.1376 -0.2565
  158DOPC  H11X19081   3.511   7.425   5.699  1.4496 -0.6298  1.2881
  158DOPC  H11Y19082   3.673   7.484   5.657 -0.0863  0.9740 -1.1158
  158DOPC  C31219083   3.499   7.585   5.553 -0.3495  0.4401  0.0693
  158DOPC  H12X19084   3.554   7.681   5.537  0.0437  0.1665 -0.2407
  158DOPC  H12Y19085   3.395   7.617   5.577 -0.4353  0.5796 -0.4810
  158DOPC  C31319086   3.493   7.498   5.428 -0.0151 -0.2095 -0.9318
  158DOPC  H13X19087   3.596   7.457   5.416  0.4933  1.0675 -1.0885
  158DOPC  H13Y19088   3.426   7.412   5.448  0.9861 -1.1011 -1.2830
  158DOPC  C31419089   3.439   7.561   5.301 -0.3372 -0.0751 -0.1505
  158DOPC  H14X19090   3.337   7.596   5.325 -0.5822 -0.8213 -0.0600
  158DOPC  H14Y19091   3.491   7.658   5.289  0.8643 -0.7414 -0.6276
  158DOPC  C31519092   3.446   7.474   5.171  0.3895 -0.1332  0.2362
  158DOPC  H15X19093   3.543   7.419   5.169  0.2406 -0.4287  0.7918
  158DOPC  H15Y19094   3.453   7.542   5.084  2.6780  0.0953  0.5219
  158DOPC  C31619095   3.323   7.379   5.153 -0.2979 -0.4990  0.2585
  158DOPC  H16X19096   3.311   7.313   5.242 -0.3809  0.5131  1.0098
  158DOPC  H16Y19097   3.226   7.432   5.145 -0.8315 -1.5180 -0.1410
  158DOPC  C31719098   3.339   7.299   5.020 -0.0599  0.8933  0.8131
  158DOPC  H17X19099   3.311   7.354   4.927  0.4959 -1.9594 -1.1604
  158DOPC  H17Y19100   3.447   7.276   5.017 -0.3194 -0.3029 -0.3871
  158DOPC  C31819101   3.260   7.164   5.023 -0.2187 -0.1125  0.3581
  158DOPC  H18X19102   3.158   7.207   5.018  1.0172  3.0593  0.4055
  158DOPC  H18Y19103   3.288   7.092   4.944 -0.9604  0.8381 -0.7945
  158DOPC  H18Z19104   3.269   7.120   5.125 -3.6322 -0.4391  0.6410
  159DOPC     N19105   7.130   1.169   7.074  0.3868 -0.5649  0.1898
  159DOPC   C1219106   6.993   1.164   7.141 -0.7551 -0.6891 -0.2647
  159DOPC  H12A19107   6.922   1.237   7.104  1.7706  2.0119 -0.2138
  159DOPC  H12B19108   6.994   1.195   7.244 -0.2696 -1.2607 -0.0936
  159DOPC   C1319109   7.222   1.074   7.141 -0.3425  0.3184 -0.4794
  159DOPC  H13A19110   7.185   0.973   7.150  0.8128 -0.4052 -3.1077
  159DOPC  H13B19111   7.317   1.071   7.089  0.8343  1.0924  1.4954
  159DOPC  H13C19112   7.242   1.116   7.239 -1.9134  2.1290 -0.8716
  159DOPC   C1419113   7.196   1.301   7.090 -0.1067 -0.3200 -0.3308
  159DOPC  H14A19114   7.300   1.301   7.063 -0.1456 -1.0372 -0.5059
  159DOPC  H14B19115   7.144   1.382   7.041 -1.0913  1.8000  3.7822
  159DOPC  H14C19116   7.188   1.341   7.189 -1.5142  0.8733 -0.8898
  159DOPC   C1519117   7.127   1.133   6.928 -0.0548  0.1478 -0.7573
  159DOPC  H15A19118   7.080   1.210   6.867  0.3538  1.7704  0.8989
  159DOPC  H15B19119   7.087   1.034   6.914 -0.2343  0.1871 -0.5310
  159DOPC  H15C19120   7.229   1.132   6.893  0.0430 -0.1193 -0.4678
  159DOPC   C1119121   6.916   1.035   7.120  0.5996  0.0452  0.4145
  159DOPC  H11A19122   6.976   0.946   7.149 -0.7803 -0.6809  1.1014
  159DOPC  H11B19123   6.841   1.030   7.201 -0.4963  1.3850 -0.4593
  159DOPC     P19124   6.782   0.886   6.934 -0.2834 -0.3216 -0.4683
  159DOPC   O1319125   6.637   0.890   6.968  0.2024  0.2623 -0.0158
  159DOPC   O1419126   6.851   0.763   6.984 -0.5040 -0.0958  0.5283
  159DOPC   O1219127   6.850   1.021   6.985  0.2102 -0.4726 -0.0497
  159DOPC   O1119128   6.806   0.895   6.780 -0.7285 -0.1071 -0.0387
  159DOPC    C119129   6.746   0.993   6.699  0.0266 -0.2544  0.4140
  159DOPC    HA19130   6.821   1.027   6.624 -0.7721 -1.0142 -0.7656
  159DOPC    HB19131   6.720   1.079   6.766  2.1649 -0.9992  2.3189
  159DOPC    C219132   6.627   0.949   6.627  0.0281  0.7338  0.4847
  159DOPC    HS19133   6.563   0.894   6.699  1.9732 -0.3109  1.5104
  159DOPC   O2119134   6.669   0.844   6.534 -0.0380 -0.1461 -0.4835
  159DOPC   C2119135   6.562   0.776   6.490  0.3647 -0.0423 -0.2488
  159DOPC   O2219136   6.443   0.806   6.513  0.4118  0.0549  0.4318
  159DOPC   C2219137   6.613   0.654   6.411 -0.2881  0.9096 -0.0285
  159DOPC   H2R19138   6.541   0.574   6.435  0.4597 -0.0749 -0.9519
  159DOPC   H2S19139   6.713   0.619   6.443  0.6605  3.3953 -0.0285
  159DOPC    C319140   6.563   1.071   6.546  0.0517  0.4737  0.3338
  159DOPC    HX19141   6.565   1.148   6.626  0.3296  0.9434 -0.1226
  159DOPC    HY19142   6.462   1.039   6.513  0.1225  1.6680 -1.1323
  159DOPC   O3119143   6.632   1.121   6.436 -0.2663  0.6838  0.2841
  159DOPC   C3119144   6.571   1.215   6.375 -0.0735  0.4969 -0.0002
  159DOPC   O3219145   6.463   1.264   6.395 -0.2028  0.4971  0.1143
  159DOPC   C3219146   6.662   1.265   6.258 -0.2296 -0.1627  0.2378
  159DOPC   H2X19147   6.770   1.249   6.280 -0.2727 -0.8804 -0.0257
  159DOPC   H2Y19148   6.639   1.203   6.168  0.1581 -0.2347  0.1854
  159DOPC   C2319149   6.610   0.664   6.260  0.3224 -0.4790  0.2320
  159DOPC   H3R19150   6.512   0.666   6.208 -0.1080  0.1708  1.0470
  159DOPC   H3S19151   6.673   0.577   6.231  0.1091 -0.6140  0.1712
  159DOPC   C2419152   6.693   0.790   6.207  0.0236  0.4291  0.9507
  159DOPC   H4R19153   6.768   0.813   6.286 -0.0235  1.3595  0.7413
  159DOPC   H4S19154   6.621   0.873   6.188 -1.7065 -1.1513  0.3551
  159DOPC   C2519155   6.773   0.759   6.080  0.4971 -0.7596 -0.4164
  159DOPC   H5R19156   6.699   0.738   6.000  0.6055  1.8452 -1.2966
  159DOPC   H5S19157   6.842   0.674   6.098 -0.9221 -1.7080  0.7305
  159DOPC   C2619158   6.859   0.882   6.046  0.2821  0.1399 -0.2193
  159DOPC   H6R19159   6.938   0.884   6.123  1.4045  0.0369 -1.3347
  159DOPC   H6S19160   6.795   0.973   6.052 -1.2144 -0.9627  1.8719
  159DOPC   C2719161   6.921   0.882   5.900  0.1841 -0.2833 -0.3017
  159DOPC   H7R19162   6.843   0.888   5.821  1.4444  0.4015 -1.5193
  159DOPC   H7S19163   6.973   0.784   5.909  0.4499  0.0046  1.8452
  159DOPC   C2819164   7.011   1.010   5.872 -0.0264 -0.4095 -0.8996
  159DOPC   H8R19165   7.088   1.027   5.951 -0.9273  0.3946 -0.1767
  159DOPC   H8S19166   6.943   1.098   5.881  4.1329  2.9298  2.9701
  159DOPC   C2919167   7.069   0.991   5.736  1.4041 -0.0919  0.4594
  159DOPC   H9R19168   7.151   0.919   5.732  1.5593  0.1372 -2.3434
  159DOPC  C21019169   7.025   1.055   5.629  0.1528  0.1220 -0.0919
  159DOPC  H10R19170   7.077   1.052   5.532  2.5941  0.5235  1.1303
  159DOPC  C21119171   6.918   1.160   5.621  0.5443  0.4242 -0.2699
  159DOPC  H11R19172   6.933   1.228   5.708  3.4803 -0.5040  0.0671
  159DOPC  H11S19173   6.816   1.116   5.623  0.3854  0.7622 -0.8214
  159DOPC  C21219174   6.922   1.240   5.494 -0.1595 -0.5477 -0.2322
  159DOPC  H12R19175   6.836   1.311   5.501  1.4945  1.7003 -1.2026
  159DOPC  H12S19176   6.918   1.183   5.399  0.1987  1.6572 -1.6600
  159DOPC  C21319177   7.055   1.321   5.487 -0.7672  0.1471 -0.0732
  159DOPC  H13R19178   7.143   1.252   5.493 -1.1912 -0.5480 -1.4531
  159DOPC  H13S19179   7.065   1.396   5.569 -2.4478 -0.6987  0.9516
  159DOPC  C21419180   7.070   1.391   5.357 -0.3524  0.2152  0.0462
  159DOPC  H14R19181   7.072   1.326   5.266  2.7672  0.9193 -0.4968
  159DOPC  H14S19182   7.172   1.433   5.346 -0.2150 -0.3629 -1.0895
  159DOPC  C21519183   6.976   1.514   5.355  0.6194 -0.2557  0.1038
  159DOPC  H15R19184   6.988   1.576   5.447 -0.0191  0.8044 -0.5039
  159DOPC  H15S19185   6.867   1.490   5.357  0.1697  1.6180  0.8549
  159DOPC  C21619186   6.998   1.591   5.230 -0.0382 -0.1190  0.6220
  159DOPC  H16R19187   7.002   1.532   5.136  3.4564  1.6342 -0.4887
  159DOPC  H16S19188   7.102   1.629   5.232 -0.0886  0.0777 -0.1991
  159DOPC  C21719189   6.890   1.700   5.214 -0.3143  0.0361 -0.4577
  159DOPC  H17R19190   6.904   1.772   5.298  1.4334 -0.3890 -0.3326
  159DOPC  H17S19191   6.792   1.649   5.228 -1.1254  1.4341 -0.8798
  159DOPC  C21819192   6.895   1.766   5.081 -0.5107 -0.6775 -0.1137
  159DOPC  H18R19193   6.984   1.832   5.071  0.0687 -1.7137 -2.5417
  159DOPC  H18S19194   6.804   1.825   5.059 -0.7846 -0.8122  0.6502
  159DOPC  H18T19195   6.900   1.686   5.004 -0.3058  0.3556 -1.2104
  159DOPC   C3319196   6.658   1.422   6.243  0.7994 -0.3729 -0.3938
  159DOPC   H3X19197   6.700   1.450   6.341  0.6793 -1.2676 -0.0808
  159DOPC   H3Y19198   6.558   1.470   6.232  0.9240 -0.5778 -3.2819
  159DOPC   C3419199   6.744   1.468   6.122 -1.0507 -0.5157 -0.0968
  159DOPC   H4X19200   6.698   1.435   6.026 -0.9407  1.0893 -0.7352
  159DOPC   H4Y19201   6.842   1.417   6.127 -0.5964  0.3419 -0.1335
  159DOPC   C3519202   6.770   1.622   6.123  0.0817  0.3124 -0.1202
  159DOPC   H5X19203   6.801   1.652   6.225 -2.3236  0.7614  0.5400
  159DOPC   H5Y19204   6.682   1.682   6.091  0.2689  1.4364  1.3530
  159DOPC   C3619205   6.886   1.659   6.036 -0.4885  0.3176  0.0397
  159DOPC   H6X19206   6.970   1.606   6.086  1.0258  2.6565  0.1423
  159DOPC   H6Y19207   6.878   1.630   5.929 -2.0498 -0.2438  0.2905
  159DOPC   C3719208   6.932   1.812   6.038 -0.0790  0.6169  0.2799
  159DOPC   H7X19209   6.931   1.860   6.138 -0.9603 -2.3729  1.8261
  159DOPC   H7Y19210   7.035   1.810   5.994  0.1243  1.0597  0.7347
  159DOPC   C3819211   6.839   1.906   5.950 -0.2597 -0.0004  0.0377
  159DOPC   H8X19212   6.765   1.926   6.030 -1.6761  1.1196 -1.5040
  159DOPC   H8Y19213   6.793   1.850   5.866 -1.5870  1.7604 -0.4463
  159DOPC   C3919214   6.901   2.031   5.901  0.8056 -0.5246 -0.1818
  159DOPC   H9X19215   6.955   2.081   5.983 -1.1902  0.5409  0.5466
  159DOPC  C31019216   6.905   2.073   5.775  0.1303 -0.2250  0.1484
  159DOPC  H10X19217   6.953   2.168   5.746 -3.3025  1.4746 -0.5391
  159DOPC  C31119218   6.855   2.003   5.653  0.5437  0.4463  0.2716
  159DOPC  H11X19219   6.802   2.074   5.587  0.5820 -0.8249 -1.1730
  159DOPC  H11Y19220   6.776   1.928   5.679 -0.7615  1.6552 -0.0892
  159DOPC  C31219221   6.965   1.930   5.572  0.1017  0.6728 -0.4198
  159DOPC  H12X19222   6.909   1.865   5.502  0.1422  1.5273 -1.2701
  159DOPC  H12Y19223   7.032   1.861   5.628 -1.5456 -1.4090 -0.9004
  159DOPC  C31319224   7.032   2.015   5.460 -0.9909  0.8952 -0.4933
  159DOPC  H13X19225   6.950   2.024   5.385 -1.2733 -2.8848 -0.8383
  159DOPC  H13Y19226   7.065   2.110   5.506 -2.9670  1.3609  0.0594
  159DOPC  C31419227   7.149   1.940   5.405  1.0330 -0.0903  0.1920
  159DOPC  H14X19228   7.227   1.930   5.484  1.3990 -0.0143 -0.1567
  159DOPC  H14Y19229   7.112   1.837   5.384  0.7495  0.2934 -1.2346
  159DOPC  C31519230   7.199   2.014   5.280  0.3640 -0.1424 -0.3237
  159DOPC  H15X19231   7.219   2.119   5.310  1.1236 -0.4585  0.3236
  159DOPC  H15Y19232   7.116   2.012   5.206 -1.1053  1.4400  1.1780
  159DOPC  C31619233   7.328   1.958   5.220 -0.1997  0.0382 -0.2166
  159DOPC  H16X19234   7.386   2.031   5.160 -0.2803  1.7087  1.6471
  159DOPC  H16Y19235   7.390   1.929   5.307 -1.9654 -1.7507  0.5352
  159DOPC  C31719236   7.314   1.826   5.146 -0.6263 -0.5753 -0.0542
  159DOPC  H17X19237   7.275   1.753   5.220 -2.0331  1.9570  1.8510
  159DOPC  H17Y19238   7.234   1.831   5.070  0.5316 -1.0747 -1.3401
  159DOPC  C31819239   7.444   1.772   5.080  0.8018 -0.1355 -0.0400
  159DOPC  H18X19240   7.426   1.677   5.026 -0.7692 -0.8456  1.6015
  159DOPC  H18Y19241   7.487   1.841   5.004  0.9515  0.1479  0.2947
  159DOPC  H18Z19242   7.514   1.756   5.165  0.0232 -1.5295  0.3617
  160DOPC     N19243   1.290   5.336   7.477  0.3989 -0.1311  0.9382
  160DOPC   C1219244   1.250   5.261   7.342 -1.0774 -0.3425 -0.2686
  160DOPC  H12A19245   1.194   5.171   7.363 -0.7514 -0.0590  2.1231
  160DOPC  H12B19246   1.338   5.232   7.286 -2.3727 -1.3604 -1.8661
  160DOPC   C1319247   1.375   5.242   7.559  0.5146  0.0851  0.2136
  160DOPC  H13A19248   1.375   5.271   7.663  0.3379 -0.4163  0.3560
  160DOPC  H13B19249   1.332   5.144   7.552 -0.4092  0.4300  0.8348
  160DOPC  H13C19250   1.475   5.242   7.518  0.7929 -1.5130  0.8466
  160DOPC   C1419251   1.167   5.368   7.552 -0.2255  0.2211 -0.1901
  160DOPC  H14A19252   1.114   5.278   7.581 -0.9437  0.8808  0.5943
  160DOPC  H14B19253   1.203   5.401   7.649 -0.7317  0.7287 -0.1685
  160DOPC  H14C19254   1.102   5.441   7.506 -0.6445  1.7569  2.6006
  160DOPC   C1519255   1.372   5.457   7.452 -0.0370 -0.6194  0.9740
  160DOPC  H15A19256   1.316   5.526   7.390 -0.2228 -1.2147  0.4773
  160DOPC  H15B19257   1.460   5.434   7.394  0.1855  1.5869  0.3508
  160DOPC  H15C19258   1.403   5.507   7.543 -2.3187 -1.3386  2.2267
  160DOPC   C1119259   1.167   5.335   7.237  0.2890  0.2658  0.2790
  160DOPC  H11A19260   1.116   5.268   7.164 -3.0611  1.0465  1.6891
  160DOPC  H11B19261   1.070   5.369   7.279  0.5366  0.3018  0.8191
  160DOPC     P19262   1.348   5.445   7.088 -0.3693 -0.1087  0.2311
  160DOPC   O1319263   1.473   5.438   7.160 -0.4059 -0.1620 -0.3751
  160DOPC   O1419264   1.346   5.563   6.994 -0.6628 -0.0005  0.2723
  160DOPC   O1219265   1.234   5.450   7.188  0.3915  0.1389  0.0085
  160DOPC   O1119266   1.325   5.314   7.003  0.2669 -0.7687 -0.4340
  160DOPC    C119267   1.246   5.312   6.889 -0.3662  0.4830  0.6449
  160DOPC    HA19268   1.153   5.372   6.893  0.1535  1.2966  0.7088
  160DOPC    HB19269   1.213   5.207   6.874 -1.3132  0.7747  0.6344
  160DOPC    C219270   1.343   5.341   6.764 -0.5501 -0.4479  0.2582
  160DOPC    HS19271   1.378   5.446   6.776 -1.9225 -0.0238  0.6755
  160DOPC   O2119272   1.270   5.338   6.634 -0.4545 -0.1630  0.2764
  160DOPC   C2119273   1.194   5.441   6.617  0.6131  0.9064  0.4498
  160DOPC   O2219274   1.187   5.533   6.694 -0.3368 -0.0105 -0.5180
  160DOPC   C2219275   1.128   5.427   6.475  0.1903 -0.8040 -0.1788
  160DOPC   H2R19276   1.033   5.373   6.494 -1.6846  2.8336  1.8854
  160DOPC   H2S19277   1.202   5.364   6.421  0.7894 -1.4822  1.3527
  160DOPC    C319278   1.472   5.253   6.755 -0.6094  0.7559  0.4026
  160DOPC    HX19279   1.431   5.161   6.707  0.9449  0.9061 -1.3385
  160DOPC    HY19280   1.504   5.229   6.859  0.1633  1.7796  0.4186
  160DOPC   O3119281   1.584   5.316   6.688 -0.1994 -0.0973  0.2490
  160DOPC   C3119282   1.678   5.231   6.653 -0.5206  0.4360  0.6187
  160DOPC   O3219283   1.687   5.111   6.687  0.4487 -0.1893 -0.3688
  160DOPC   C3219284   1.767   5.317   6.557 -0.0963 -0.3457  0.9501
  160DOPC   H2X19285   1.741   5.425   6.559 -2.0005 -0.4125 -4.1880
  160DOPC   H2Y19286   1.870   5.298   6.595  1.3872  0.0083 -2.5236
  160DOPC   C2319287   1.100   5.559   6.400  0.0880 -0.0862 -0.1430
  160DOPC   H3R19288   1.183   5.633   6.407 -1.9669  2.2791  0.2252
  160DOPC   H3S19289   1.013   5.616   6.438  0.8304  1.2856 -0.4259
  160DOPC   C2419290   1.092   5.523   6.256  0.3336 -1.2604  0.5706
  160DOPC   H4R19291   1.017   5.442   6.240 -0.3916 -0.5998  0.5603
  160DOPC   H4S19292   1.193   5.489   6.224  0.4981  0.5804 -1.0548
  160DOPC   C2519293   1.056   5.639   6.165  0.1054 -0.4901 -0.0345
  160DOPC   H5R19294   1.086   5.631   6.058  2.0835  0.4467  0.3996
  160DOPC   H5S19295   1.121   5.722   6.200 -1.5577  0.6789  0.3689
  160DOPC   C2619296   0.911   5.691   6.181  0.4318 -0.1581  0.5407
  160DOPC   H6R19297   0.895   5.708   6.290 -0.5906 -0.1114  0.3938
  160DOPC   H6S19298   0.843   5.615   6.136 -2.0715  1.9054  0.6287
  160DOPC   C2719299   0.884   5.822   6.099 -0.0512 -0.5933 -0.9343
  160DOPC   H7R19300   0.936   5.909   6.143 -0.7449 -0.3980 -0.4795
  160DOPC   H7S19301   0.776   5.842   6.119  0.1806  0.4766 -0.7250
  160DOPC   C2819302   0.910   5.807   5.952  0.2634 -0.7711 -0.0907
  160DOPC   H8R19303   0.879   5.704   5.926 -1.6635 -0.4745  0.8142
  160DOPC   H8S19304   1.017   5.811   5.922 -0.1399  0.7459 -1.5107
  160DOPC   C2919305   0.829   5.906   5.862 -0.3080  0.2584  0.2244
  160DOPC   H9R19306   0.738   5.949   5.906 -0.2221 -0.2609  0.9338
  160DOPC  C21019307   0.883   5.961   5.755 -0.3474 -0.3703  0.6524
  160DOPC  H10R19308   0.822   6.041   5.708 -2.8663 -3.2388 -1.3637
  160DOPC  C21119309   1.021   5.933   5.699  0.0954  0.1020 -0.1785
  160DOPC  H11R19310   1.017   5.930   5.588  0.8466 -0.8213 -0.1918
  160DOPC  H11S19311   1.042   5.827   5.725 -0.7890  0.0676  0.4556
  160DOPC  C21219312   1.144   6.019   5.725  0.2200 -0.2806 -0.0503
  160DOPC  H12R19313   1.231   5.965   5.682  2.4614  3.6900 -0.9791
  160DOPC  H12S19314   1.159   6.034   5.834  1.6797  0.8507 -0.3726
  160DOPC  C21319315   1.136   6.158   5.653  0.7168  0.2905 -0.2812
  160DOPC  H13R19316   1.060   6.216   5.709  1.7713  0.0023  1.5391
  160DOPC  H13S19317   1.103   6.146   5.548 -0.0553 -2.1579  0.1920
  160DOPC  C21419318   1.264   6.237   5.659 -0.6097  0.1860 -0.4128
  160DOPC  H14R19319   1.350   6.178   5.621 -2.3649 -1.1130 -2.5929
  160DOPC  H14S19320   1.292   6.277   5.759 -4.1698  5.4323 -1.1056
  160DOPC  C21519321   1.248   6.372   5.582 -0.2763 -0.2945 -0.6836
  160DOPC  H15R19322   1.335   6.437   5.609 -1.1687  0.7475 -0.2382
  160DOPC  H15S19323   1.151   6.416   5.611 -1.9990 -2.0777 -3.3367
  160DOPC  C21619324   1.252   6.351   5.433 -0.1362 -0.7368  0.9015
  160DOPC  H16R19325   1.185   6.268   5.401  0.6633 -0.3032 -2.2838
  160DOPC  H16S19326   1.351   6.335   5.387 -0.9552  0.1286 -1.2979
  160DOPC  C21719327   1.196   6.474   5.359  0.0871  0.1534  0.8831
  160DOPC  H17R19328   1.240   6.483   5.257 -1.1995  1.8975  0.4303
  160DOPC  H17S19329   1.215   6.565   5.419 -2.1361  1.7245 -0.6234
  160DOPC  C21819330   1.043   6.476   5.331 -0.0715  0.8314 -0.3544
  160DOPC  H18R19331   1.013   6.418   5.242  0.6334 -0.8684  0.4630
  160DOPC  H18S19332   1.020   6.583   5.311 -1.4438  0.3669 -1.3810
  160DOPC  H18T19333   0.990   6.453   5.426 -0.0182  2.3199  0.0721
  160DOPC   C3319334   1.750   5.281   6.411  0.1427  0.2244  0.3303
  160DOPC   H3X19335   1.731   5.172   6.399  2.1793 -0.0752 -0.4810
  160DOPC   H3Y19336   1.838   5.311   6.351  0.5788 -1.7569 -0.0961
  160DOPC   C3419337   1.630   5.364   6.352  0.1650  0.3724 -0.0444
  160DOPC   H4X19338   1.655   5.472   6.358 -1.1615  0.8356 -2.0042
  160DOPC   H4Y19339   1.536   5.342   6.408 -0.8965  2.3888 -0.9320
  160DOPC   C3519340   1.597   5.326   6.208  0.2527  0.7666  0.2352
  160DOPC   H5X19341   1.576   5.217   6.212  1.6463  0.4820  0.7033
  160DOPC   H5Y19342   1.687   5.347   6.146 -0.9696  1.7402 -1.2616
  160DOPC   C3619343   1.480   5.400   6.143  0.0383  0.6243 -0.0934
  160DOPC   H6X19344   1.394   5.388   6.213  0.1829 -0.3848 -0.0711
  160DOPC   H6Y19345   1.495   5.509   6.147  0.0390  0.7443 -2.1267
  160DOPC   C3719346   1.462   5.365   5.996 -0.3006  0.1612 -1.0681
  160DOPC   H7X19347   1.558   5.385   5.943 -0.5576 -0.1423 -1.6562
  160DOPC   H7Y19348   1.442   5.256   6.003  0.5637  0.0997  2.7018
  160DOPC   C3819349   1.354   5.446   5.932 -0.4124  0.1746  1.3570
  160DOPC   H8X19350   1.382   5.553   5.921  1.0520 -0.1441  1.8555
  160DOPC   H8Y19351   1.257   5.456   5.985 -1.2195  1.3884 -0.2348
  160DOPC   C3919352   1.320   5.377   5.798  0.1151 -0.5106 -1.2699
  160DOPC   H9X19353   1.299   5.269   5.805 -2.1991 -0.0875 -0.6599
  160DOPC  C31019354   1.282   5.439   5.681 -0.1013  0.4342  0.6466
  160DOPC  H10X19355   1.251   5.377   5.595  0.9345  1.9705 -0.8928
  160DOPC  C31119356   1.291   5.587   5.646 -0.6999  0.1638  0.2550
  160DOPC  H11X19357   1.377   5.641   5.692 -0.7895  0.2911  0.2726
  160DOPC  H11Y19358   1.215   5.641   5.707 -0.5249  0.1470  0.4901
  160DOPC  C31219359   1.277   5.627   5.496 -0.1311  0.0143 -0.0439
  160DOPC  H12X19360   1.283   5.738   5.485  2.9164  0.4296  3.6831
  160DOPC  H12Y19361   1.176   5.599   5.460 -0.2375 -1.3413  1.2380
  160DOPC  C31319362   1.376   5.567   5.404 -0.5516  0.1092 -0.2770
  160DOPC  H13X19363   1.467   5.629   5.420 -0.8505  0.3910  0.3807
  160DOPC  H13Y19364   1.415   5.468   5.434 -0.2352 -0.0484 -1.1673
  160DOPC  C31419365   1.331   5.569   5.257 -0.5066 -0.9354  0.1720
  160DOPC  H14X19366   1.267   5.482   5.230  0.2541 -1.0488 -1.4057
  160DOPC  H14Y19367   1.272   5.662   5.249 -1.3617 -1.3743  1.2202
  160DOPC  C31519368   1.446   5.565   5.157 -0.3980  0.6017 -0.8047
  160DOPC  H15X19369   1.480   5.462   5.184  0.8198  1.7122  2.4533
  160DOPC  H15Y19370   1.522   5.641   5.185  0.6150 -0.5933 -0.1756
  160DOPC  C31619371   1.389   5.564   5.014  0.0225 -0.6823  0.3720
  160DOPC  H16X19372   1.323   5.476   4.999 -0.7772  0.1124 -1.0478
  160DOPC  H16Y19373   1.331   5.659   5.008  2.0776  0.7072  1.1306
  160DOPC  C31719374   1.486   5.573   4.895  0.3216 -0.0067 -0.2134
  160DOPC  H17X19375   1.566   5.650   4.905 -0.4142  0.7953 -0.4384
  160DOPC  H17Y19376   1.534   5.472   4.895  0.4080  0.0354 -0.5451
  160DOPC  C31819377   1.417   5.600   4.759 -0.0177 -0.2360 -0.0452
  160DOPC  H18X19378   1.484   5.577   4.673 -1.2968 -0.0335 -1.1443
  160DOPC  H18Y19379   1.331   5.534   4.732  1.2091 -1.6588 -0.5858
  160DOPC  H18Z19380   1.388   5.706   4.743  4.3324  0.8570 -2.2034
  161DOPC     N19381   3.544   6.496   7.530 -0.4902 -0.1812  0.4264
  161DOPC   C1219382   3.599   6.633   7.550  0.5738 -0.3406  0.0402
  161DOPC  H12A19383   3.700   6.643   7.514  1.4575 -1.7738  1.9067
  161DOPC  H12B19384   3.611   6.655   7.655  0.4694 -0.5778  0.1048
  161DOPC   C1319385   3.540   6.461   7.389  0.2282 -0.0144  0.6743
  161DOPC  H13A19386   3.502   6.363   7.364  0.8183 -0.6541  2.1827
  161DOPC  H13B19387   3.481   6.540   7.344 -0.0972 -0.0688  1.0031
  161DOPC  H13C19388   3.635   6.467   7.338 -1.9150  1.1047 -3.6744
  161DOPC   C1419389   3.411   6.479   7.579  1.1842 -0.5272 -0.5281
  161DOPC  H14A19390   3.415   6.480   7.687  0.3499 -0.8482 -0.4898
  161DOPC  H14B19391   3.340   6.554   7.548 -1.0155 -2.3812 -0.2475
  161DOPC  H14C19392   3.359   6.388   7.555 -0.8924 -0.1419  1.9908
  161DOPC   C1519393   3.637   6.405   7.606 -0.3412  0.3597  0.3098
  161DOPC  H15A19394   3.613   6.300   7.601  2.6281 -0.4915  1.3479
  161DOPC  H15B19395   3.631   6.417   7.714  3.9517  0.2107  0.7553
  161DOPC  H15C19396   3.741   6.425   7.581 -1.0162  2.7236 -0.8943
  161DOPC   C1119397   3.512   6.745   7.482 -0.5332 -0.8394 -0.5758
  161DOPC  H11A19398   3.410   6.743   7.528 -0.3585 -0.1545 -0.1383
  161DOPC  H11B19399   3.541   6.846   7.518 -1.1015 -1.3005  1.2913
  161DOPC     P19400   3.629   6.794   7.255  0.1011 -0.0831 -0.3225
  161DOPC   O1319401   3.697   6.673   7.200  0.0621  0.1636 -0.2070
  161DOPC   O1419402   3.713   6.887   7.329  0.5544 -0.0137  0.1581
  161DOPC   O1219403   3.509   6.744   7.336 -0.1209 -0.2196 -0.6038
  161DOPC   O1119404   3.576   6.875   7.126  0.7922  0.1125 -0.7087
  161DOPC    C119405   3.440   6.884   7.095 -0.1050 -0.0288  0.0832
  161DOPC    HA19406   3.370   6.910   7.177  0.0590 -0.1189  0.2530
  161DOPC    HB19407   3.396   6.790   7.055 -0.0679  0.0829 -0.2184
  161DOPC    C219408   3.419   6.992   6.989  0.2812 -0.5094  0.4411
  161DOPC    HS19409   3.314   6.985   6.953  1.1704 -1.1886 -2.2826
  161DOPC   O2119410   3.487   6.972   6.866 -0.6185  0.0939  0.2807
  161DOPC   C2119411   3.457   6.868   6.799  0.6267  0.7074  0.6519
  161DOPC   O2219412   3.372   6.784   6.830 -0.8580  0.6651  0.8731
  161DOPC   C2219413   3.536   6.850   6.671  0.0543  0.0752  0.1141
  161DOPC   H2R19414   3.496   6.764   6.613  2.0179  0.2645 -1.6479
  161DOPC   H2S19415   3.644   6.832   6.692  1.3147  3.9478 -2.1161
  161DOPC    C319416   3.435   7.138   7.047 -0.0292 -0.4742  0.1324
  161DOPC    HX19417   3.543   7.161   7.059 -0.3172 -0.1839  2.9685
  161DOPC    HY19418   3.394   7.146   7.150 -1.2114  0.3089 -0.3838
  161DOPC   O3119419   3.374   7.233   6.958 -0.0622  0.7402 -0.6251
  161DOPC   C3119420   3.449   7.276   6.861 -0.0820 -0.2810  0.0863
  161DOPC   O3219421   3.568   7.252   6.838  0.1030 -0.2558 -0.7253
  161DOPC   C3219422   3.362   7.356   6.756 -0.3642 -0.8052  0.3216
  161DOPC   H2X19423   3.259   7.343   6.797 -0.0250 -0.7500  1.2324
  161DOPC   H2Y19424   3.395   7.460   6.778  0.5771 -0.9340 -0.4354
  161DOPC   C2319425   3.517   6.978   6.578 -0.3738 -0.1724  0.6240
  161DOPC   H3R19426   3.555   7.065   6.636 -1.4026 -0.8763  2.4382
  161DOPC   H3S19427   3.411   6.999   6.552 -0.6450 -2.3510 -0.1626
  161DOPC   C2419428   3.581   6.957   6.438 -0.4269  0.0845 -0.1656
  161DOPC   H4R19429   3.541   6.863   6.395 -0.4701  1.3770 -3.2238
  161DOPC   H4S19430   3.688   6.939   6.460  0.2690  0.8384 -2.6019
  161DOPC   C2519431   3.544   7.060   6.335 -0.0304 -0.3620  0.0871
  161DOPC   H5R19432   3.582   7.162   6.355 -0.8191  0.5808 -2.7079
  161DOPC   H5S19433   3.434   7.073   6.333 -0.1398 -1.2806 -1.3392
  161DOPC   C2619434   3.578   7.023   6.191  0.1656  0.5849 -0.1550
  161DOPC   H6R19435   3.565   6.916   6.165  0.4908  0.1499  1.3942
  161DOPC   H6S19436   3.688   7.035   6.187  0.0600  1.2629 -1.5842
  161DOPC   C2719437   3.505   7.111   6.085 -0.9686 -0.4300 -0.6832
  161DOPC   H7R19438   3.554   7.210   6.101 -0.0534 -1.2017  1.6141
  161DOPC   H7S19439   3.395   7.123   6.099 -0.7040  2.4521 -0.3269
  161DOPC   C2819440   3.532   7.066   5.943  0.2822  0.1787  0.1677
  161DOPC   H8R19441   3.471   6.973   5.941 -2.5998  1.9492 -1.6804
  161DOPC   H8S19442   3.640   7.048   5.926 -0.1639 -0.8446 -1.9212
  161DOPC   C2919443   3.482   7.162   5.835  0.8220 -0.2620 -0.2001
  161DOPC   H9R19444   3.514   7.267   5.846  1.1556 -0.4813  1.1520
  161DOPC  C21019445   3.423   7.123   5.718 -0.0384 -0.2129  0.0655
  161DOPC  H10R19446   3.403   7.198   5.640  0.1345 -1.4953 -1.2368
  161DOPC  C21119447   3.382   6.982   5.674  0.5411 -0.6528 -0.2986
  161DOPC  H11R19448   3.437   6.902   5.728  2.2896  0.4519 -0.3719
  161DOPC  H11S19449   3.403   6.973   5.565 -0.5014 -3.2283 -0.3660
  161DOPC  C21219450   3.232   6.961   5.702  0.5961 -0.1910  0.3607
  161DOPC  H12R19451   3.207   6.995   5.805  0.3432 -0.1054  0.2740
  161DOPC  H12S19452   3.213   6.852   5.697  0.8450 -0.2898  1.3824
  161DOPC  C21319453   3.143   7.039   5.609 -0.1601  0.7271 -0.3808
  161DOPC  H13R19454   3.178   7.029   5.504 -1.5603 -1.9395 -0.6913
  161DOPC  H13S19455   3.145   7.147   5.632 -0.4969  0.6460  0.0530
  161DOPC  C21419456   2.989   6.983   5.611 -0.4847 -0.2462 -0.4151
  161DOPC  H14R19457   2.944   6.985   5.713 -1.4694  1.8557 -0.8411
  161DOPC  H14S19458   2.984   6.877   5.577 -4.3847  0.2549 -1.8999
  161DOPC  C21519459   2.898   7.067   5.519 -0.5732 -0.1781 -0.0751
  161DOPC  H15R19460   2.959   7.069   5.426 -0.4749 -0.1616 -0.0092
  161DOPC  H15S19461   2.900   7.168   5.565 -1.9691 -0.1476 -0.0423
  161DOPC  C21619462   2.759   7.007   5.483 -0.2228  0.5410  0.1090
  161DOPC  H16R19463   2.706   6.969   5.573 -0.9348 -1.7549 -1.2034
  161DOPC  H16S19464   2.760   6.917   5.418 -2.9349 -0.6455  1.5194
  161DOPC  C21719465   2.666   7.104   5.422  0.2530 -0.4907 -0.0701
  161DOPC  H17R19466   2.719   7.127   5.327 -0.5426 -1.2451 -0.7061
  161DOPC  H17S19467   2.654   7.198   5.480  0.0104 -0.3805 -0.2962
  161DOPC  C21819468   2.532   7.042   5.375 -0.2582  0.6395  0.8697
  161DOPC  H18R19469   2.474   7.105   5.304 -0.7695 -1.4241 -0.6545
  161DOPC  H18S19470   2.460   7.006   5.452 -1.4791  1.5364  0.1922
  161DOPC  H18T19471   2.555   6.956   5.308 -3.4717  1.6694 -1.8483
  161DOPC   C3319472   3.391   7.322   6.607  0.1150  0.1708  0.0258
  161DOPC   H3X19473   3.348   7.221   6.593  0.3654  0.3722 -2.7282
  161DOPC   H3Y19474   3.500   7.315   6.588  0.5422  0.5843  2.0852
  161DOPC   C3419475   3.313   7.431   6.526  0.3572 -0.8867 -0.3117
  161DOPC   H4X19476   3.350   7.530   6.561 -1.3923 -0.2466 -0.1757
  161DOPC   H4Y19477   3.205   7.418   6.550  0.5922  0.8468  2.1354
  161DOPC   C3519478   3.347   7.413   6.385 -0.0777 -0.2744  0.1870
  161DOPC   H5X19479   3.415   7.326   6.378  2.6457  1.6987  0.3887
  161DOPC   H5Y19480   3.407   7.499   6.348 -1.6007 -0.1096 -2.1664
  161DOPC   C3619481   3.228   7.393   6.295  0.2114 -0.0174  0.7522
  161DOPC   H6X19482   3.192   7.289   6.306  0.2490 -0.2855 -1.2897
  161DOPC   H6Y19483   3.142   7.459   6.319 -0.9794 -0.1537 -2.5771
  161DOPC   C3719484   3.270   7.413   6.150  0.1557  0.4461 -0.9066
  161DOPC   H7X19485   3.314   7.515   6.141 -0.2862  0.4963 -2.9563
  161DOPC   H7Y19486   3.355   7.345   6.126  0.8700  0.9826 -0.0028
  161DOPC   C3819487   3.163   7.412   6.041 -0.2359 -0.0085 -0.4044
  161DOPC   H8X19488   3.131   7.306   6.032  1.7943 -0.5734 -1.7030
  161DOPC   H8Y19489   3.218   7.437   5.948 -0.5825  0.6231 -0.4369
  161DOPC   C3919490   3.054   7.514   6.059  0.3162  0.6158  0.2624
  161DOPC   H9X19491   3.098   7.615   6.055  1.1454  0.2263 -1.4547
  161DOPC  C31019492   2.925   7.497   6.072  0.3939 -0.2658  0.0302
  161DOPC  H10X19493   2.867   7.590   6.079  1.5460  0.3215  2.6971
  161DOPC  C31119494   2.855   7.366   6.073 -0.0536  0.2258  0.0187
  161DOPC  H11X19495   2.913   7.292   6.012  2.0397 -0.4878  2.6687
  161DOPC  H11Y19496   2.754   7.383   6.031 -0.4140  1.5519  1.3445
  161DOPC  C31219497   2.847   7.334   6.223 -0.0700  0.4561  0.5421
  161DOPC  H12X19498   2.770   7.394   6.275 -0.6734  0.1654  0.0031
  161DOPC  H12Y19499   2.941   7.348   6.281 -1.4982 -1.7908  3.7253
  161DOPC  C31319500   2.804   7.188   6.263  0.2618  0.5771 -0.0372
  161DOPC  H13X19501   2.700   7.175   6.227 -0.3805  2.1926  1.1057
  161DOPC  H13Y19502   2.880   7.126   6.211 -0.5762  1.6367 -2.6608
  161DOPC  C31419503   2.809   7.173   6.410  0.0870  0.1631 -0.1139
  161DOPC  H14X19504   2.812   7.068   6.446  0.7735  0.5892  1.1406
  161DOPC  H14Y19505   2.906   7.216   6.444 -1.2631  3.0661  0.3383
  161DOPC  C31519506   2.695   7.224   6.489 -0.3909  0.5486 -0.3443
  161DOPC  H15X19507   2.689   7.333   6.470 -1.7067  0.4446 -0.5890
  161DOPC  H15Y19508   2.726   7.202   6.594  0.1329 -1.9063 -0.9543
  161DOPC  C31619509   2.570   7.148   6.466  0.2359 -0.1339  0.4389
  161DOPC  H16X19510   2.527   7.168   6.365  1.7829  1.7020  0.1027
  161DOPC  H16Y19511   2.576   7.037   6.458 -0.5729 -0.0555 -3.6106
  161DOPC  C31719512   2.461   7.170   6.568  0.1386 -0.3750 -0.2627
  161DOPC  H17X19513   2.487   7.130   6.669  1.7005  1.5944  0.1885
  161DOPC  H17Y19514   2.448   7.278   6.590 -0.3483 -0.8652  2.1731
  161DOPC  C31819515   2.315   7.115   6.529 -0.3918  0.5255 -0.6802
  161DOPC  H18X19516   2.243   7.126   6.612 -1.5499  0.4655 -1.6504
  161DOPC  H18Y19517   2.273   7.164   6.439 -1.8646 -0.8171 -0.7565
  161DOPC  H18Z19518   2.318   7.005   6.513 -0.6102  0.6341 -1.5170
  162DOPC     N19519   7.195   5.541   7.213  0.3108  0.4203 -0.2341
  162DOPC   C1219520   7.231   5.628   7.095 -0.3348 -0.0177 -0.8667
  162DOPC  H12A19521   7.149   5.616   7.025  0.3578  1.2729 -1.9566
  162DOPC  H12B19522   7.320   5.595   7.042  0.8354  2.4254 -0.5548
  162DOPC   C1319523   7.102   5.590   7.312 -0.0391 -0.0552  0.3690
  162DOPC  H13A19524   7.090   5.524   7.397  0.1542  0.6212  0.9250
  162DOPC  H13B19525   7.125   5.691   7.343  1.5258  0.0499 -1.0096
  162DOPC  H13C19526   7.005   5.601   7.265  1.1554  0.4439 -2.1362
  162DOPC   C1419527   7.321   5.527   7.294  0.1087  0.7076 -0.6775
  162DOPC  H14A19528   7.306   5.480   7.390  0.1346 -0.2702 -1.1390
  162DOPC  H14B19529   7.390   5.462   7.241 -0.3874 -1.7155  1.4560
  162DOPC  H14C19530   7.377   5.619   7.304 -0.4090  0.9561 -0.0513
  162DOPC   C1519531   7.150   5.403   7.172  0.0899  0.4061  0.1824
  162DOPC  H15A19532   7.230   5.360   7.114  0.3629  0.0893  0.7785
  162DOPC  H15B19533   7.061   5.409   7.112  0.4722 -1.1514 -0.5797
  162DOPC  H15C19534   7.134   5.329   7.250  0.1371 -0.0146 -0.2042
  162DOPC   C1119535   7.260   5.779   7.119 -1.1660 -0.5990 -0.3183
  162DOPC  H11A19536   7.255   5.834   7.023 -0.6871 -0.9734 -0.5627
  162DOPC  H11B19537   7.184   5.828   7.184 -1.4844  0.1629 -1.2407
  162DOPC     P19538   7.511   5.754   7.066 -0.1476 -0.0747 -0.1440
  162DOPC   O1319539   7.514   5.609   7.049  0.3986  0.0194 -0.1439
  162DOPC   O1419540   7.636   5.819   7.111 -0.0476  0.5250 -0.1837
  162DOPC   O1219541   7.396   5.800   7.166 -0.4036  0.3235 -0.0763
  162DOPC   O1119542   7.463   5.811   6.926 -0.4333  0.0247  0.3338
  162DOPC    C119543   7.547   5.820   6.810 -0.0522 -0.0768 -0.2434
  162DOPC    HA19544   7.583   5.718   6.782  1.4502  0.4097 -0.1501
  162DOPC    HB19545   7.636   5.885   6.824  0.5769 -0.6671 -1.3521
  162DOPC    C219546   7.470   5.876   6.684 -0.5629  0.5344 -1.1854
  162DOPC    HS19547   7.374   5.825   6.659 -1.8186  2.7790 -1.2012
  162DOPC   O2119548   7.561   5.887   6.571 -0.1483 -0.2597  0.0617
  162DOPC   C2119549   7.606   5.771   6.518  1.0326  0.2191  0.4527
  162DOPC   O2219550   7.555   5.662   6.538  0.4284 -0.2502 -0.0855
  162DOPC   C2219551   7.728   5.804   6.427 -0.1037 -0.4256  0.0895
  162DOPC   H2R19552   7.813   5.739   6.454  1.3888  1.2749 -0.3270
  162DOPC   H2S19553   7.762   5.908   6.446  0.7042 -0.6090 -0.2933
  162DOPC    C319554   7.417   6.018   6.708  0.0313 -0.3161 -0.0733
  162DOPC    HX19555   7.503   6.088   6.708  0.1423 -0.3659 -2.2337
  162DOPC    HY19556   7.381   6.014   6.813  0.7819 -2.8838  0.1551
  162DOPC   O3119557   7.311   6.059   6.618  0.3282  0.5556 -0.3778
  162DOPC   C3119558   7.335   6.164   6.532 -0.0681  0.9409 -0.7480
  162DOPC   O3219559   7.440   6.225   6.533 -0.9940  0.1309  0.2717
  162DOPC   C3219560   7.212   6.196   6.449 -0.6397 -0.4617 -0.2610
  162DOPC   H2X19561   7.198   6.127   6.364 -2.2421 -0.7688  0.2201
  162DOPC   H2Y19562   7.124   6.189   6.517 -0.3483 -3.7517 -0.0685
  162DOPC   C2319563   7.704   5.790   6.277 -0.3648  0.9228  0.3126
  162DOPC   H3R19564   7.793   5.838   6.231  0.4591 -1.1519 -0.3980
  162DOPC   H3S19565   7.613   5.849   6.252 -1.2129 -0.0985  0.8827
  162DOPC   C2419566   7.695   5.642   6.227 -0.3066  0.4671 -0.6042
  162DOPC   H4R19567   7.606   5.599   6.279  0.6384  1.0692  1.6166
  162DOPC   H4S19568   7.784   5.584   6.258 -1.6456 -0.7783  1.1123
  162DOPC   C2519569   7.652   5.619   6.079  0.5515  0.1872  0.4975
  162DOPC   H5R19570   7.575   5.693   6.049 -3.1999 -2.3476  2.9871
  162DOPC   H5S19571   7.601   5.521   6.064 -0.3227  0.3655  2.1270
  162DOPC   C2619572   7.762   5.605   5.973 -0.1622 -0.1947 -0.0384
  162DOPC   H6R19573   7.826   5.693   5.994 -1.0460  0.8035 -1.3466
  162DOPC   H6S19574   7.727   5.623   5.869  0.8333 -0.9402 -0.5201
  162DOPC   C2719575   7.834   5.471   5.987 -0.2697 -0.4438 -0.3373
  162DOPC   H7R19576   7.769   5.383   5.966 -1.7454  0.6521 -0.5774
  162DOPC   H7S19577   7.873   5.453   6.089  0.4582 -1.1518 -0.7341
  162DOPC   C2819578   7.964   5.462   5.910 -0.0810  0.1322  0.5931
  162DOPC   H8R19579   8.026   5.381   5.956  0.8442  1.8108  2.4774
  162DOPC   H8S19580   8.029   5.552   5.901 -0.9912  0.7474  0.0034
  162DOPC   C2919581   7.917   5.444   5.766  0.1602 -0.6169 -0.1841
  162DOPC   H9R19582   7.826   5.381   5.766 -0.7655  0.6702 -0.0112
  162DOPC  C21019583   7.974   5.493   5.656 -0.2566  0.6329  0.4072
  162DOPC  H10R19584   7.945   5.457   5.556  2.6787  2.7062 -1.3310
  162DOPC  C21119585   8.100   5.574   5.638 -0.5221 -0.0474 -1.6669
  162DOPC  H11R19586   8.139   5.605   5.737  1.1840 -0.5307 -2.1621
  162DOPC  H11S19587   8.075   5.671   5.590  1.1956  1.7449  0.8427
  162DOPC  C21219588   8.217   5.528   5.554  0.3497  0.7315  0.4294
  162DOPC  H12R19589   8.174   5.499   5.456 -1.7402  0.6791  1.2927
  162DOPC  H12S19590   8.249   5.433   5.602 -1.7750 -0.5586 -0.5711
  162DOPC  C21319591   8.336   5.617   5.535 -0.4412 -0.1364  0.5305
  162DOPC  H13R19592   8.372   5.652   5.634  0.5315  0.0302  0.1266
  162DOPC  H13S19593   8.311   5.707   5.476 -0.1358  1.6513  2.9641
  162DOPC  C21419594   8.448   5.547   5.452 -0.0567 -0.1239  0.0003
  162DOPC  H14R19595   8.404   5.470   5.385 -1.7994  1.0116 -0.2407
  162DOPC  H14S19596   8.508   5.489   5.524  0.7690  0.3189 -0.3213
  162DOPC  C21519597   8.550   5.631   5.373  1.0016  0.3823  0.9253
  162DOPC  H15R19598   8.626   5.651   5.452  1.2509  0.8105  0.5804
  162DOPC  H15S19599   8.518   5.729   5.331 -0.1643 -0.0752  0.6908
  162DOPC  C21619600   8.617   5.560   5.255  0.0860 -0.4326 -0.0377
  162DOPC  H16R19601   8.710   5.618   5.239  0.4539 -1.2278 -0.8593
  162DOPC  H16S19602   8.551   5.567   5.166  0.2822  0.7461 -0.0977
  162DOPC  C21719603   8.663   5.419   5.292  0.1421 -0.0715 -0.2041
  162DOPC  H17R19604   8.578   5.360   5.332  0.9479 -1.0816  0.0717
  162DOPC  H17S19605   8.733   5.421   5.378  0.6156 -1.9188 -0.5130
  162DOPC  C21819606   8.732   5.349   5.177 -1.0739  0.3605 -0.2795
  162DOPC  H18R19607   8.814   5.285   5.215  0.5403  1.0771 -2.3467
  162DOPC  H18S19608   8.778   5.432   5.119 -0.6473 -0.8203 -1.6959
  162DOPC  H18T19609   8.663   5.294   5.110  0.4626 -0.1425 -1.5022
  162DOPC   C3319610   7.234   6.337   6.391 -0.4010 -0.5981 -0.1128
  162DOPC   H3X19611   7.331   6.332   6.336 -1.3548  1.7018 -2.1796
  162DOPC   H3Y19612   7.253   6.413   6.471  0.5608  0.2574 -1.1173
  162DOPC   C3419613   7.129   6.383   6.289  0.3425  0.7368 -0.5396
  162DOPC   H4X19614   7.122   6.300   6.215  0.4685  0.0733  0.1834
  162DOPC   H4Y19615   7.154   6.475   6.231 -2.6944  1.7571 -0.4350
  162DOPC   C3519616   6.986   6.410   6.337  0.4041  0.0098 -0.2574
  162DOPC   H5X19617   6.970   6.497   6.404 -2.1096  0.5733 -1.4800
  162DOPC   H5Y19618   6.944   6.317   6.381  0.5119  0.8434  1.7022
  162DOPC   C3619619   6.903   6.430   6.210  0.5732 -0.4636  0.1555
  162DOPC   H6X19620   6.928   6.524   6.156  0.1860  1.1036  2.5508
  162DOPC   H6Y19621   6.914   6.343   6.143  1.2911  0.7054 -1.3206
  162DOPC   C3719622   6.754   6.440   6.234 -0.4616 -0.2279 -0.3119
  162DOPC   H7X19623   6.731   6.344   6.286  1.4800 -1.2115 -1.1580
  162DOPC   H7Y19624   6.736   6.522   6.307 -1.6201  1.2205 -2.1065
  162DOPC   C3819625   6.662   6.460   6.107  0.3689 -0.2126  0.1155
  162DOPC   H8X19626   6.696   6.555   6.059 -0.5080 -0.0893 -0.2777
  162DOPC   H8Y19627   6.563   6.479   6.154  0.0651  0.3077 -0.6986
  162DOPC   C3919628   6.648   6.346   6.010  0.2674  0.3613 -0.2994
  162DOPC   H9X19629   6.572   6.270   6.034  0.4242 -0.2202 -1.5776
  162DOPC  C31019630   6.697   6.329   5.888  0.6718  0.0744 -0.0779
  162DOPC  H10X19631   6.670   6.233   5.841  1.5802 -0.5670  0.6781
  162DOPC  C31119632   6.789   6.428   5.813  0.4149  0.0868  0.4492
  162DOPC  H11X19633   6.887   6.378   5.798 -1.3021 -3.2120 -0.7434
  162DOPC  H11Y19634   6.805   6.529   5.856 -0.3968  0.3283  0.1871
  162DOPC  C31219635   6.741   6.462   5.670 -0.6852  0.3933  0.6871
  162DOPC  H12X19636   6.817   6.530   5.626 -0.0995  0.9847  2.5247
  162DOPC  H12Y19637   6.648   6.522   5.682  0.1273  2.1051 -1.1041
  162DOPC  C31319638   6.731   6.337   5.584  0.6801  0.1300  0.5492
  162DOPC  H13X19639   6.822   6.313   5.525  0.1410  0.1072 -0.2918
  162DOPC  H13Y19640   6.700   6.239   5.626  1.1737 -0.4256 -0.3493
  162DOPC  C31419641   6.624   6.357   5.474  0.5714  0.1707  0.2564
  162DOPC  H14X19642   6.524   6.360   5.523  0.0790  0.3558 -0.7382
  162DOPC  H14Y19643   6.642   6.460   5.438 -1.3527  0.3804 -0.2105
  162DOPC  C31519644   6.634   6.254   5.362  0.6658  0.4294  0.7134
  162DOPC  H15X19645   6.611   6.157   5.410  0.0657 -0.2589 -0.8995
  162DOPC  H15Y19646   6.738   6.246   5.322  0.9996  0.0957  1.6298
  162DOPC  C31619647   6.541   6.299   5.241 -0.2061  0.3338  0.4550
  162DOPC  H16X19648   6.435   6.309   5.273 -0.3947  0.4521 -0.1952
  162DOPC  H16Y19649   6.586   6.390   5.197  1.1959 -1.0519 -1.1377
  162DOPC  C31719650   6.550   6.199   5.120 -0.3922  0.0238 -0.5798
  162DOPC  H17X19651   6.524   6.239   5.020  0.2983 -0.4969 -0.9752
  162DOPC  H17Y19652   6.657   6.169   5.112 -0.2918 -0.2909  1.4073
  162DOPC  C31819653   6.467   6.071   5.140  0.7178  0.3089 -0.2292
  162DOPC  H18X19654   6.359   6.099   5.139  0.2063 -1.3666  1.8517
  162DOPC  H18Y19655   6.477   6.001   5.055 -3.9804  0.0379 -0.8282
  162DOPC  H18Z19656   6.493   6.018   5.234 -1.2834 -2.6002 -1.1836
  163DOPC     N19657   6.868   2.842   7.341  0.7309 -0.0729  0.4853
  163DOPC   C1219658   6.891   2.726   7.239  0.3568 -0.1279  0.1371
  163DOPC  H12A19659   6.805   2.660   7.238  0.9101 -0.9508 -2.4601
  163DOPC  H12B19660   6.972   2.668   7.282  0.0715 -0.2485  0.5201
  163DOPC   C1319661   6.993   2.919   7.359  0.3585 -0.6665  0.3853
  163DOPC  H13A19662   6.972   3.014   7.406 -0.8969 -0.8026  0.1370
  163DOPC  H13B19663   7.058   2.857   7.418  0.8509 -0.3794  0.1486
  163DOPC  H13C19664   7.031   2.946   7.261 -1.5236 -1.3176 -0.5788
  163DOPC   C1419665   6.814   2.801   7.473  0.1542 -0.2830 -0.3771
  163DOPC  H14A19666   6.878   2.732   7.527 -0.5698 -1.2960 -0.7694
  163DOPC  H14B19667   6.805   2.884   7.542 -0.0916  0.2835 -1.0814
  163DOPC  H14C19668   6.719   2.749   7.475  0.2951 -0.5373  0.3865
  163DOPC   C1519669   6.770   2.939   7.274 -0.2625 -0.6549  0.1648
  163DOPC  H15A19670   6.669   2.908   7.251 -0.0853  0.7697 -2.9001
  163DOPC  H15B19671   6.818   2.974   7.185 -1.0365 -1.6586 -0.6763
  163DOPC  H15C19672   6.761   3.030   7.331  0.8444 -2.2815  3.1453
  163DOPC   C1119673   6.921   2.760   7.092 -0.8009 -0.7932 -0.3229
  163DOPC  H11A19674   6.906   2.665   7.036 -0.0068 -1.3413  0.3756
  163DOPC  H11B19675   6.850   2.836   7.053 -1.2789 -1.0941 -0.0522
  163DOPC     P19676   7.169   2.740   6.999  0.2159  0.1184  0.2086
  163DOPC   O1319677   7.206   2.603   7.062  0.2441  0.1672  0.4255
  163DOPC   O1419678   7.271   2.848   6.966  0.1866 -0.1112 -0.1714
  163DOPC   O1219679   7.059   2.810   7.087  0.3556 -0.4618 -0.3360
  163DOPC   O1119680   7.084   2.710   6.868  0.5790  0.2380 -0.0620
  163DOPC    C119681   7.123   2.620   6.771  0.1777 -0.2202  0.2226
  163DOPC    HA19682   7.120   2.516   6.809  1.0069 -1.0843 -1.9539
  163DOPC    HB19683   7.229   2.641   6.745 -0.2745  1.2680 -0.5552
  163DOPC    C219684   7.030   2.625   6.649 -0.5026 -0.3276  0.7618
  163DOPC    HS19685   7.034   2.524   6.604  1.1754 -0.4338  1.1160
  163DOPC   O2119686   7.075   2.721   6.557 -0.1941 -0.0174 -0.0332
  163DOPC   C2119687   7.189   2.693   6.490 -0.2766  0.4082  0.2628
  163DOPC   O2219688   7.251   2.588   6.499  0.8927 -0.3039 -0.1252
  163DOPC   C2219689   7.232   2.805   6.407  0.2748  0.2551 -0.4419
  163DOPC   H2R19690   7.333   2.842   6.435  1.5278 -2.3963 -1.2270
  163DOPC   H2S19691   7.169   2.892   6.436 -1.3702 -0.3322 -2.0541
  163DOPC    C319692   6.884   2.662   6.687  0.5730 -0.4782  0.0059
  163DOPC    HX19693   6.869   2.761   6.735 -2.1667 -0.3823 -0.8511
  163DOPC    HY19694   6.865   2.587   6.766  0.1076 -0.5296 -0.1498
  163DOPC   O3119695   6.798   2.620   6.585  0.3269 -0.3791 -0.3215
  163DOPC   C3119696   6.762   2.721   6.508  0.5114 -0.5362 -0.2391
  163DOPC   O3219697   6.791   2.842   6.523  0.2049 -0.0301  0.5546
  163DOPC   C3219698   6.691   2.660   6.393  0.5515 -0.2044  0.0978
  163DOPC   H2X19699   6.756   2.583   6.345  2.4100  1.8008 -0.7464
  163DOPC   H2Y19700   6.599   2.613   6.436  1.5339 -1.3272  1.0429
  163DOPC   C2319701   7.207   2.781   6.260  0.1648 -0.0579 -0.2215
  163DOPC   H3R19702   7.102   2.806   6.233 -0.0787  0.7833  1.3639
  163DOPC   H3S19703   7.232   2.677   6.232  1.2000  0.3696 -0.9256
  163DOPC   C2419704   7.293   2.879   6.171 -0.1868 -0.5140  0.0496
  163DOPC   H4R19705   7.399   2.883   6.205  0.0764  0.3145 -0.8165
  163DOPC   H4S19706   7.254   2.981   6.194 -2.2119 -1.1053 -0.5320
  163DOPC   C2519707   7.290   2.850   6.024 -0.3354 -0.2066 -0.0776
  163DOPC   H5R19708   7.339   2.753   6.000  0.0107  0.3693 -1.8347
  163DOPC   H5S19709   7.333   2.933   5.964  0.7485 -0.5217  0.2444
  163DOPC   C2619710   7.148   2.836   5.959 -0.1937  0.2213 -0.1823
  163DOPC   H6R19711   7.104   2.740   5.995  0.5064  0.9142  2.7155
  163DOPC   H6S19712   7.166   2.831   5.849  3.1794  0.1321  0.2731
  163DOPC   C2719713   7.056   2.949   5.998 -0.2676 -0.7830 -0.3407
  163DOPC   H7R19714   7.088   3.054   5.980  0.7808 -0.9846  0.3009
  163DOPC   H7S19715   7.052   2.945   6.109 -1.4240 -1.7773 -0.3989
  163DOPC   C2819716   6.913   2.925   5.945 -0.0623  0.9159  0.3936
  163DOPC   H8R19717   6.839   2.945   6.026 -1.2031 -2.3936  0.2853
  163DOPC   H8S19718   6.907   2.816   5.927  2.2731  0.7235  0.5363
  163DOPC   C2919719   6.871   2.995   5.815 -0.6205 -0.1127 -0.0926
  163DOPC   H9R19720   6.952   2.992   5.741 -0.1336  1.8553  0.2857
  163DOPC  C21019721   6.762   3.054   5.783  0.0214  0.7779 -0.0595
  163DOPC  H10R19722   6.749   3.104   5.687  0.1351  2.7012  0.8797
  163DOPC  C21119723   6.638   3.057   5.861 -0.3656  0.2730 -0.2518
  163DOPC  H11R19724   6.645   3.136   5.939 -1.7672  0.8228 -0.6641
  163DOPC  H11S19725   6.619   2.955   5.902 -1.6676  0.4454 -0.4035
  163DOPC  C21219726   6.506   3.093   5.781 -0.4379 -0.1129 -0.1940
  163DOPC  H12R19727   6.509   3.192   5.731 -2.7519 -0.3621 -0.9488
  163DOPC  H12S19728   6.410   3.091   5.836 -0.8366 -0.2008 -0.8824
  163DOPC  C21319729   6.473   2.996   5.665 -0.0493  0.5901 -0.5535
  163DOPC  H13R19730   6.467   2.893   5.708  0.4959  0.8868  0.2475
  163DOPC  H13S19731   6.557   3.002   5.593 -0.2092  4.0988 -0.5960
  163DOPC  C21419732   6.344   3.022   5.589 -0.4447  0.4715  0.3722
  163DOPC  H14R19733   6.373   3.105   5.522  1.2790  0.2687  0.8142
  163DOPC  H14S19734   6.260   3.045   5.659 -0.9732 -0.4503  0.0722
  163DOPC  C21519735   6.295   2.909   5.500  0.3015  0.2817  0.2358
  163DOPC  H15R19736   6.192   2.882   5.531  0.0710  0.4018 -0.4032
  163DOPC  H15S19737   6.369   2.827   5.514  0.9981  1.1415  1.8286
  163DOPC  C21619738   6.287   2.939   5.350  0.6168 -0.2560  0.2693
  163DOPC  H16R19739   6.388   2.958   5.308  1.3765 -1.3977  1.4919
  163DOPC  H16S19740   6.226   3.032   5.338 -0.7647 -1.1840 -0.1250
  163DOPC  C21719741   6.225   2.824   5.277  0.3275  0.7904 -0.4312
  163DOPC  H17R19742   6.144   2.777   5.336  2.0529 -0.6982  0.8734
  163DOPC  H17S19743   6.308   2.750   5.276  0.0340  0.4238  0.7332
  163DOPC  C21819744   6.186   2.844   5.133  0.3849 -0.3293  0.5223
  163DOPC  H18R19745   6.153   2.746   5.095  0.8604 -0.3358  0.1148
  163DOPC  H18S19746   6.259   2.879   5.057 -0.0593 -0.1268  0.1901
  163DOPC  H18T19747   6.103   2.916   5.113  0.6314 -0.2956 -0.4198
  163DOPC   C3319748   6.652   2.768   6.300 -0.1437  0.2006  0.2944
  163DOPC   H3X19749   6.739   2.801   6.239 -1.2867  1.5344 -0.6965
  163DOPC   H3Y19750   6.614   2.857   6.355 -0.7927  0.7992 -1.0715
  163DOPC   C3419751   6.537   2.739   6.205  0.0445  0.9003  0.2414
  163DOPC   H4X19752   6.531   2.823   6.132 -1.7711  0.8955  0.3371
  163DOPC   H4Y19753   6.444   2.744   6.266  1.0366  0.9736  1.8019
  163DOPC   C3519754   6.549   2.611   6.121  0.3737 -0.2035  0.2977
  163DOPC   H5X19755   6.460   2.598   6.055  0.3057 -1.1012  0.5463
  163DOPC   H5Y19756   6.558   2.520   6.185  1.4616  0.6853  1.4675
  163DOPC   C3619757   6.678   2.625   6.037  0.8928  0.2694  0.1427
  163DOPC   H6X19758   6.672   2.707   5.962 -0.5036  0.2505  0.2052
  163DOPC   H6Y19759   6.771   2.632   6.097  0.7996 -1.8065  0.5996
  163DOPC   C3719760   6.678   2.501   5.943  0.3415  0.0987 -0.1334
  163DOPC   H7X19761   6.676   2.404   5.997  1.1759  0.4810  0.6030
  163DOPC   H7Y19762   6.581   2.502   5.887  0.1461 -0.7826  0.1766
  163DOPC   C3819763   6.797   2.512   5.850  0.6934  0.4076 -0.2184
  163DOPC   H8X19764   6.887   2.492   5.912 -1.0500  1.4116  2.8209
  163DOPC   H8Y19765   6.800   2.615   5.809 -2.1331  0.2638 -0.9877
  163DOPC   C3919766   6.797   2.425   5.726  0.2810 -0.0173  0.1580
  163DOPC   H9X19767   6.769   2.319   5.733 -1.3368  0.1477 -2.4984
  163DOPC  C31019768   6.827   2.467   5.600 -0.0770 -0.2234 -0.1025
  163DOPC  H10X19769   6.837   2.394   5.518 -0.7322  1.2426 -1.5521
  163DOPC  C31119770   6.881   2.605   5.557  0.2809 -0.8504 -0.3883
  163DOPC  H11X19771   6.834   2.681   5.623  0.2227 -1.4060  0.2294
  163DOPC  H11Y19772   6.837   2.633   5.459  0.5828 -0.1541 -0.3293
  163DOPC  C31219773   7.038   2.618   5.571  0.2451  0.0377 -0.8315
  163DOPC  H12X19774   7.067   2.629   5.677 -0.9836  0.4695 -0.5333
  163DOPC  H12Y19775   7.066   2.717   5.528 -0.7226  0.5269 -0.3542
  163DOPC  C31319776   7.115   2.516   5.508  0.3635  0.1538  0.3714
  163DOPC  H13X19777   7.104   2.414   5.551 -1.1923 -1.1378 -2.7692
  163DOPC  H13Y19778   7.073   2.507   5.405  0.4463  1.4001  0.2075
  163DOPC  C31419779   7.260   2.564   5.516 -0.5252  0.1157  0.5972
  163DOPC  H14X19780   7.283   2.657   5.460  2.1164 -1.1605 -0.6268
  163DOPC  H14Y19781   7.303   2.581   5.617  3.4793  0.9401 -1.0714
  163DOPC  C31519782   7.360   2.461   5.453  1.1276 -0.0125  0.2326
  163DOPC  H15X19783   7.334   2.455   5.345  2.4671  2.3798 -0.2870
  163DOPC  H15Y19784   7.353   2.358   5.493  2.6501 -1.0878 -2.0599
  163DOPC  C31619785   7.506   2.503   5.460 -0.8348 -0.0229  0.2686
  163DOPC  H16X19786   7.509   2.607   5.419 -0.3619 -0.9270 -2.1830
  163DOPC  H16Y19787   7.546   2.506   5.563  0.6334 -0.6524 -0.2478
  163DOPC  C31719788   7.585   2.405   5.384 -0.9244  0.7535 -0.0636
  163DOPC  H17X19789   7.692   2.422   5.405 -0.2667 -0.2313 -2.3593
  163DOPC  H17Y19790   7.555   2.300   5.407  1.7654 -0.3809 -1.3091
  163DOPC  C31819791   7.583   2.401   5.229  0.1604  0.2627  0.2762
  163DOPC  H18X19792   7.622   2.302   5.197 -0.8271 -0.2760  0.7265
  163DOPC  H18Y19793   7.483   2.398   5.181  1.1076  0.4524 -1.8676
  163DOPC  H18Z19794   7.634   2.494   5.194  1.3250  0.0942  1.4210
  164DOPC     N19795   2.047   7.441   7.096  0.6668  0.1560  0.2884
  164DOPC   C1219796   2.130   7.479   6.984 -0.5208 -0.3851  0.3379
  164DOPC  H12A19797   2.176   7.394   6.937  1.6281  1.2285 -0.6826
  164DOPC  H12B19798   2.215   7.531   7.026  0.1244 -1.2868  0.1665
  164DOPC   C1319799   1.997   7.572   7.155  0.1491  0.4055 -0.6312
  164DOPC  H13A19800   1.968   7.648   7.085 -1.1645  0.2297 -0.2993
  164DOPC  H13B19801   1.920   7.551   7.228 -0.2486  2.5968 -0.3411
  164DOPC  H13C19802   2.080   7.614   7.210 -0.1122 -1.1942  1.1121
  164DOPC   C1419803   2.125   7.366   7.199 -0.6656  0.4800 -0.8461
  164DOPC  H14A19804   2.190   7.435   7.251 -0.3203 -0.1357 -0.4365
  164DOPC  H14B19805   2.067   7.326   7.281  0.9347 -0.0647  0.0782
  164DOPC  H14C19806   2.187   7.289   7.155  0.8051  2.2113 -1.9527
  164DOPC   C1519807   1.927   7.361   7.049  0.1968 -0.0912 -0.5180
  164DOPC  H15A19808   1.941   7.272   6.988 -1.0685 -0.8297  0.2322
  164DOPC  H15B19809   1.858   7.425   6.996  0.9347  0.4827 -0.8021
  164DOPC  H15C19810   1.877   7.314   7.132  1.5358 -2.1917 -0.8193
  164DOPC   C1119811   2.075   7.562   6.872 -0.8543 -0.0607 -0.2579
  164DOPC  H11A19812   2.126   7.553   6.773 -3.0075 -0.1842 -1.4198
  164DOPC  H11B19813   1.970   7.530   6.857 -1.2574  0.6314  0.9890
  164DOPC     P19814   2.200   7.786   6.910  0.2901 -0.1375 -0.1920
  164DOPC   O1319815   2.323   7.712   6.895  0.0391 -0.2076 -0.1508
  164DOPC   O1419816   2.193   7.869   7.037  0.3717 -0.5736  0.4880
  164DOPC   O1219817   2.076   7.694   6.911  0.3132  0.2903 -0.2562
  164DOPC   O1119818   2.162   7.878   6.784 -0.1390 -0.0859  0.2325
  164DOPC    C119819   2.129   7.820   6.659  0.4216  0.1149  0.4001
  164DOPC    HA19820   2.044   7.751   6.677 -1.2529  2.2899  1.3181
  164DOPC    HB19821   2.211   7.762   6.613 -0.5833 -2.1003  1.2958
  164DOPC    C219822   2.074   7.930   6.562  0.0176  0.5514  0.8533
  164DOPC    HS19823   2.038   7.877   6.471  2.7773  1.8247 -1.1364
  164DOPC   O2119824   2.172   8.022   6.514  0.9271  0.5044 -0.4983
  164DOPC   C2119825   2.230   8.002   6.398  0.0853  0.2054 -0.5150
  164DOPC   O2219826   2.212   7.902   6.333 -0.2470  0.0840  0.4326
  164DOPC   C2219827   2.293   8.127   6.358 -0.8617  0.2745 -0.3149
  164DOPC   H2R19828   2.347   8.104   6.263  4.8534 -1.1620  2.7831
  164DOPC   H2S19829   2.367   8.157   6.435 -0.4322 -0.9049 -0.2401
  164DOPC    C319830   1.952   8.011   6.621 -0.0781 -0.4753 -0.4660
  164DOPC    HX19831   1.995   8.077   6.699  1.1624 -1.0031 -0.6911
  164DOPC    HY19832   1.899   7.937   6.685 -0.3924  1.4985  1.7014
  164DOPC   O3119833   1.880   8.080   6.520  0.0577  0.1863 -0.1222
  164DOPC   C3119834   1.774   8.026   6.461 -0.6230  0.3390 -0.3774
  164DOPC   O3219835   1.736   7.911   6.478  0.3160 -0.5603  0.0362
  164DOPC   C3219836   1.716   8.117   6.349  0.2819 -0.0470 -0.3514
  164DOPC   H2X19837   1.618   8.074   6.317 -0.3052  0.9099  0.1095
  164DOPC   H2Y19838   1.701   8.220   6.388  0.3857  0.4623 -1.6123
  164DOPC   C2319839   2.196   8.244   6.317 -0.0859  0.2841 -0.4442
  164DOPC   H3R19840   2.098   8.246   6.369 -0.1740 -1.1842 -0.5225
  164DOPC   H3S19841   2.176   8.238   6.207 -0.6561  0.6690 -0.3647
  164DOPC   C2419842   2.243   8.386   6.343  0.5018  0.4049  0.3457
  164DOPC   H4R19843   2.247   8.408   6.452 -2.0127 -1.6264  0.9528
  164DOPC   H4S19844   2.164   8.450   6.298  0.4380  1.5845  2.0376
  164DOPC   C2519845   2.378   8.420   6.281 -0.1970 -0.0651 -0.1716
  164DOPC   H5R19846   2.377   8.395   6.173 -0.9464  0.1459 -0.2235
  164DOPC   H5S19847   2.458   8.367   6.336  1.0116  2.3553  0.5713
  164DOPC   C2619848   2.416   8.571   6.274 -0.6675  0.1320  0.7733
  164DOPC   H6R19849   2.420   8.622   6.372 -0.1603  3.1093 -0.6852
  164DOPC   H6S19850   2.341   8.616   6.205  0.1487  1.5751  0.7976
  164DOPC   C2719851   2.552   8.593   6.201  0.2630 -0.0548  0.7184
  164DOPC   H7R19852   2.555   8.535   6.107  0.6543 -2.4167  2.1172
  164DOPC   H7S19853   2.632   8.551   6.266  0.3521 -0.3019  0.4519
  164DOPC   C2819854   2.589   8.739   6.174  0.6694  0.1065 -0.1244
  164DOPC   H8R19855   2.549   8.796   6.260 -0.6038  0.4594 -0.9140
  164DOPC   H8S19856   2.527   8.780   6.091  0.9206 -1.4271 -1.1039
  164DOPC   C2919857   2.736   8.765   6.150 -0.0278 -0.1313 -0.5410
  164DOPC   H9R19858   2.803   8.714   6.221 -1.5139 -0.3813  0.7256
  164DOPC  C21019859   2.795   8.827   6.046 -0.4705 -0.1454 -0.2035
  164DOPC  H10R19860   2.905   8.828   6.041 -0.4113  1.5493  0.7464
  164DOPC  C21119861   2.731   8.880   5.925 -0.2311  0.4065  0.5814
  164DOPC  H11R19862   2.780   8.972   5.887 -0.3679 -1.3672 -4.7031
  164DOPC  H11S19863   2.628   8.916   5.946 -0.5930  0.8783 -1.6600
  164DOPC  C21219864   2.729   8.783   5.804  0.0612 -0.0532 -0.1981
  164DOPC  H12R19865   2.732   8.676   5.835 -2.3263 -0.4855 -1.1590
  164DOPC  H12S19866   2.817   8.797   5.739 -0.6572  4.3232 -0.5192
  164DOPC  C21319867   2.604   8.802   5.726 -0.1994  0.1502  0.6096
  164DOPC  H13R19868   2.608   8.907   5.689 -1.2479 -0.0331 -0.0752
  164DOPC  H13S19869   2.510   8.774   5.779  0.1285 -1.5394  0.3472
  164DOPC  C21419870   2.620   8.727   5.594 -0.2678 -0.1452  0.4759
  164DOPC  H14R19871   2.657   8.626   5.620  0.7671 -0.4824 -1.9544
  164DOPC  H14S19872   2.698   8.776   5.531  0.9008 -1.3066  0.9774
  164DOPC  C21519873   2.484   8.713   5.523  0.7706  0.1721 -0.0070
  164DOPC  H15R19874   2.404   8.667   5.584 -1.7480  2.5854 -1.2704
  164DOPC  H15S19875   2.492   8.631   5.448  2.1411  0.5985 -0.3597
  164DOPC  C21619876   2.425   8.842   5.464  0.2664 -0.1966  0.4737
  164DOPC  H16R19877   2.520   8.885   5.426 -0.4491  0.1916 -0.9691
  164DOPC  H16S19878   2.387   8.903   5.549 -1.7679 -0.0914 -0.4308
  164DOPC  C21719879   2.329   8.849   5.346 -0.0771  0.5408 -0.6217
  164DOPC  H17R19880   2.227   8.821   5.380 -0.5571  2.7246 -0.0821
  164DOPC  H17S19881   2.357   8.768   5.276  1.9647 -2.3977  3.2156
  164DOPC  C21819882   2.324   8.992   5.279  0.7646  0.1293  0.0167
  164DOPC  H18R19883   2.229   8.997   5.222  0.6107 -5.3500 -0.7198
  164DOPC  H18S19884   2.419   9.014   5.227  1.2648 -1.8571  0.0056
  164DOPC  H18T19885   2.311   9.066   5.361  3.1742 -0.3185  0.8959
  164DOPC   C3319886   1.800   8.119   6.217 -0.3567  0.1599 -0.3156
  164DOPC   H3X19887   1.819   8.014   6.188 -1.1860 -0.0759 -0.0374
  164DOPC   H3Y19888   1.904   8.153   6.237  0.0967 -1.5391  0.3264
  164DOPC   C3419889   1.742   8.192   6.105 -0.2551  0.0042  0.0809
  164DOPC   H4X19890   1.765   8.301   6.111  0.0292 -0.0257 -0.4441
  164DOPC   H4Y19891   1.633   8.180   6.123  0.0331  0.9035  2.9488
  164DOPC   C3519892   1.799   8.157   5.967  0.0021  0.1669  0.0950
  164DOPC   H5X19893   1.793   8.047   5.957 -1.2274  0.2934 -0.8346
  164DOPC   H5Y19894   1.909   8.171   5.967  0.1148 -0.7055  0.4063
  164DOPC   C3619895   1.728   8.230   5.847 -0.5037 -0.0804  0.7073
  164DOPC   H6X19896   1.618   8.232   5.861 -0.6452 -1.9829  0.0424
  164DOPC   H6Y19897   1.751   8.339   5.853 -1.2788  0.2285 -1.2795
  164DOPC   C3719898   1.772   8.161   5.714  0.4155  0.3780 -0.1395
  164DOPC   H7X19899   1.882   8.158   5.696  0.3466 -2.3055 -0.6058
  164DOPC   H7Y19900   1.748   8.052   5.712 -3.5327  1.0743  1.2424
  164DOPC   C3819901   1.696   8.207   5.593 -0.3111  0.1446 -0.2509
  164DOPC   H8X19902   1.732   8.143   5.509  0.4974 -2.1348  1.6998
  164DOPC   H8Y19903   1.710   8.315   5.574 -0.1809  0.1469 -0.1393
  164DOPC   C3919904   1.550   8.174   5.597 -0.1324  0.5003 -0.3413
  164DOPC   H9X19905   1.499   8.209   5.688  0.5755 -0.6543  0.5232
  164DOPC  C31019906   1.469   8.104   5.517  0.6244  0.3951  0.3434
  164DOPC  H10X19907   1.363   8.092   5.546  0.5388  0.8707  0.2352
  164DOPC  C31119908   1.499   8.036   5.384  0.4096  0.2002 -0.8376
  164DOPC  H11X19909   1.439   7.944   5.375 -1.8010  1.5931 -0.9741
  164DOPC  H11Y19910   1.606   8.012   5.366  0.4346 -0.4045  0.0601
  164DOPC  C31219911   1.465   8.122   5.261 -0.5240 -0.0568  0.3228
  164DOPC  H12X19912   1.363   8.165   5.274 -1.2717 -1.3564 -0.9237
  164DOPC  H12Y19913   1.468   8.048   5.178  2.0212  0.0268  0.2764
  164DOPC  C31319914   1.577   8.237   5.248  0.1178 -0.9386  0.3890
  164DOPC  H13X19915   1.569   8.284   5.349  0.4004  0.2777 -0.1369
  164DOPC  H13Y19916   1.680   8.199   5.230  0.3131  0.1897 -1.0835
  164DOPC  C31419917   1.563   8.331   5.133 -0.4070  0.6376  0.8761
  164DOPC  H14X19918   1.586   8.274   5.041 -2.5167 -0.4100  0.9143
  164DOPC  H14Y19919   1.633   8.416   5.145  2.0321 -0.6610 -2.6800
  164DOPC  C31519920   1.421   8.387   5.117  0.8749  0.1340 -0.6706
  164DOPC  H15X19921   1.383   8.436   5.208  1.4447 -0.6761  0.0186
  164DOPC  H15Y19922   1.349   8.308   5.087  0.1460  1.2967 -2.1715
  164DOPC  C31619923   1.400   8.488   5.004 -0.3806  0.3778  0.7151
  164DOPC  H16X19924   1.467   8.576   5.017 -0.6745  1.1902 -2.4531
  164DOPC  H16Y19925   1.427   8.448   4.904  1.3125  2.7214  0.1458
  164DOPC  C31719926   1.258   8.550   4.994 -0.5656  0.1268 -0.3888
  164DOPC  H17X19927   1.239   8.593   5.095 -0.7762 -1.8653  0.4572
  164DOPC  H17Y19928   1.253   8.622   4.910 -3.4086 -0.4258 -0.7851
  164DOPC  C31819929   1.154   8.453   4.966  0.3336 -0.9352 -0.7187
  164DOPC  H18X19930   1.172   8.376   4.888  2.7384 -0.9544 -0.2289
  164DOPC  H18Y19931   1.139   8.393   5.059  1.0209 -0.0095  0.0203
  164DOPC  H18Z19932   1.056   8.500   4.943 -1.3832 -3.1723  1.5064
  165DOPC     N19933   5.734   1.704   6.866  0.7577  0.2695 -0.0967
  165DOPC   C1219934   5.794   1.574   6.915  0.1538 -1.3143  0.0514
  165DOPC  H12A19935   5.719   1.527   6.977 -1.4549  0.2353 -0.6376
  165DOPC  H12B19936   5.871   1.599   6.987  0.9800  1.4765 -1.6388
  165DOPC   C1319937   5.813   1.764   6.748 -0.3204  0.3243 -0.0127
  165DOPC  H13A19938   5.894   1.827   6.781 -1.1415  0.4293  1.9693
  165DOPC  H13B19939   5.861   1.686   6.692  2.1935  1.2069  0.7874
  165DOPC  H13C19940   5.744   1.817   6.683 -2.2721 -0.5367  1.2369
  165DOPC   C1419941   5.728   1.805   6.982  0.4999  0.6303 -0.6101
  165DOPC  H14A19942   5.662   1.887   6.960  0.7788  1.0740  0.1741
  165DOPC  H14B19943   5.686   1.755   7.068  0.5208 -1.9923 -2.0233
  165DOPC  H14C19944   5.827   1.844   7.001  1.6241 -1.6757 -1.3208
  165DOPC   C1519945   5.601   1.676   6.819 -0.5704  0.2435 -0.2313
  165DOPC  H15A19946   5.608   1.586   6.760 -0.8493 -1.5779  2.3481
  165DOPC  H15B19947   5.559   1.759   6.764  2.3016  0.9491 -1.5030
  165DOPC  H15C19948   5.535   1.658   6.903  0.6317  1.4149  1.0047
  165DOPC   C1119949   5.839   1.468   6.813 -0.4021 -0.1566  0.4193
  165DOPC  H11A19950   5.903   1.513   6.734 -0.8831 -1.0426 -0.4941
  165DOPC  H11B19951   5.886   1.386   6.873 -2.4378 -1.3669  0.4369
  165DOPC     P19952   5.630   1.302   6.798  0.1444 -0.1366 -0.0550
  165DOPC   O1319953   5.486   1.334   6.780 -0.2307 -0.1204 -0.5651
  165DOPC   O1419954   5.673   1.274   6.938 -0.1354 -0.1694  0.6297
  165DOPC   O1219955   5.724   1.417   6.748 -0.6693  0.1698  0.3365
  165DOPC   O1119956   5.651   1.167   6.711  0.0873 -0.1277  0.2209
  165DOPC    C119957   5.768   1.149   6.636 -0.3864  0.5050  0.7576
  165DOPC    HA19958   5.800   1.043   6.652  0.2425  0.5925  0.1177
  165DOPC    HB19959   5.852   1.211   6.674  0.4418  0.3834 -0.8001
  165DOPC    C219960   5.757   1.187   6.482 -0.4102  0.2552  0.3031
  165DOPC    HS19961   5.848   1.154   6.427  0.6192  1.5610  1.1639
  165DOPC   O2119962   5.733   1.326   6.467 -0.2275  0.7940 -0.4529
  165DOPC   C2119963   5.852   1.391   6.450 -0.4572 -0.8602  0.1096
  165DOPC   O2219964   5.965   1.348   6.470  0.1548  0.3301 -0.0268
  165DOPC   C2219965   5.810   1.543   6.447  0.1098  0.0784  0.6141
  165DOPC   H2R19966   5.898   1.610   6.436 -0.5244  0.6403 -1.4603
  165DOPC   H2S19967   5.759   1.564   6.543  0.1544 -1.3479  0.9770
  165DOPC    C319968   5.643   1.110   6.415  0.0287 -0.8857 -0.4462
  165DOPC    HX19969   5.548   1.145   6.461 -0.6590 -1.8098 -1.1114
  165DOPC    HY19970   5.662   1.003   6.437 -1.6980 -1.4777 -1.6526
  165DOPC   O3119971   5.633   1.127   6.271 -0.1442 -0.0712  0.7733
  165DOPC   C3119972   5.709   1.049   6.194  0.3033 -0.4030  0.1426
  165DOPC   O3219973   5.767   0.948   6.234  0.0762 -0.7820 -0.1405
  165DOPC   C3219974   5.716   1.106   6.051  0.0610 -0.0059 -0.0820
  165DOPC   H2X19975   5.617   1.148   6.021  0.0982  0.1144 -0.0391
  165DOPC   H2Y19976   5.793   1.186   6.058  1.2968 -1.3077  2.3574
  165DOPC   C2319977   5.709   1.545   6.322 -0.4252 -0.3194  0.4939
  165DOPC   H3R19978   5.667   1.646   6.299 -0.3596 -0.9966 -3.0534
  165DOPC   H3S19979   5.624   1.473   6.322  0.5817 -1.5822 -1.4344
  165DOPC   C2419980   5.785   1.525   6.184 -0.3419  0.0672  0.3516
  165DOPC   H4R19981   5.863   1.447   6.190  0.6124  0.7543 -1.9477
  165DOPC   H4S19982   5.831   1.624   6.163 -2.0527  1.1308  1.3762
  165DOPC   C2519983   5.692   1.494   6.073  0.3157  0.6079  0.2141
  165DOPC   H5R19984   5.633   1.587   6.067 -0.7695  0.0424  1.6430
  165DOPC   H5S19985   5.627   1.408   6.103  2.2797 -1.3156 -0.7397
  165DOPC   C2619986   5.773   1.457   5.949  0.0926 -0.1390 -0.8187
  165DOPC   H6R19987   5.707   1.394   5.886 -0.8552  0.4120 -0.4113
  165DOPC   H6S19988   5.862   1.397   5.976 -0.8199 -1.2077 -0.1261
  165DOPC   C2719989   5.830   1.574   5.865  0.4421  0.3815 -0.1389
  165DOPC   H7R19990   5.908   1.631   5.921 -0.8718  1.7196  0.3979
  165DOPC   H7S19991   5.748   1.639   5.829 -2.2350 -2.7752 -0.1526
  165DOPC   C2819992   5.926   1.529   5.745 -0.5836  0.9752 -0.3324
  165DOPC   H8R19993   6.007   1.475   5.797 -0.4066  1.3165 -0.2498
  165DOPC   H8S19994   5.957   1.625   5.698 -0.0126 -0.3901 -2.8472
  165DOPC   C2919995   5.870   1.443   5.639 -0.3356 -0.0022  0.2039
  165DOPC   H9R19996   5.762   1.461   5.623 -0.1180  1.4148  0.2267
  165DOPC  C21019997   5.935   1.346   5.571 -0.4577  0.1684  0.4739
  165DOPC  H10R19998   5.880   1.282   5.500  2.4920  0.7450 -2.6010
  165DOPC  C21119999   6.083   1.312   5.578  0.2105 -0.2250  0.2740
  165DOPC  H11R20000   6.109   1.205   5.559 -0.1393 -0.2622 -0.0100
  165DOPC  H11S20001   6.132   1.346   5.671  0.8063 -0.2452 -0.0307
  165DOPC  C21220002   6.155   1.390   5.463 -0.6475  0.1119  0.5844
  165DOPC  H12R20003   6.111   1.377   5.362 -0.0071 -2.2379  0.5597
  165DOPC  H12S20004   6.253   1.344   5.439 -1.5629 -0.8522 -1.5280
  165DOPC  C21320005   6.186   1.536   5.483 -0.3513  0.5236  0.5673
  165DOPC  H13R20006   6.227   1.536   5.586 -0.0392  1.9432  0.4657
  165DOPC  H13S20007   6.096   1.602   5.485 -0.3609  0.4911  1.9309
  165DOPC  C21420008   6.301   1.601   5.398 -0.4206 -0.0970 -0.5977
  165DOPC  H14R20009   6.270   1.624   5.294  1.5983  0.9939 -1.0020
  165DOPC  H14S20010   6.389   1.533   5.407 -0.3338  0.0702 -0.1429
  165DOPC  C21520011   6.361   1.735   5.448  0.5795 -0.4447  0.4781
  165DOPC  H15R20012   6.379   1.730   5.558 -1.7859 -0.0135  0.9372
  165DOPC  H15S20013   6.272   1.801   5.436 -0.7772 -2.4954 -1.6732
  165DOPC  C21620014   6.466   1.791   5.353  0.5182 -0.0475  0.4261
  165DOPC  H16R20015   6.405   1.813   5.263 -2.1268 -2.0213  1.6102
  165DOPC  H16S20016   6.548   1.725   5.319  0.3823  0.3357 -0.6739
  165DOPC  C21720017   6.534   1.913   5.411 -0.2100 -0.1756 -0.6023
  165DOPC  H17R20018   6.582   1.871   5.502 -1.9474 -2.4671 -0.6642
  165DOPC  H17S20019   6.455   1.987   5.437 -0.1101 -0.4240  0.4658
  165DOPC  C21820020   6.630   1.985   5.315 -0.1267  0.8274 -0.1632
  165DOPC  H18R20021   6.696   1.917   5.257 -2.0047 -0.0982 -1.3086
  165DOPC  H18S20022   6.682   2.070   5.365  0.6036  0.4425 -0.2600
  165DOPC  H18T20023   6.567   2.035   5.238  0.3591  1.2626 -0.2846
  165DOPC   C3320024   5.764   1.005   5.945 -0.3280 -0.3150  0.0892
  165DOPC   H3X20025   5.699   0.915   5.945 -0.0063 -0.5632 -1.0027
  165DOPC   H3Y20026   5.866   0.978   5.979  0.2141 -0.7154 -1.7531
  165DOPC   C3420027   5.763   1.050   5.795  0.3221  0.4936  0.7174
  165DOPC   H4X20028   5.811   1.149   5.779 -1.0375  0.8177 -2.0822
  165DOPC   H4Y20029   5.657   1.065   5.767  0.3138 -1.0914 -0.1959
  165DOPC   C3520030   5.837   0.961   5.691 -0.3957  0.0581 -0.2724
  165DOPC   H5X20031   5.826   0.997   5.586  0.7780  0.5428 -0.2475
  165DOPC   H5Y20032   5.778   0.868   5.679  0.0356 -0.2334 -0.1463
  165DOPC   C3620033   5.981   0.928   5.716 -0.5428  0.7716 -0.2222
  165DOPC   H6X20034   6.030   1.025   5.698  1.0669  0.0268 -0.0658
  165DOPC   H6Y20035   5.996   0.884   5.818 -1.3026 -3.1326 -1.6099
  165DOPC   C3720036   6.051   0.827   5.622 -0.6761  0.1601 -0.2535
  165DOPC   H7X20037   5.988   0.736   5.614  0.2768 -0.4819 -0.7085
  165DOPC   H7Y20038   6.142   0.788   5.672 -2.1501 -2.0924  0.8328
  165DOPC   C3820039   6.078   0.874   5.482  0.5818 -0.9555  0.1389
  165DOPC   H8X20040   6.135   0.967   5.504 -1.1420 -0.3550  2.4733
  165DOPC   H8Y20041   5.981   0.883   5.429  1.1968 -0.4816 -0.9217
  165DOPC   C3920042   6.151   0.786   5.388 -0.1468 -0.6264  0.5868
  165DOPC   H9X20043   6.087   0.727   5.321  1.1257  0.2122 -1.4705
  165DOPC  C31020044   6.285   0.780   5.387  0.5580 -0.0724  0.2077
  165DOPC  H10X20045   6.337   0.731   5.304  2.0241  1.0309  0.4241
  165DOPC  C31120046   6.390   0.850   5.473 -0.0473 -0.5225  0.3395
  165DOPC  H11X20047   6.441   0.771   5.532 -1.8238 -0.7433  1.6445
  165DOPC  H11Y20048   6.345   0.921   5.546  1.3444  2.2888 -1.3596
  165DOPC  C31220049   6.507   0.925   5.404 -0.1591  0.8314 -0.1255
  165DOPC  H12X20050   6.560   0.854   5.338 -1.3427  2.0330 -2.4775
  165DOPC  H12Y20051   6.574   0.947   5.490  2.7658 -1.0438 -1.7736
  165DOPC  C31320052   6.460   1.040   5.321  0.5693  0.1698 -0.5559
  165DOPC  H13X20053   6.385   1.006   5.245 -0.6220  2.4151 -0.4798
  165DOPC  H13Y20054   6.409   1.110   5.390 -0.0876 -2.7305  2.0899
  165DOPC  C31420055   6.579   1.111   5.262 -0.2377 -0.0558  0.3291
  165DOPC  H14X20056   6.654   1.124   5.343 -1.2818  1.4378  1.0984
  165DOPC  H14Y20057   6.620   1.048   5.180 -0.9543  0.4894 -0.4630
  165DOPC  C31520058   6.546   1.256   5.207  0.0467 -0.3486  0.0381
  165DOPC  H15X20059   6.643   1.309   5.214 -0.1932  0.1586 -0.4468
  165DOPC  H15Y20060   6.474   1.298   5.281  0.6487 -0.0980  0.4977
  165DOPC  C31620061   6.477   1.260   5.071  0.0170 -0.4921  0.1028
  165DOPC  H16X20062   6.395   1.186   5.063  1.3430 -1.9694 -0.3436
  165DOPC  H16Y20063   6.437   1.364   5.069 -1.2602 -0.9725  0.1958
  165DOPC  C31720064   6.590   1.239   4.964  0.5567  0.4729  0.1913
  165DOPC  H17X20065   6.677   1.296   5.005  0.1338  0.4122  1.2019
  165DOPC  H17Y20066   6.621   1.134   4.982 -1.1656  0.4687  4.0250
  165DOPC  C31820067   6.544   1.279   4.825 -0.0157  0.2242 -0.3345
  165DOPC  H18X20068   6.437   1.255   4.804 -0.1787  2.5390 -2.6653
  165DOPC  H18Y20069   6.550   1.389   4.810 -1.0720  0.4118  0.4501
  165DOPC  H18Z20070   6.607   1.221   4.755  1.0342  1.8255 -0.7809
  166DOPC     N20071   7.436   2.046   7.117 -0.5315  0.1070 -0.6518
  166DOPC   C1220072   7.361   2.051   6.986 -0.0403  0.5878  0.1639
  166DOPC  H12A20073   7.423   2.094   6.908  0.3509 -0.3314 -0.0486
  166DOPC  H12B20074   7.280   2.119   7.005  0.1253  0.4785  1.2958
  166DOPC   C1320075   7.560   1.970   7.092  0.0174  0.4015  0.0902
  166DOPC  H13A20076   7.529   1.870   7.066 -2.3530  1.4236 -1.3142
  166DOPC  H13B20077   7.608   2.010   7.004 -0.0097 -1.5601 -0.8760
  166DOPC  H13C20078   7.635   1.974   7.170 -0.0527 -0.5706  0.2223
  166DOPC   C1420079   7.352   1.986   7.224 -0.1563  0.0697 -0.8113
  166DOPC  H14A20080   7.282   2.065   7.243  0.4399  0.5696 -0.6540
  166DOPC  H14B20081   7.301   1.899   7.186 -1.8538 -0.2981  2.0019
  166DOPC  H14C20082   7.412   1.965   7.312 -1.2838  2.4100  0.6007
  166DOPC   C1520083   7.471   2.190   7.146  0.5288  0.7869  0.3282
  166DOPC  H15A20084   7.544   2.230   7.077 -0.1834 -2.9230 -2.8813
  166DOPC  H15B20085   7.522   2.193   7.242  0.6073 -1.5330  0.3968
  166DOPC  H15C20086   7.378   2.244   7.153 -0.6684 -1.0517 -0.6345
  166DOPC   C1120087   7.323   1.917   6.924  0.4198  0.1611  1.1268
  166DOPC  H11A20088   7.298   1.932   6.817  0.7759  1.0625  1.1637
  166DOPC  H11B20089   7.405   1.842   6.921  0.1423 -0.1168 -0.6447
  166DOPC     P20090   7.066   1.872   6.942  0.0394 -0.1375  0.1407
  166DOPC   O1320091   7.046   2.016   6.907 -0.9545  0.4450  0.2095
  166DOPC   O1420092   6.970   1.810   7.040 -0.6672  0.4376  0.1952
  166DOPC   O1220093   7.211   1.862   6.993  0.1858  0.1071 -0.1644
  166DOPC   O1120094   7.060   1.782   6.816  0.2033 -0.2062  0.5776
  166DOPC    C120095   7.066   1.827   6.683  0.5293  0.7597 -0.2656
  166DOPC    HA20096   7.172   1.844   6.653  0.3403  1.9275 -0.3360
  166DOPC    HB20097   7.016   1.924   6.662 -1.2912 -0.2039 -0.5652
  166DOPC    C220098   6.990   1.733   6.579 -0.1982 -0.3410  0.1017
  166DOPC    HS20099   6.892   1.721   6.629  0.1691 -2.0330  0.5018
  166DOPC   O2120100   7.059   1.612   6.555  0.2446  0.9456 -0.2561
  166DOPC   C2120101   6.975   1.509   6.538  0.2706 -0.6271  0.8292
  166DOPC   O2220102   6.858   1.509   6.549  0.3250  0.1371  0.0091
  166DOPC   C2220103   7.049   1.379   6.500  0.4408 -0.3876 -0.8660
  166DOPC   H2R20104   7.000   1.295   6.554 -1.6968  0.1945 -1.8142
  166DOPC   H2S20105   7.155   1.392   6.531  0.5062  0.3141 -1.3778
  166DOPC    C320106   6.964   1.804   6.449 -0.7087 -0.1965 -0.6439
  166DOPC    HX20107   6.946   1.912   6.470 -0.1753 -0.0541 -0.8942
  166DOPC    HY20108   6.864   1.771   6.412 -0.3421  0.2081 -2.0661
  166DOPC   O3120109   7.068   1.774   6.351  0.2536 -0.1744 -0.0630
  166DOPC   C3120110   7.164   1.861   6.345 -0.6717  0.4345 -0.5878
  166DOPC   O3220111   7.170   1.958   6.420 -0.5724  0.5597 -0.7192
  166DOPC   C3220112   7.261   1.819   6.239  0.5339 -0.4330  0.0182
  166DOPC   H2X20113   7.305   1.721   6.267  0.5989 -0.7308 -1.0682
  166DOPC   H2Y20114   7.209   1.817   6.140 -1.0903 -2.9769  0.8091
  166DOPC   C2320115   7.054   1.348   6.349  0.0857  0.0022 -0.5999
  166DOPC   H3R20116   6.956   1.361   6.298 -0.0103  3.6130  0.2318
  166DOPC   H3S20117   7.081   1.240   6.355  0.2470  0.0812  0.3225
  166DOPC   C2420118   7.151   1.427   6.267  0.3727 -0.1253  0.1258
  166DOPC   H4R20119   7.254   1.425   6.309  0.6865 -2.0264 -0.6171
  166DOPC   H4S20120   7.114   1.532   6.268 -0.5106 -0.4058  2.3416
  166DOPC   C2520121   7.160   1.369   6.125  0.1392  0.5704 -0.0140
  166DOPC   H5R20122   7.063   1.385   6.074 -1.8537  1.0101  3.5693
  166DOPC   H5S20123   7.185   1.262   6.140  2.0628  0.8945 -0.6185
  166DOPC   C2620124   7.265   1.437   6.043 -0.1457  0.3210 -0.1305
  166DOPC   H6R20125   7.367   1.417   6.084 -0.5806 -2.8639 -0.3224
  166DOPC   H6S20126   7.244   1.543   6.065 -0.7319  0.2902 -0.5384
  166DOPC   C2720127   7.265   1.395   5.893 -0.1458 -0.1866 -1.0102
  166DOPC   H7R20128   7.164   1.372   5.853  0.2014 -0.7013 -1.6009
  166DOPC   H7S20129   7.314   1.295   5.892  1.7778  0.6286  1.1210
  166DOPC   C2820130   7.356   1.489   5.803 -0.0804  0.3926 -0.0624
  166DOPC   H8R20131   7.384   1.425   5.716 -1.4584 -0.4714  0.0972
  166DOPC   H8S20132   7.441   1.522   5.868  0.1601 -0.9686  0.3484
  166DOPC   C2920133   7.270   1.600   5.746  0.4579  0.4719 -0.6133
  166DOPC   H9R20134   7.203   1.657   5.812  1.5091  2.8130 -1.4599
  166DOPC  C21020135   7.275   1.641   5.620 -0.0788 -0.4688  0.0096
  166DOPC  H10R20136   7.209   1.726   5.595 -1.2089 -1.4959 -0.5756
  166DOPC  C21120137   7.359   1.587   5.509 -0.3132  0.0688 -0.4603
  166DOPC  H11R20138   7.321   1.628   5.413 -1.9258 -1.0892 -0.3624
  166DOPC  H11S20139   7.355   1.479   5.484  0.9919  0.2907 -1.7411
  166DOPC  C21220140   7.510   1.626   5.508 -0.1337  0.2952  0.5826
  166DOPC  H12R20141   7.549   1.597   5.608  1.5615 -1.3394 -0.4920
  166DOPC  H12S20142   7.518   1.736   5.496  0.9933  0.1242 -0.4249
  166DOPC  C21320143   7.593   1.556   5.400  0.3151 -0.5515  0.8342
  166DOPC  H13R20144   7.546   1.579   5.302  2.3064 -1.8426 -0.4827
  166DOPC  H13S20145   7.576   1.447   5.412 -0.1604 -0.6898 -0.9063
  166DOPC  C21420146   7.746   1.598   5.391 -0.5057 -0.2767  0.8101
  166DOPC  H14R20147   7.800   1.556   5.478  1.7767  1.1093  0.1496
  166DOPC  H14S20148   7.748   1.709   5.390  0.5020 -0.2861 -0.1527
  166DOPC  C21520149   7.804   1.527   5.264 -0.2590  0.3889 -0.0783
  166DOPC  H15R20150   7.741   1.524   5.173  0.0334 -0.9830 -0.2541
  166DOPC  H15S20151   7.818   1.422   5.299  1.5026 -0.0651 -1.9619
  166DOPC  C21620152   7.946   1.576   5.227 -0.5051  0.4843 -0.8858
  166DOPC  H16R20153   8.014   1.586   5.315 -1.0346 -2.5436  0.0013
  166DOPC  H16S20154   7.943   1.679   5.187 -0.8221  1.0558  0.5542
  166DOPC  C21720155   8.017   1.489   5.123  0.3060 -0.1863  0.4196
  166DOPC  H17R20156   7.948   1.495   5.036  0.7388  0.3887  0.1062
  166DOPC  H17S20157   8.013   1.387   5.166 -1.5212  1.0796  3.6043
  166DOPC  C21820158   8.162   1.534   5.094 -0.2509 -0.5116  0.0736
  166DOPC  H18R20159   8.205   1.468   5.015  0.2022 -0.4819  0.2883
  166DOPC  H18S20160   8.236   1.504   5.171  1.3107  0.7176 -0.8859
  166DOPC  H18T20161   8.168   1.642   5.067 -0.6933  1.0731  5.2137
  166DOPC   C3320162   7.384   1.924   6.223  1.0029 -0.1861  0.5310
  166DOPC   H3X20163   7.439   1.937   6.319  2.0644  0.1280 -0.0976
  166DOPC   H3Y20164   7.331   2.018   6.195  0.2691 -0.4815  0.9020
  166DOPC   C3420165   7.473   1.890   6.108  0.4903 -0.8218  0.3412
  166DOPC   H4X20166   7.534   1.980   6.087 -0.5501  0.0458  0.9509
  166DOPC   H4Y20167   7.427   1.858   6.012  1.9346 -1.1932 -0.2460
  166DOPC   C3520168   7.570   1.774   6.131  0.3089  0.3531 -0.0719
  166DOPC   H5X20169   7.509   1.684   6.110  2.0210 -0.6201 -1.0317
  166DOPC   H5Y20170   7.599   1.773   6.238  0.8018  2.5351 -0.1432
  166DOPC   C3620171   7.684   1.763   6.036  0.2442 -0.0140  0.0703
  166DOPC   H6X20172   7.652   1.758   5.929 -0.0395 -2.2424  0.2104
  166DOPC   H6Y20173   7.746   1.855   6.041  0.2353 -0.0045  0.0092
  166DOPC   C3720174   7.779   1.644   6.051 -0.4141 -0.0530 -0.3719
  166DOPC   H7X20175   7.817   1.659   6.154 -3.5656  0.1658  0.8654
  166DOPC   H7Y20176   7.704   1.564   6.035 -1.4642  1.2270 -2.2291
  166DOPC   C3820177   7.899   1.648   5.949  0.0933 -0.1625  1.0016
  166DOPC   H8X20178   7.963   1.561   5.975  1.9627  0.9933  0.5602
  166DOPC   H8Y20179   7.958   1.739   5.972  0.6800 -0.4456  0.6564
  166DOPC   C3920180   7.862   1.649   5.801 -0.5624 -0.2351  0.0113
  166DOPC   H9X20181   7.766   1.596   5.786 -0.9156  0.1214  0.9805
  166DOPC  C31020182   7.904   1.724   5.700 -0.0210  0.1899  0.3606
  166DOPC  H10X20183   7.859   1.723   5.600  0.5995  2.2868  0.0018
  166DOPC  C31120184   8.026   1.818   5.701  0.2683 -0.2004  0.1636
  166DOPC  H11X20185   8.087   1.797   5.792 -1.0514 -1.9752  0.6716
  166DOPC  H11Y20186   8.008   1.928   5.696 -0.4358 -0.3016  0.4792
  166DOPC  C31220187   8.106   1.768   5.576 -1.2456  0.7855  0.4846
  166DOPC  H12X20188   8.040   1.765   5.486 -0.7135  2.4293  0.0201
  166DOPC  H12Y20189   8.148   1.669   5.604 -0.4007  1.1150  0.4025
  166DOPC  C31320190   8.218   1.869   5.530  0.4675  0.0592  0.5111
  166DOPC  H13X20191   8.178   1.968   5.500 -0.3049 -0.1994  0.6903
  166DOPC  H13Y20192   8.284   1.884   5.618  2.0337 -1.3022 -0.3720
  166DOPC  C31420193   8.312   1.820   5.416 -0.0694  0.8344 -0.2335
  166DOPC  H14X20194   8.357   1.726   5.454 -2.1320  0.3631  1.2584
  166DOPC  H14Y20195   8.244   1.796   5.331  1.5031  1.3539 -1.6942
  166DOPC  C31520196   8.419   1.928   5.392 -0.0299  0.4293 -0.4815
  166DOPC  H15X20197   8.489   1.892   5.314 -0.8691 -2.0227 -0.1789
  166DOPC  H15Y20198   8.475   1.960   5.482  1.4963 -1.3723 -0.7124
  166DOPC  C31620199   8.360   2.057   5.331 -0.4517 -0.7026 -0.2798
  166DOPC  H16X20200   8.301   2.033   5.239 -1.1965  0.8018 -0.2412
  166DOPC  H16Y20201   8.293   2.102   5.408 -1.5021 -1.7137 -0.5722
  166DOPC  C31720202   8.461   2.164   5.294 -0.3210  0.3230  0.3908
  166DOPC  H17X20203   8.492   2.217   5.387  0.1899 -0.3044  0.5910
  166DOPC  H17Y20204   8.549   2.116   5.245 -1.2448 -1.5055  0.4518
  166DOPC  C31820205   8.422   2.278   5.195  0.2590 -0.0983 -0.0492
  166DOPC  H18X20206   8.339   2.336   5.241  0.5074  0.0365  0.2339
  166DOPC  H18Y20207   8.512   2.337   5.168  0.2176  0.0088  0.0461
  166DOPC  H18Z20208   8.389   2.229   5.101  0.7090  2.2388 -1.5056
  167DOPC     N20209   6.204   0.700   7.151 -0.2169 -0.0413 -0.5502
  167DOPC   C1220210   6.257   0.579   7.070 -0.2065  0.5381  0.0369
  167DOPC  H12A20211   6.350   0.615   7.029  0.3040  0.6100  1.2103
  167DOPC  H12B20212   6.200   0.547   6.984 -0.5388 -0.3551  0.5775
  167DOPC   C1320213   6.074   0.654   7.206 -0.2371  1.1607  0.6192
  167DOPC  H13A20214   6.010   0.602   7.136 -0.6623  1.3645  0.8554
  167DOPC  H13B20215   6.084   0.594   7.295  1.7316 -0.1123 -0.3734
  167DOPC  H13C20216   6.023   0.740   7.246  0.0053  1.2543  0.7334
  167DOPC   C1420217   6.178   0.824   7.067  0.0532  0.3019  0.7286
  167DOPC  H14A20218   6.270   0.873   7.038  1.0778 -1.3229  1.0725
  167DOPC  H14B20219   6.129   0.782   6.980 -0.9474  0.4921  1.1923
  167DOPC  H14C20220   6.108   0.884   7.122  0.4897  0.3580  1.2367
  167DOPC   C1520221   6.301   0.737   7.260  0.4265 -0.9018  0.2261
  167DOPC  H15A20222   6.339   0.645   7.303  0.0533 -1.1686 -0.0012
  167DOPC  H15B20223   6.256   0.785   7.345  3.4975 -2.3741  2.8714
  167DOPC  H15C20224   6.378   0.799   7.218  0.6074 -1.0587  0.3249
  167DOPC   C1120225   6.289   0.441   7.141  0.7947 -0.5296 -0.6305
  167DOPC  H11A20226   6.202   0.397   7.194 -0.7556  1.5568 -1.3009
  167DOPC  H11B20227   6.313   0.366   7.062 -0.2436  1.6035 -3.1414
  167DOPC     P20228   6.550   0.464   7.171 -0.2973 -0.1760 -0.1393
  167DOPC   O1320229   6.623   0.347   7.216 -0.4379 -0.2467 -0.4838
  167DOPC   O1420230   6.602   0.598   7.193 -0.3839  0.0390  0.4070
  167DOPC   O1220231   6.404   0.458   7.229 -0.2893  0.6972  0.5291
  167DOPC   O1120232   6.531   0.448   7.017 -0.2031 -0.2934  0.0843
  167DOPC    C120233   6.558   0.325   6.941  0.2830 -0.3718  0.6874
  167DOPC    HA20234   6.498   0.236   6.968 -0.0942 -0.1517  0.5878
  167DOPC    HB20235   6.658   0.289   6.973  0.4693 -0.6870 -0.2000
  167DOPC    C220236   6.559   0.353   6.789 -0.4948  0.7741  0.6175
  167DOPC    HS20237   6.586   0.260   6.735 -0.3659  0.9274  0.4189
  167DOPC   O2120238   6.656   0.455   6.766 -0.5360  0.5603  0.6748
  167DOPC   C2120239   6.777   0.410   6.727 -0.5402 -0.2467 -0.3961
  167DOPC   O2220240   6.808   0.292   6.726 -0.2460  0.3952  0.0299
  167DOPC   C2220241   6.866   0.529   6.709  0.4420  0.8507  0.1523
  167DOPC   H2R20242   6.890   0.562   6.813  1.8816 -1.5360  0.6512
  167DOPC   H2S20243   6.811   0.614   6.664  0.8163  0.7631 -0.4866
  167DOPC    C320244   6.418   0.398   6.732  0.0901  0.6360  0.3651
  167DOPC    HX20245   6.395   0.504   6.759  2.4328  1.4878 -0.7583
  167DOPC    HY20246   6.337   0.333   6.772  0.2740 -0.6609 -1.2763
  167DOPC   O3120247   6.407   0.399   6.586  0.1645 -0.1837 -0.2255
  167DOPC   C3120248   6.396   0.278   6.533 -0.2712 -0.1579 -0.0307
  167DOPC   O3220249   6.403   0.176   6.600  0.4552 -0.7234  0.1805
  167DOPC   C3220250   6.368   0.282   6.381 -0.1932  0.6914 -0.6825
  167DOPC   H2X20251   6.416   0.364   6.323  1.4248 -0.7519 -1.4778
  167DOPC   H2Y20252   6.407   0.184   6.345 -0.8490  0.4548 -0.7610
  167DOPC   C2320253   6.992   0.494   6.634  0.5566  0.2526 -0.2661
  167DOPC   H3R20254   7.043   0.400   6.667  1.2875  1.3301  1.8452
  167DOPC   H3S20255   7.066   0.570   6.666  0.4411  0.0442  0.5191
  167DOPC   C2420256   6.980   0.503   6.482 -0.6769  0.4867 -0.2590
  167DOPC   H4R20257   6.959   0.605   6.443  0.4945  0.0950 -2.0420
  167DOPC   H4S20258   6.896   0.440   6.445  0.4038 -1.2931  0.1773
  167DOPC   C2520259   7.112   0.474   6.416 -0.5138  0.1882  0.1286
  167DOPC   H5R20260   7.103   0.441   6.311  1.1752 -1.2302  0.3711
  167DOPC   H5S20261   7.172   0.396   6.468  1.3163  0.2643 -1.7440
  167DOPC   C2620262   7.203   0.597   6.427 -0.3421  0.9916  0.3376
  167DOPC   H6R20263   7.241   0.601   6.531  1.3301  3.1003 -0.2721
  167DOPC   H6S20264   7.148   0.690   6.401 -0.9254  0.4896 -0.2410
  167DOPC   C2720265   7.335   0.588   6.345 -0.5875 -0.3044 -0.3202
  167DOPC   H7R20266   7.349   0.482   6.317 -0.5536 -0.8821  1.6823
  167DOPC   H7S20267   7.424   0.615   6.406 -0.6993  0.6376 -0.5575
  167DOPC   C2820268   7.344   0.684   6.224  0.1199  0.3850 -0.3257
  167DOPC   H8R20269   7.446   0.672   6.183 -0.1478  2.1545 -1.6263
  167DOPC   H8S20270   7.334   0.789   6.258 -1.9139 -0.3172  1.5073
  167DOPC   C2920271   7.247   0.660   6.116 -0.0654 -0.1491 -0.0431
  167DOPC   H9R20272   7.167   0.585   6.126 -0.3898  0.0270 -1.1918
  167DOPC  C21020273   7.249   0.717   5.991  0.0282  0.2631 -0.0521
  167DOPC  H10R20274   7.181   0.688   5.909  1.5787  0.0446 -1.2965
  167DOPC  C21120275   7.343   0.825   5.943  0.5605  0.1471  0.5948
  167DOPC  H11R20276   7.372   0.887   6.031 -1.1569 -1.0489  2.1002
  167DOPC  H11S20277   7.296   0.890   5.867  3.3450  1.3628 -0.1914
  167DOPC  C21220278   7.460   0.774   5.868 -0.1592  0.0360 -0.0063
  167DOPC  H12R20279   7.523   0.862   5.845 -0.7634  0.2091 -1.1096
  167DOPC  H12S20280   7.522   0.711   5.934  0.3578  2.1738  1.6648
  167DOPC  C21320281   7.418   0.705   5.735  0.2990  0.2946 -0.3054
  167DOPC  H13R20282   7.377   0.785   5.670 -0.0853  0.5903  0.2941
  167DOPC  H13S20283   7.331   0.636   5.746 -0.4632  1.0577 -1.4087
  167DOPC  C21420284   7.539   0.639   5.659  0.4044 -0.2653  0.1392
  167DOPC  H14R20285   7.502   0.564   5.586  1.4674 -1.9521  1.2611
  167DOPC  H14S20286   7.600   0.581   5.732  1.2733 -0.2975 -0.5859
  167DOPC  C21520287   7.628   0.744   5.593 -0.3805  0.0228  0.3908
  167DOPC  H15R20288   7.661   0.807   5.678 -1.0846 -1.2890  1.6852
  167DOPC  H15S20289   7.561   0.807   5.530 -2.1668 -0.9455  1.2466
  167DOPC  C21620290   7.742   0.688   5.512 -0.2050 -0.0524 -0.8700
  167DOPC  H16R20291   7.787   0.612   5.580 -0.5486 -1.8684 -2.5633
  167DOPC  H16S20292   7.819   0.767   5.499  1.4196 -0.8637  2.6274
  167DOPC  C21720293   7.694   0.615   5.384  0.3081 -0.2536  0.1249
  167DOPC  H17R20294   7.653   0.705   5.332 -1.4070  0.0018  1.7914
  167DOPC  H17S20295   7.619   0.534   5.391  0.7441 -0.7270 -0.5298
  167DOPC  C21820296   7.802   0.559   5.290 -0.1906 -0.3664  0.6817
  167DOPC  H18R20297   7.891   0.621   5.268 -0.6724  0.4123  0.8676
  167DOPC  H18S20298   7.760   0.527   5.192  1.6412  0.0483 -0.2681
  167DOPC  H18T20299   7.844   0.474   5.348  1.1237  0.6662  1.2976
  167DOPC   C3320300   6.216   0.281   6.346 -0.0066 -0.4127  0.2506
  167DOPC   H3X20301   6.163   0.207   6.411 -0.3257 -0.6634 -0.2932
  167DOPC   H3Y20302   6.201   0.239   6.245  1.7144  0.3504 -0.3603
  167DOPC   C3420303   6.159   0.422   6.368 -0.7826  0.6968  0.0468
  167DOPC   H4X20304   6.163   0.454   6.475 -0.5741  1.1494 -0.0934
  167DOPC   H4Y20305   6.052   0.419   6.337 -0.1540 -0.2269 -2.1898
  167DOPC   C3520306   6.214   0.542   6.285 -0.2490  0.9747 -0.5546
  167DOPC   H5X20307   6.183   0.521   6.180  2.3783 -0.5745 -1.1205
  167DOPC   H5Y20308   6.325   0.540   6.274 -0.3823 -1.5298 -2.5784
  167DOPC   C3620309   6.163   0.675   6.333 -0.2503  0.1999  0.4886
  167DOPC   H6X20310   6.053   0.683   6.325 -0.5369 -0.8231  2.6683
  167DOPC   H6Y20311   6.183   0.681   6.442  0.2261 -0.1475  0.4219
  167DOPC   C3720312   6.237   0.795   6.266  0.0147 -0.2228 -0.7736
  167DOPC   H7X20313   6.345   0.783   6.288  0.0465 -0.6073 -1.1243
  167DOPC   H7Y20314   6.236   0.784   6.155  1.5587  0.6377 -0.9090
  167DOPC   C3820315   6.171   0.929   6.316  0.3620  0.2765  0.0382
  167DOPC   H8X20316   6.164   0.919   6.427 -0.0432 -0.5086 -0.0449
  167DOPC   H8Y20317   6.071   0.943   6.270  1.2447 -0.0059 -2.0907
  167DOPC   C3920318   6.235   1.058   6.285 -0.5324 -0.4095  0.6269
  167DOPC   H9X20319   6.328   1.068   6.342 -0.3211  0.7335  0.0980
  167DOPC  C31020320   6.212   1.144   6.179  0.0076  0.1288 -0.2687
  167DOPC  H10X20321   6.283   1.228   6.173  0.2578  0.2027  2.5119
  167DOPC  C31120322   6.105   1.141   6.079  0.1710 -0.6202 -0.0561
  167DOPC  H11X20323   6.018   1.207   6.098  0.7654 -0.0565  0.8077
  167DOPC  H11Y20324   6.062   1.039   6.067  1.4758 -0.9158 -2.9069
  167DOPC  C31220325   6.166   1.169   5.943  0.0193  0.3009  0.2184
  167DOPC  H12X20326   6.204   1.273   5.932  1.4815 -0.4440 -3.4322
  167DOPC  H12Y20327   6.090   1.166   5.861 -1.4670 -0.9786  1.5880
  167DOPC  C31320328   6.276   1.074   5.890 -1.0869  0.1688 -0.2897
  167DOPC  H13X20329   6.283   0.980   5.950  1.4311  0.8256  0.5585
  167DOPC  H13Y20330   6.239   1.032   5.794 -1.4876 -2.6885  0.9804
  167DOPC  C31420331   6.421   1.135   5.882  0.1104 -0.3430 -0.1951
  167DOPC  H14X20332   6.439   1.213   5.958  1.7519  0.4840 -1.3881
  167DOPC  H14Y20333   6.499   1.056   5.891  1.7583  1.2471 -0.1920
  167DOPC  C31520334   6.437   1.205   5.738  0.2880  0.3360 -0.8098
  167DOPC  H15X20335   6.352   1.276   5.724 -0.5783 -0.5580 -0.2363
  167DOPC  H15Y20336   6.434   1.122   5.663  2.1878  0.3440 -0.9337
  167DOPC  C31620337   6.556   1.294   5.715  0.0870  0.5032 -0.1050
  167DOPC  H16X20338   6.578   1.368   5.794  1.3835 -0.1124  0.1358
  167DOPC  H16Y20339   6.640   1.221   5.712 -1.2760 -1.2814  2.0865
  167DOPC  C31720340   6.555   1.378   5.591 -0.3027 -0.2367  0.3949
  167DOPC  H17X20341   6.592   1.325   5.501 -0.3065  0.6349 -0.1312
  167DOPC  H17Y20342   6.448   1.406   5.578 -0.3195  0.3174  1.5445
  167DOPC  C31820343   6.645   1.510   5.607  0.5594  0.0191 -0.2483
  167DOPC  H18X20344   6.617   1.568   5.517 -1.4162  0.6067  0.6985
  167DOPC  H18Y20345   6.605   1.569   5.692 -0.8987 -0.1195 -0.8162
  167DOPC  H18Z20346   6.752   1.478   5.607  0.0537 -2.0314  2.4007
  168DOPC     N20347   2.106   6.615   7.326 -0.4536 -0.0520 -0.6059
  168DOPC   C1220348   2.086   6.558   7.188  0.1265 -0.0484  0.0583
  168DOPC  H12A20349   2.162   6.482   7.175  1.6021  1.2927  0.5350
  168DOPC  H12B20350   2.110   6.640   7.123 -0.9144 -0.7113 -1.2227
  168DOPC   C1320351   2.252   6.648   7.338  0.7913  0.3687 -0.0552
  168DOPC  H13A20352   2.288   6.723   7.269 -0.5023  1.3432  0.3062
  168DOPC  H13B20353   2.279   6.674   7.439 -1.7681  0.3196  0.7049
  168DOPC  H13C20354   2.303   6.555   7.315  2.1059  1.4828 -1.9358
  168DOPC   C1420355   2.075   6.520   7.437  0.4199 -0.2508 -0.7030
  168DOPC  H14A20356   1.974   6.481   7.431  1.2866 -2.6408 -0.7835
  168DOPC  H14B20357   2.127   6.426   7.436  0.9210  0.0240 -0.8449
  168DOPC  H14C20358   2.093   6.565   7.533  0.4979 -1.1798 -0.2690
  168DOPC   C1520359   2.029   6.742   7.348  0.6665 -1.0823 -0.5359
  168DOPC  H15A20360   2.042   6.792   7.443  1.2130  3.0644 -2.5624
  168DOPC  H15B20361   1.924   6.719   7.335  0.8895 -1.9613 -0.8477
  168DOPC  H15C20362   2.056   6.827   7.287  0.9973  1.0027  2.2790
  168DOPC   C1120363   1.949   6.509   7.141  0.0010 -0.3853  0.2800
  168DOPC  H11A20364   1.948   6.473   7.036 -2.4087 -0.3961  0.2451
  168DOPC  H11B20365   1.915   6.425   7.205  1.2263 -0.6270  0.6437
  168DOPC     P20366   1.833   6.724   7.049 -0.2314  0.0868 -0.1641
  168DOPC   O1320367   1.966   6.757   6.996  0.4385 -0.7859  0.3952
  168DOPC   O1420368   1.760   6.835   7.117 -0.6521 -0.1056 -0.0472
  168DOPC   O1220369   1.852   6.610   7.154  0.5017  0.3931 -0.4658
  168DOPC   O1120370   1.737   6.658   6.940 -0.2730  0.3069  0.6880
  168DOPC    C120371   1.626   6.574   6.988 -0.6769 -0.1086 -0.3994
  168DOPC    HA20372   1.554   6.642   7.038 -0.6579 -0.9154  0.7377
  168DOPC    HB20373   1.662   6.488   7.047 -1.6000 -0.8762 -0.9283
  168DOPC    C220374   1.548   6.509   6.866 -0.3295  0.2318  0.0489
  168DOPC    HS20375   1.477   6.435   6.907  0.8298 -1.0099 -0.0997
  168DOPC   O2120376   1.640   6.439   6.775 -0.1718  0.1714  0.0688
  168DOPC   C2120377   1.611   6.319   6.732  0.5859  0.4760 -0.5661
  168DOPC   O2220378   1.528   6.240   6.773 -1.0200 -0.3280  0.3590
  168DOPC   C2220379   1.713   6.274   6.634 -0.0925 -0.6223  0.1521
  168DOPC   H2R20380   1.720   6.163   6.632 -1.9234 -0.7939  1.0437
  168DOPC   H2S20381   1.811   6.322   6.654  0.3386 -1.5739  0.4064
  168DOPC    C320382   1.466   6.611   6.783  0.3732  0.9452  0.1913
  168DOPC    HX20383   1.532   6.692   6.745  1.9969 -1.1087 -1.5998
  168DOPC    HY20384   1.392   6.654   6.854 -2.9702 -3.1911 -0.3963
  168DOPC   O3120385   1.401   6.545   6.678 -0.2595  0.6354 -0.3982
  168DOPC   C3120386   1.281   6.594   6.629  0.1407 -0.4255 -0.7133
  168DOPC   O3220387   1.234   6.693   6.681 -0.1498 -0.4748  0.3031
  168DOPC   C3220388   1.233   6.519   6.512 -0.0056  0.4943 -0.1386
  168DOPC   H2X20389   1.229   6.413   6.546  1.3907  0.8426  1.2285
  168DOPC   H2Y20390   1.131   6.539   6.474 -0.3000 -1.7832 -0.6971
  168DOPC   C2320391   1.669   6.324   6.496 -0.0645  0.0403  0.0053
  168DOPC   H3R20392   1.700   6.429   6.483 -1.3462  0.3555 -0.7273
  168DOPC   H3S20393   1.557   6.323   6.494 -0.1795 -0.9137  2.5199
  168DOPC   C2420394   1.715   6.237   6.375 -0.5615  0.5422 -0.1582
  168DOPC   H4R20395   1.666   6.138   6.369  2.2924 -0.9784 -0.0466
  168DOPC   H4S20396   1.824   6.221   6.381 -0.5832  0.9948  2.8216
  168DOPC   C2520397   1.683   6.312   6.242  0.1647 -0.0106  0.4604
  168DOPC   H5R20398   1.715   6.416   6.219 -1.1415 -0.3011 -3.4022
  168DOPC   H5S20399   1.574   6.333   6.247  0.2464  0.2709  1.3760
  168DOPC   C2620400   1.719   6.230   6.116  0.8530  0.1345 -0.0065
  168DOPC   H6R20401   1.659   6.136   6.118  0.5133  0.3097 -0.9854
  168DOPC   H6S20402   1.825   6.197   6.122  0.3940 -1.6545 -0.9546
  168DOPC   C2720403   1.678   6.290   5.986  0.4715 -0.6050 -0.0329
  168DOPC   H7R20404   1.732   6.385   5.966 -1.3049  0.1683 -1.4354
  168DOPC   H7S20405   1.570   6.313   5.998 -0.0244 -1.5977 -2.1139
  168DOPC   C2820406   1.688   6.211   5.853 -0.2921  0.0638 -0.2938
  168DOPC   H8R20407   1.627   6.120   5.871 -0.9989  0.4865 -0.5446
  168DOPC   H8S20408   1.791   6.171   5.838 -0.2217 -0.0062  0.3477
  168DOPC   C2920409   1.631   6.283   5.730 -0.6523  0.6210 -0.3064
  168DOPC   H9R20410   1.529   6.249   5.706 -0.1409  0.7916 -3.0778
  168DOPC  C21020411   1.703   6.361   5.649  0.6165 -0.0650  0.6390
  168DOPC  H10R20412   1.641   6.401   5.567 -3.2824  0.9969  3.8122
  168DOPC  C21120413   1.848   6.400   5.670 -0.1073  0.1137  0.4374
  168DOPC  H11R20414   1.873   6.403   5.778  1.3716 -0.8592  0.1435
  168DOPC  H11S20415   1.870   6.501   5.628  0.3112  0.7728  2.1430
  168DOPC  C21220416   1.949   6.313   5.586 -0.2270  0.4057  0.2791
  168DOPC  H12R20417   1.922   6.322   5.479  1.7379 -1.3044 -0.4357
  168DOPC  H12S20418   1.933   6.205   5.605 -1.3974  0.8492  2.0235
  168DOPC  C21320419   2.093   6.348   5.608  0.4771 -0.3165 -0.3908
  168DOPC  H13R20420   2.121   6.346   5.716 -1.3214  1.1051  0.1535
  168DOPC  H13S20421   2.098   6.457   5.585 -1.5424 -0.3606 -1.2536
  168DOPC  C21420422   2.191   6.281   5.512 -0.2235  0.4720 -0.3961
  168DOPC  H14R20423   2.166   6.173   5.505 -1.3874  0.6604  0.5258
  168DOPC  H14S20424   2.297   6.296   5.542 -0.6436  0.5136  1.1900
  168DOPC  C21520425   2.167   6.340   5.370  0.6225 -0.1821  0.3706
  168DOPC  H15R20426   2.160   6.451   5.362  0.8831 -0.2649 -1.6644
  168DOPC  H15S20427   2.067   6.305   5.334  0.0957  1.6865 -0.1128
  168DOPC  C21620428   2.274   6.303   5.261  0.2441  0.1696 -0.1153
  168DOPC  H16R20429   2.281   6.193   5.251  0.5651  0.3757 -2.8385
  168DOPC  H16S20430   2.370   6.350   5.292  0.7603 -1.8281  1.5545
  168DOPC  C21720431   2.234   6.356   5.127 -0.4270  0.1907 -0.6550
  168DOPC  H17R20432   2.197   6.460   5.137 -0.3847  0.2758 -1.3644
  168DOPC  H17S20433   2.149   6.294   5.092 -0.7094  0.7373 -0.9476
  168DOPC  C21820434   2.345   6.338   5.021  0.1804  0.7999  0.4739
  168DOPC  H18R20435   2.311   6.393   4.931  0.5956 -0.7150 -0.6516
  168DOPC  H18S20436   2.360   6.232   4.991 -0.0618  1.0993 -0.7310
  168DOPC  H18T20437   2.443   6.375   5.058 -0.3649  1.8300  0.9293
  168DOPC   C3320438   1.327   6.523   6.389  0.6600 -0.3647 -0.4507
  168DOPC   H3X20439   1.300   6.448   6.311  0.0251 -2.2964  1.5265
  168DOPC   H3Y20440   1.425   6.490   6.429 -0.3802 -1.7998  1.0187
  168DOPC   C3420441   1.356   6.662   6.325  0.3738 -0.4593  0.1397
  168DOPC   H4X20442   1.389   6.731   6.406  0.5370  1.6894 -1.6420
  168DOPC   H4Y20443   1.263   6.705   6.281  1.7200 -0.3487 -2.8023
  168DOPC   C3520444   1.473   6.683   6.226  0.5071  0.0955  0.1015
  168DOPC   H5X20445   1.568   6.650   6.273  0.4611 -0.4257 -0.1658
  168DOPC   H5Y20446   1.476   6.792   6.205  3.1813  0.3898  1.4893
  168DOPC   C3620447   1.469   6.610   6.090 -0.4254  0.3757  0.0800
  168DOPC   H6X20448   1.555   6.649   6.033 -1.6200  1.0893 -1.2954
  168DOPC   H6Y20449   1.492   6.504   6.115  0.5582  0.6748  0.4756
  168DOPC   C3720450   1.334   6.619   6.027 -0.2608 -0.4334  0.0936
  168DOPC   H7X20451   1.259   6.553   6.075 -1.2701 -0.2125 -1.1036
  168DOPC   H7Y20452   1.292   6.722   6.029 -2.0326 -1.1138  3.1940
  168DOPC   C3820453   1.343   6.575   5.881  0.7890  0.4868 -0.2062
  168DOPC   H8X20454   1.243   6.574   5.833  0.3967  0.4413  0.6045
  168DOPC   H8Y20455   1.381   6.470   5.882  1.2351  0.6262  1.7430
  168DOPC   C3920456   1.429   6.669   5.807 -0.6049  0.6704 -0.6021
  168DOPC   H9X20457   1.537   6.658   5.829 -0.8973 -1.6799 -0.1223
  168DOPC  C31020458   1.397   6.771   5.727 -0.5412  0.3107 -0.0716
  168DOPC  H10X20459   1.475   6.839   5.687 -0.7181  0.9791  0.7001
  168DOPC  C31120460   1.259   6.821   5.696 -0.4199  0.5033  0.5574
  168DOPC  H11X20461   1.237   6.908   5.760 -0.9874  1.4874 -0.9319
  168DOPC  H11Y20462   1.185   6.740   5.711 -1.1222  0.9225 -0.5115
  168DOPC  C31220463   1.244   6.847   5.544 -0.1674 -0.0127 -0.2085
  168DOPC  H12X20464   1.139   6.883   5.532 -1.2445 -0.7971  4.5964
  168DOPC  H12Y20465   1.234   6.753   5.486 -1.3674  0.4945 -0.8667
  168DOPC  C31320466   1.342   6.943   5.476  0.0371 -0.4623  0.1274
  168DOPC  H13X20467   1.331   7.046   5.515 -2.1994 -0.3447 -0.7010
  168DOPC  H13Y20468   1.448   6.911   5.491 -0.6329 -2.1774  1.4675
  168DOPC  C31420469   1.326   6.945   5.323  0.6957  0.0056  1.2081
  168DOPC  H14X20470   1.417   6.994   5.282 -0.5041  1.6773  0.4490
  168DOPC  H14Y20471   1.327   6.841   5.282  1.9299  0.8940 -1.2274
  168DOPC  C31520472   1.198   7.008   5.279  1.5952  0.3658 -0.1468
  168DOPC  H15X20473   1.172   7.105   5.328 -0.5766 -0.8849  1.3622
  168DOPC  H15Y20474   1.121   6.936   5.314  1.4787  0.1281 -0.8879
  168DOPC  C31620475   1.176   7.005   5.128  0.0781 -0.2908 -0.0705
  168DOPC  H16X20476   1.248   7.074   5.079  0.4092 -0.0292  0.7702
  168DOPC  H16Y20477   1.194   6.901   5.094 -1.6955 -1.7678  3.1195
  168DOPC  C31720478   1.034   7.044   5.099 -0.0369  0.0329  0.3281
  168DOPC  H17X20479   0.964   6.957   5.100 -0.0276 -0.0027  2.3571
  168DOPC  H17Y20480   0.991   7.111   5.176  0.2492  0.1931  0.3480
  168DOPC  C31820481   1.019   7.117   4.968  0.2033  0.7768 -0.6707
  168DOPC  H18X20482   1.024   7.049   4.880 -2.8038 -2.2712  1.2576
  168DOPC  H18Y20483   0.932   7.186   4.961  0.0756  0.7482  0.4577
  168DOPC  H18Z20484   1.110   7.181   4.970  2.1319 -1.7933  2.0834
  169DOPC     N20485   1.305   0.098   6.938  0.4013 -0.1187 -0.0392
  169DOPC   C1220486   1.207   0.209   6.895  0.8852 -0.0995  0.5454
  169DOPC  H12A20487   1.206   0.297   6.957  2.0953  0.6440 -0.4464
  169DOPC  H12B20488   1.114   0.156   6.908  0.1721  1.2759  1.2887
  169DOPC   C1320489   1.282  -0.023   6.856 -0.8284 -0.4346  0.0508
  169DOPC  H13A20490   1.324  -0.005   6.758 -1.9451 -0.4042 -0.4341
  169DOPC  H13B20491   1.337  -0.104   6.901  0.3256 -0.6713 -1.6655
  169DOPC  H13C20492   1.179  -0.052   6.839 -0.2484 -1.4559 -2.1006
  169DOPC   C1420493   1.285   0.075   7.085 -0.1154  0.2549  0.2535
  169DOPC  H14A20494   1.247   0.156   7.147 -1.0581  0.4933 -0.5992
  169DOPC  H14B20495   1.209  -0.002   7.091 -2.1325  1.9971 -1.1982
  169DOPC  H14C20496   1.374   0.037   7.133  0.1208  0.7586  0.2199
  169DOPC   C1520497   1.449   0.131   6.921  0.2507 -0.2885 -0.0453
  169DOPC  H15A20498   1.508   0.053   6.966  0.1960  0.2131  0.9074
  169DOPC  H15B20499   1.476   0.224   6.968 -0.1208  1.0935 -2.4034
  169DOPC  H15C20500   1.477   0.145   6.818  1.4850  0.6367  0.3999
  169DOPC   C1120501   1.215   0.247   6.745  0.4401  0.1498 -0.1961
  169DOPC  H11A20502   1.195   0.153   6.689 -0.5718  0.6012 -0.6072
  169DOPC  H11B20503   1.127   0.307   6.713 -0.3242 -0.2612  1.0476
  169DOPC     P20504   1.350   0.464   6.697  0.6778  0.3799  0.7112
  169DOPC   O1320505   1.487   0.490   6.653  0.2199 -0.0256 -0.2877
  169DOPC   O1420506   1.318   0.521   6.828  0.0694 -0.1708 -0.1412
  169DOPC   O1220507   1.340   0.302   6.708  0.0717  0.1516 -0.0675
  169DOPC   O1120508   1.252   0.515   6.579  0.5199 -0.2275  0.0027
  169DOPC    C120509   1.266   0.434   6.456  0.7911 -0.7301  0.0748
  169DOPC    HA20510   1.237   0.330   6.481  0.2713 -0.3052  1.3602
  169DOPC    HB20511   1.372   0.439   6.422  0.6004  1.1426 -0.3258
  169DOPC    C220512   1.172   0.493   6.332 -0.1874  0.5208  0.2103
  169DOPC    HS20513   1.175   0.416   6.252 -2.6725  0.0128  0.5166
  169DOPC   O2120514   1.207   0.621   6.273  0.0393  0.3123 -0.0376
  169DOPC   C2120515   1.313   0.621   6.201  0.2126  0.0068 -0.0175
  169DOPC   O2220516   1.373   0.525   6.157 -0.1484  0.2773  0.3100
  169DOPC   C2220517   1.353   0.763   6.165  0.1695  0.1723  0.2500
  169DOPC   H2R20518   1.388   0.817   6.255  2.0091 -1.2861  0.4727
  169DOPC   H2S20519   1.268   0.822   6.126  1.0444  0.6647 -0.9885
  169DOPC    C320520   1.016   0.488   6.361  0.6342  0.5072  0.1763
  169DOPC    HX20521   0.985   0.579   6.416  0.3300  0.7213 -0.3438
  169DOPC    HY20522   0.996   0.394   6.418 -0.9847  0.8491  0.2160
  169DOPC   O3120523   0.941   0.481   6.235 -0.1285  0.2842 -0.0793
  169DOPC   C3120524   0.867   0.588   6.212 -0.0867  1.0233 -0.3147
  169DOPC   O3220525   0.833   0.680   6.281 -0.0099  0.0089 -0.0170
  169DOPC   C3220526   0.831   0.566   6.065  0.0149  0.1454  0.3743
  169DOPC   H2X20527   0.772   0.472   6.055 -1.1760  0.6809  1.9361
  169DOPC   H2Y20528   0.750   0.639   6.046 -0.8471 -0.4453  1.6021
  169DOPC   C2320529   1.465   0.787   6.061  0.0940  0.5318 -0.6061
  169DOPC   H3R20530   1.546   0.717   6.087 -0.9231  0.3533  2.4309
  169DOPC   H3S20531   1.513   0.885   6.083  3.6159 -1.1580 -0.2209
  169DOPC   C2420532   1.418   0.785   5.916 -0.0295 -0.3656  0.2524
  169DOPC   H4R20533   1.323   0.843   5.919  0.3370  0.2965 -0.7288
  169DOPC   H4S20534   1.373   0.690   5.882  0.2549 -0.4686  0.1603
  169DOPC   C2520535   1.513   0.850   5.818 -0.4017  0.1939  0.9635
  169DOPC   H5R20536   1.596   0.782   5.786 -1.2848 -0.0020 -1.1066
  169DOPC   H5S20537   1.546   0.946   5.862 -0.1744  1.9807 -2.7170
  169DOPC   C2620538   1.434   0.881   5.689  0.4544  0.1951  0.1584
  169DOPC   H6R20539   1.353   0.952   5.715  0.9967  1.1243 -0.6301
  169DOPC   H6S20540   1.395   0.784   5.652 -1.3449  0.9996 -0.1502
  169DOPC   C2720541   1.527   0.938   5.580  0.0788 -0.0158 -0.0192
  169DOPC   H7R20542   1.601   0.859   5.557 -1.3102 -1.1210 -0.8756
  169DOPC   H7S20543   1.569   1.033   5.618 -1.4079  1.4012 -1.7029
  169DOPC   C2820544   1.459   0.966   5.449  0.6265 -0.1867  0.3459
  169DOPC   H8R20545   1.390   1.051   5.465 -1.7971 -1.9437 -0.2454
  169DOPC   H8S20546   1.393   0.880   5.425  0.0831  0.5000 -0.7139
  169DOPC   C2920547   1.556   0.992   5.341 -0.2182  0.0759 -0.1154
  169DOPC   H9R20548   1.635   0.916   5.331 -0.1587 -0.2548  2.3678
  169DOPC  C21020549   1.554   1.095   5.255  0.6439 -0.1914  0.0829
  169DOPC  H10R20550   1.631   1.108   5.178 -0.0490  0.8757 -0.4501
  169DOPC  C21120551   1.446   1.203   5.244  0.0679 -0.1464 -0.6526
  169DOPC  H11R20552   1.418   1.239   5.345 -0.8718  1.5714 -1.4832
  169DOPC  H11S20553   1.357   1.150   5.206  1.1908 -0.3076 -3.2589
  169DOPC  C21220554   1.475   1.331   5.153  0.2558  0.6247 -1.0301
  169DOPC  H12R20555   1.576   1.375   5.166  0.4067 -0.2834  1.4695
  169DOPC  H12S20556   1.402   1.411   5.178  0.3814  0.7903 -1.1925
  169DOPC  C21320557   1.449   1.302   5.005  0.6191 -0.3390 -0.0631
  169DOPC  H13R20558   1.357   1.240   5.004 -0.3728  1.0388  1.2905
  169DOPC  H13S20559   1.538   1.242   4.977 -0.2954 -2.7165  1.8358
  169DOPC  C21420560   1.448   1.427   4.915  0.5899  0.0136  0.1970
  169DOPC  H14R20561   1.452   1.408   4.805  0.7302 -0.5968  0.3085
  169DOPC  H14S20562   1.540   1.487   4.932  1.6943 -1.5041 -0.2126
  169DOPC  C21520563   1.325   1.520   4.935  0.3187  0.3082  0.0891
  169DOPC  H15R20564   1.332   1.566   5.036 -3.7160  1.3819  0.0528
  169DOPC  H15S20565   1.235   1.454   4.938  1.2704 -1.0142  2.0645
  169DOPC  C21620566   1.313   1.625   4.822  0.4960 -0.6921 -0.5238
  169DOPC  H16R20567   1.209   1.659   4.809  1.1201  0.9926 -1.3038
  169DOPC  H16S20568   1.346   1.583   4.725 -0.9005  1.0364 -1.7869
  169DOPC  C21720569   1.399   1.752   4.852 -0.2693 -0.2535  0.3482
  169DOPC  H17R20570   1.423   1.799   4.754 -0.1888 -0.6460  0.1780
  169DOPC  H17S20571   1.491   1.720   4.904 -0.3794  0.1845  0.8171
  169DOPC  C21820572   1.334   1.853   4.949  0.3346  0.7313  0.0280
  169DOPC  H18R20573   1.346   1.815   5.053  1.2901  0.9038 -0.0096
  169DOPC  H18S20574   1.230   1.883   4.922 -0.2237 -0.0346  1.2444
  169DOPC  H18T20575   1.407   1.937   4.958 -0.0996  1.1399 -0.2129
  169DOPC   C3320576   0.949   0.594   5.960  0.4759 -0.0744 -0.0908
  169DOPC   H3X20577   1.018   0.509   5.977  0.6979  0.1110 -0.0684
  169DOPC   H3Y20578   0.982   0.696   5.990 -1.4615  0.3311  0.8378
  169DOPC   C3420579   0.914   0.605   5.814  0.0871 -0.3777 -0.0004
  169DOPC   H4X20580   0.836   0.674   5.777 -0.5393 -0.8251  0.4748
  169DOPC   H4Y20581   0.881   0.503   5.787 -2.8454  0.8565 -1.4540
  169DOPC   C3520582   1.044   0.636   5.732  0.0090 -1.0160 -0.2407
  169DOPC   H5X20583   1.117   0.553   5.743 -0.2499 -1.4737 -1.7690
  169DOPC   H5Y20584   1.092   0.731   5.765  1.4187 -2.0546  0.8387
  169DOPC   C3620585   0.988   0.632   5.589  0.2648  0.4038 -0.6476
  169DOPC   H6X20586   0.940   0.532   5.592 -3.1326  1.9054  0.4543
  169DOPC   H6Y20587   0.917   0.717   5.586  1.0830  1.2956  1.9731
  169DOPC   C3720588   1.098   0.627   5.477 -0.3194  0.3123 -0.3098
  169DOPC   H7X20589   1.166   0.713   5.497 -0.3413 -0.1403  2.0723
  169DOPC   H7Y20590   1.154   0.530   5.478 -3.0973 -1.3830  0.4031
  169DOPC   C3820591   1.049   0.643   5.334 -0.2507  0.5072  0.2500
  169DOPC   H8X20592   1.136   0.653   5.266 -0.3333 -1.1367 -0.1320
  169DOPC   H8Y20593   0.988   0.736   5.328 -1.0359  0.0708  1.1414
  169DOPC   C3920594   0.964   0.523   5.292 -0.1176 -0.0310  0.7753
  169DOPC   H9X20595   0.862   0.528   5.334 -0.2782 -0.0759  0.3929
  169DOPC  C31020596   1.001   0.412   5.221  0.2548  0.0156  0.4565
  169DOPC  H10X20597   0.920   0.344   5.192 -0.0859  0.8035 -0.4798
  169DOPC  C31120598   1.135   0.384   5.163 -0.0311  0.0953  0.7203
  169DOPC  H11X20599   1.197   0.316   5.226 -1.8160 -1.4365  0.9250
  169DOPC  H11Y20600   1.192   0.475   5.138  1.9849 -0.9588  1.2565
  169DOPC  C31220601   1.105   0.304   5.034  0.0842 -0.0337 -0.5977
  169DOPC  H12X20602   1.029   0.224   5.048 -0.6180  0.8437  0.8007
  169DOPC  H12Y20603   1.199   0.248   5.013 -0.7040 -2.0976  0.9734
  169DOPC  C31320604   1.073   0.400   4.916  0.3163  0.3858 -0.1411
  169DOPC  H13X20605   0.989   0.464   4.949  0.8409  0.1164  1.8225
  169DOPC  H13Y20606   1.150   0.478   4.901 -0.5130  1.0381 -1.1466
  169DOPC  C31420607   1.026   0.352   4.777 -0.1121 -0.7346 -0.3964
  169DOPC  H14X20608   1.007   0.444   4.718  1.3179  0.6367  1.1692
  169DOPC  H14Y20609   1.106   0.298   4.721  1.7917  0.6296  0.8703
  169DOPC  C31520610   0.893   0.275   4.782  0.1598  0.5172 -0.3376
  169DOPC  H15X20611   0.837   0.317   4.869 -2.6282  1.0009 -2.2251
  169DOPC  H15Y20612   0.921   0.171   4.807 -0.0605  0.0976 -1.7964
  169DOPC  C31620613   0.813   0.279   4.653 -0.0451 -0.1955  0.0583
  169DOPC  H16X20614   0.796   0.383   4.617  1.5370  1.2815  3.1545
  169DOPC  H16Y20615   0.864   0.221   4.573 -1.3792  1.1226 -1.8440
  169DOPC  C31720616   0.677   0.221   4.667 -0.2435 -0.0122 -0.0438
  169DOPC  H17X20617   0.689   0.128   4.726  0.0931 -0.8622 -1.4251
  169DOPC  H17Y20618   0.618   0.297   4.724  1.7744 -0.3416  2.7017
  169DOPC  C31820619   0.611   0.184   4.536 -0.4912  0.0170 -0.0793
  169DOPC  H18X20620   0.676   0.118   4.475 -2.4654 -2.0658 -0.0969
  169DOPC  H18Y20621   0.513   0.134   4.556  0.6457 -2.3302 -0.0104
  169DOPC  H18Z20622   0.586   0.272   4.473  0.3263 -0.2899 -0.8450
  170DOPC     N20623   6.122   6.998   6.791  0.1455  0.3830  0.9854
  170DOPC   C1220624   6.086   7.125   6.723  0.0255 -1.0011  0.1878
  170DOPC  H12A20625   6.028   7.101   6.635  1.4272  0.1379 -1.1190
  170DOPC  H12B20626   6.178   7.169   6.686 -1.6996  3.9744  1.0890
  170DOPC   C1320627   6.010   6.903   6.779  0.2106 -0.5847  0.3418
  170DOPC  H13A20628   5.971   6.892   6.679  2.1348 -2.5373 -0.2852
  170DOPC  H13B20629   6.043   6.804   6.810 -0.4035 -0.8148  0.2791
  170DOPC  H13C20630   5.927   6.945   6.835 -0.0734 -1.0916  0.3094
  170DOPC   C1420631   6.166   7.009   6.930 -0.8790 -0.3160 -0.0975
  170DOPC  H14A20632   6.252   7.074   6.927 -1.1673  0.0474 -0.3902
  170DOPC  H14B20633   6.086   7.041   6.994 -1.5462 -0.0959 -1.0314
  170DOPC  H14C20634   6.199   6.911   6.962 -1.0933  0.0414  1.2959
  170DOPC   C1520635   6.237   6.924   6.717 -0.3196 -0.2245  0.3148
  170DOPC  H15A20636   6.265   6.832   6.766 -1.7843 -1.4354 -1.0267
  170DOPC  H15B20637   6.319   6.993   6.704 -1.2918  0.9743  0.2883
  170DOPC  H15C20638   6.204   6.890   6.620  2.1117  1.3359 -1.1584
  170DOPC   C1120639   6.010   7.236   6.801  0.4660 -0.2686  0.3385
  170DOPC  H11A20640   6.077   7.280   6.879  0.4631  1.0644 -0.3907
  170DOPC  H11B20641   5.987   7.316   6.728  1.8650 -1.3856 -1.3977
  170DOPC     P20642   5.766   7.160   6.769 -0.3258 -0.3044  0.1423
  170DOPC   O1320643   5.682   7.283   6.771  0.2730 -0.2457 -0.2483
  170DOPC   O1420644   5.695   7.037   6.816 -0.3304 -0.2794  0.2660
  170DOPC   O1220645   5.890   7.196   6.863  0.0929  0.5125 -0.3012
  170DOPC   O1120646   5.827   7.144   6.621  0.1757 -0.6141  0.7142
  170DOPC    C120647   5.794   7.248   6.527 -0.0723  0.1572 -0.9358
  170DOPC    HA20648   5.842   7.343   6.559  1.2695 -0.6451 -0.4662
  170DOPC    HB20649   5.685   7.261   6.515  0.2992  2.3096 -2.6578
  170DOPC    C220650   5.848   7.219   6.388  0.5617 -0.2437 -0.5784
  170DOPC    HS20651   5.797   7.276   6.307  2.0299 -2.5365 -3.2901
  170DOPC   O2120652   5.834   7.086   6.340 -0.5238 -0.0510  0.2922
  170DOPC   C2120653   5.705   7.048   6.352  0.1717 -0.2297 -1.2331
  170DOPC   O2220654   5.605   7.118   6.362 -0.2410  0.2018 -0.2086
  170DOPC   C2220655   5.709   6.898   6.323  0.3117  1.1078 -0.2129
  170DOPC   H2R20656   5.602   6.868   6.318  0.1342  1.4982  0.9956
  170DOPC   H2S20657   5.748   6.850   6.415  0.7821 -0.1083 -1.0249
  170DOPC    C320658   6.003   7.257   6.402 -0.5281  0.1391  0.5108
  170DOPC    HX20659   6.055   7.194   6.477 -1.2118 -2.7937 -1.3316
  170DOPC    HY20660   6.015   7.365   6.423 -1.6292  0.6445 -1.2056
  170DOPC   O3120661   6.073   7.244   6.272  0.1537  0.3087 -0.6586
  170DOPC   C3120662   6.102   7.121   6.226  0.7640 -0.5079 -0.1612
  170DOPC   O3220663   6.094   7.016   6.282 -0.4926  0.2269  0.1688
  170DOPC   C3220664   6.124   7.137   6.074 -0.0699 -0.2812  0.0887
  170DOPC   H2X20665   6.101   7.035   6.036 -1.3567 -0.6378  1.7452
  170DOPC   H2Y20666   6.052   7.213   6.034 -1.2262 -1.3422  0.1017
  170DOPC   C2320667   5.794   6.859   6.196  0.3102 -0.5021 -1.3075
  170DOPC   H3R20668   5.802   6.748   6.203  0.2717 -0.3981  1.6577
  170DOPC   H3S20669   5.897   6.901   6.196 -0.5290  1.8944  1.7219
  170DOPC   C2420670   5.729   6.890   6.060 -0.3775  0.3754  0.4600
  170DOPC   H4R20671   5.712   6.997   6.035  1.1834  0.8724  1.3294
  170DOPC   H4S20672   5.634   6.835   6.044 -1.1452  2.4489 -3.0410
  170DOPC   C2520673   5.837   6.853   5.954  0.1904 -0.3839 -0.2815
  170DOPC   H5R20674   5.873   6.756   5.993  1.1858 -0.0563 -0.3597
  170DOPC   H5S20675   5.916   6.930   5.970 -0.0258 -0.2700  0.2499
  170DOPC   C2620676   5.782   6.836   5.816  0.0102 -0.2327  0.8982
  170DOPC   H6R20677   5.716   6.917   5.779 -0.4545 -0.7093  0.6551
  170DOPC   H6S20678   5.711   6.750   5.814  2.5084 -2.4800 -2.5057
  170DOPC   C2720679   5.887   6.820   5.704  0.2805  0.2063 -0.6100
  170DOPC   H7R20680   5.942   6.728   5.735 -0.8026 -0.2512  0.0357
  170DOPC   H7S20681   5.957   6.906   5.708  0.1259  0.2880  1.0462
  170DOPC   C2820682   5.817   6.802   5.571 -0.6921  0.4045 -0.0231
  170DOPC   H8R20683   5.757   6.892   5.545 -0.6196  0.2340 -0.8172
  170DOPC   H8S20684   5.746   6.716   5.573 -0.7191  0.3556 -1.4317
  170DOPC   C2920685   5.915   6.771   5.465 -0.1993 -0.0671  0.3683
  170DOPC   H9R20686   5.939   6.664   5.463 -1.0941 -0.3465  2.2120
  170DOPC  C21020687   5.969   6.855   5.378 -0.8319 -0.8647  0.6561
  170DOPC  H10R20688   6.039   6.812   5.305  1.5392  2.1801  0.9525
  170DOPC  C21120689   5.949   7.002   5.348 -0.1732 -0.6041 -0.0246
  170DOPC  H11R20690   6.043   7.054   5.319  0.7746 -1.4076  1.4916
  170DOPC  H11S20691   5.914   7.048   5.443  1.0234 -1.0830  0.6693
  170DOPC  C21220692   5.844   7.016   5.231  0.1043 -0.0073  0.9544
  170DOPC  H12R20693   5.824   7.124   5.211  0.5443 -0.0683  0.1593
  170DOPC  H12S20694   5.758   6.954   5.263  0.1086 -0.2515  0.4945
  170DOPC  C21320695   5.878   6.940   5.103  0.3025  0.0379 -0.5912
  170DOPC  H13R20696   5.880   6.831   5.126 -0.0004 -0.2059 -1.6262
  170DOPC  H13S20697   5.968   6.991   5.063 -1.5629  2.3468 -2.0708
  170DOPC  C21420698   5.772   6.964   4.995 -0.1343  0.7322  1.1096
  170DOPC  H14R20699   5.790   7.067   4.959 -1.5944  0.1485 -1.4729
  170DOPC  H14S20700   5.667   6.956   5.030 -0.0784  0.0733  1.1424
  170DOPC  C21520701   5.789   6.861   4.877  0.0662  0.6460  0.0264
  170DOPC  H15R20702   5.780   6.756   4.912  0.9907  0.4696 -0.2560
  170DOPC  H15S20703   5.891   6.863   4.833 -0.1660 -0.6619 -0.6324
  170DOPC  C21620704   5.692   6.883   4.763 -0.0640 -0.2077  0.2691
  170DOPC  H16R20705   5.717   6.971   4.700 -2.2456 -0.6558 -1.3385
  170DOPC  H16S20706   5.596   6.907   4.814 -0.3170  0.8051 -0.6456
  170DOPC  C21720707   5.671   6.757   4.673 -0.5624  0.8155  0.1450
  170DOPC  H17R20708   5.589   6.768   4.599 -2.0265  1.2517  1.7521
  170DOPC  H17S20709   5.644   6.670   4.737 -2.9068  1.4306  0.0781
  170DOPC  C21820710   5.801   6.724   4.590 -0.2282 -0.6287 -0.6229
  170DOPC  H18R20711   5.832   6.822   4.546  1.8368 -0.9704 -0.0439
  170DOPC  H18S20712   5.784   6.652   4.507  1.4585 -0.9283 -0.7463
  170DOPC  H18T20713   5.890   6.687   4.645 -0.4857 -0.0596  0.1857
  170DOPC   C3320714   6.267   7.154   6.036 -0.8079  0.0770 -0.0803
  170DOPC   H3X20715   6.331   7.078   6.087  0.3852  1.8816  1.2600
  170DOPC   H3Y20716   6.307   7.250   6.075  3.1282 -1.3309 -0.2211
  170DOPC   C3420717   6.307   7.160   5.887 -0.1759 -0.5146  0.3615
  170DOPC   H4X20718   6.366   7.069   5.865 -1.9737 -1.1681 -2.2716
  170DOPC   H4Y20719   6.368   7.250   5.861 -0.4170 -0.5120 -0.2172
  170DOPC   C3520720   6.187   7.165   5.790  0.2255  0.7830 -0.0348
  170DOPC   H5X20721   6.127   7.258   5.797  0.6585  0.9768  1.2200
  170DOPC   H5Y20722   6.112   7.091   5.823 -0.8672  1.8111 -0.1330
  170DOPC   C3620723   6.238   7.135   5.644  0.2729  0.2445 -0.2559
  170DOPC   H6X20724   6.323   7.064   5.649  0.9967  1.0964 -0.3226
  170DOPC   H6Y20725   6.152   7.094   5.587  1.2718 -0.0078 -1.6231
  170DOPC   C3720726   6.285   7.263   5.569  0.6192 -0.1908  1.0354
  170DOPC   H7X20727   6.377   7.308   5.611  0.0730  1.2098  0.7680
  170DOPC   H7Y20728   6.308   7.223   5.468 -1.5396  0.4772  0.2105
  170DOPC   C3820729   6.173   7.360   5.549 -1.0872 -0.1087 -0.3880
  170DOPC   H8X20730   6.136   7.400   5.645 -0.0858 -2.0111  0.8565
  170DOPC   H8Y20731   6.096   7.309   5.487 -1.7449 -0.7297  0.9190
  170DOPC   C3920732   6.225   7.469   5.461 -0.0375 -0.0261 -0.2205
  170DOPC   H9X20733   6.200   7.454   5.355 -1.4901  1.3907 -0.1151
  170DOPC  C31020734   6.292   7.579   5.487 -0.4690 -0.5199 -0.0731
  170DOPC  H10X20735   6.309   7.650   5.405  0.4067  0.0540  0.5977
  170DOPC  C31120736   6.347   7.624   5.627 -0.0782 -0.0098  1.0783
  170DOPC  H11X20737   6.350   7.540   5.700  0.0384 -0.3132  0.7224
  170DOPC  H11Y20738   6.275   7.703   5.660 -0.1276 -0.0460  1.0579
  170DOPC  C31220739   6.479   7.702   5.631 -0.1270 -0.8204  0.0358
  170DOPC  H12X20740   6.555   7.628   5.597 -0.6776 -0.7102 -1.5488
  170DOPC  H12Y20741   6.493   7.741   5.734  0.2332 -3.9315  1.2655
  170DOPC  C31320742   6.491   7.811   5.525 -0.0462 -0.1641 -0.3116
  170DOPC  H13X20743   6.510   7.761   5.428 -1.8471 -2.6397  0.4975
  170DOPC  H13Y20744   6.402   7.878   5.524 -1.3017 -1.7348  0.3987
  170DOPC  C31420745   6.624   7.883   5.556 -0.1684  0.0644  0.0244
  170DOPC  H14X20746   6.604   7.964   5.630  1.5354  0.2139  0.3670
  170DOPC  H14Y20747   6.705   7.823   5.603 -0.3003  0.9898  1.5108
  170DOPC  C31520748   6.686   7.947   5.431  1.0598 -0.2155 -0.7153
  170DOPC  H15X20749   6.730   7.875   5.359 -1.2101  0.2878 -2.7259
  170DOPC  H15Y20750   6.771   8.006   5.471 -0.3126 -0.7368  3.5304
  170DOPC  C31620751   6.590   8.025   5.347  0.1309  0.0937  0.4867
  170DOPC  H16X20752   6.495   7.966   5.342  1.2369 -1.9479  2.0576
  170DOPC  H16Y20753   6.578   8.127   5.388 -0.9630  0.1462  0.0782
  170DOPC  C31720754   6.637   8.036   5.202 -0.4856 -0.2412  0.2674
  170DOPC  H17X20755   6.737   8.086   5.204  0.8411 -2.7469  2.9086
  170DOPC  H17Y20756   6.652   7.932   5.167 -0.2646  0.1136 -0.7142
  170DOPC  C31820757   6.547   8.117   5.106 -0.2424  0.2722  0.5706
  170DOPC  H18X20758   6.533   8.221   5.141 -0.1592  0.5901 -0.3218
  170DOPC  H18Y20759   6.604   8.124   5.012  0.3112 -0.2693  0.8588
  170DOPC  H18Z20760   6.448   8.072   5.082 -0.4550  0.7049  0.6230
  171DOPC     N20761   4.119   3.915   2.758 -0.0765 -0.2169 -0.3790
  171DOPC   C1220762   4.003   3.818   2.764 -0.0858  0.2340  0.3086
  171DOPC  H12A20763   4.027   3.742   2.691  3.1990  0.3863  1.0726
  171DOPC  H12B20764   3.920   3.872   2.721  1.6055  0.3134 -3.1999
  171DOPC   C1320765   4.110   4.018   2.867 -0.2118  0.3904  0.1500
  171DOPC  H13A20766   4.018   4.074   2.861  1.0584  2.6163  0.4307
  171DOPC  H13B20767   4.121   3.978   2.967  0.0283  0.6438  0.2286
  171DOPC  H13C20768   4.188   4.092   2.858  0.6631 -0.7075 -2.0451
  171DOPC   C1420769   4.122   3.994   2.630  0.2073  0.8148  0.8445
  171DOPC  H14A20770   4.225   4.016   2.607  0.0286  2.6080  1.5907
  171DOPC  H14B20771   4.092   3.935   2.545  2.5910 -1.8606  1.7059
  171DOPC  H14C20772   4.075   4.091   2.640 -0.7680  0.5804 -1.0565
  171DOPC   C1520773   4.250   3.838   2.767  0.2479 -0.2185  0.5567
  171DOPC  H15A20774   4.267   3.782   2.676  2.8214  3.6507 -1.6077
  171DOPC  H15B20775   4.252   3.766   2.848  4.3277 -3.3779 -1.9587
  171DOPC  H15C20776   4.337   3.900   2.777  0.1610  0.1745 -0.9633
  171DOPC   C1120777   3.975   3.733   2.890  0.5666 -0.5617 -0.0284
  171DOPC  H11A20778   3.934   3.799   2.969  0.6311  0.8963 -1.1798
  171DOPC  H11B20779   3.892   3.662   2.869 -0.5550  0.6724  0.1644
  171DOPC     P20780   4.110   3.514   2.877 -0.4812 -0.0359 -0.0134
  171DOPC   O1320781   4.124   3.514   2.727  0.4763  0.4025 -0.3105
  171DOPC   O1420782   3.996   3.435   2.926  0.6882  0.1834 -0.4746
  171DOPC   O1220783   4.098   3.664   2.927 -0.1022 -0.4486  0.3081
  171DOPC   O1120784   4.248   3.466   2.940  0.3068  0.1843  0.2772
  171DOPC    C120785   4.312   3.519   3.054  0.0069  0.0120 -0.1293
  171DOPC    HA20786   4.331   3.627   3.042  0.2374 -0.0081  0.0530
  171DOPC    HB20787   4.415   3.477   3.053 -0.4859 -1.2572  0.0026
  171DOPC    C220788   4.250   3.473   3.188  0.2212  0.4856 -0.6201
  171DOPC    HS20789   4.238   3.362   3.181  3.2313  0.1024 -0.9475
  171DOPC   O2120790   4.128   3.545   3.213  0.6794  0.0332 -0.4239
  171DOPC   C2120791   4.036   3.468   3.270 -0.4343 -0.3502  0.7472
  171DOPC   O2220792   4.041   3.350   3.298  0.4472  0.1448 -0.3869
  171DOPC   C2220793   3.914   3.557   3.303 -0.4592  0.0787  0.4738
  171DOPC   H2R20794   3.839   3.545   3.221  1.3304  1.0160 -1.4007
  171DOPC   H2S20795   3.951   3.660   3.286 -1.6273  0.5059  0.4482
  171DOPC    C320796   4.357   3.494   3.292 -0.2727  0.1678 -0.4067
  171DOPC    HX20797   4.383   3.602   3.297 -3.4156  0.9230  2.9440
  171DOPC    HY20798   4.441   3.429   3.256 -1.1240 -1.0915 -0.1816
  171DOPC   O3120799   4.313   3.449   3.421  0.2625  0.2814  0.0729
  171DOPC   C3120800   4.339   3.320   3.457 -0.0489 -0.3617 -0.4811
  171DOPC   O3220801   4.421   3.244   3.411 -0.5183  0.4137 -0.3451
  171DOPC   C3220802   4.263   3.311   3.593  0.1412 -0.0996  0.2225
  171DOPC   H2X20803   4.263   3.409   3.646  2.3660  2.0573 -3.3496
  171DOPC   H2Y20804   4.164   3.277   3.557  0.9500 -0.9435 -1.3132
  171DOPC   C2320805   3.847   3.558   3.446  0.0856 -0.4813 -0.5949
  171DOPC   H3R20806   3.785   3.465   3.446  1.3706 -1.3597 -1.1430
  171DOPC   H3S20807   3.787   3.651   3.455  0.5329 -0.2966  0.6464
  171DOPC   C2420808   3.945   3.555   3.561 -0.2036  0.0843  0.0564
  171DOPC   H4R20809   3.989   3.652   3.594  0.3063 -0.7482  1.9452
  171DOPC   H4S20810   4.028   3.492   3.525 -0.4738  0.2759 -0.9284
  171DOPC   C2520811   3.887   3.480   3.684  0.1164  0.0169  0.1520
  171DOPC   H5R20812   3.832   3.398   3.633 -0.8667  0.9655 -0.3600
  171DOPC   H5S20813   3.812   3.550   3.728 -1.4395  0.5024 -3.0045
  171DOPC   C2620814   3.978   3.411   3.790  0.1899 -0.3736 -0.3410
  171DOPC   H6R20815   4.048   3.485   3.835  0.8619 -0.7665 -0.7359
  171DOPC   H6S20816   4.032   3.333   3.734 -1.5415 -1.7568 -0.1820
  171DOPC   C2720817   3.889   3.351   3.895  0.1219  0.0076 -0.0075
  171DOPC   H7R20818   3.815   3.292   3.837  0.2263  2.1727 -2.5556
  171DOPC   H7S20819   3.836   3.424   3.961  3.3168  1.8741  0.6910
  171DOPC   C2820820   3.955   3.254   4.000 -0.3140 -0.2312  0.0928
  171DOPC   H8R20821   4.042   3.308   4.044 -0.6662 -0.0470  0.5767
  171DOPC   H8S20822   3.993   3.157   3.963  0.1319 -0.5793  1.3846
  171DOPC   C2920823   3.859   3.213   4.114  0.1202  0.6799  0.2674
  171DOPC   H9R20824   3.760   3.190   4.072 -0.1175  3.4396 -0.8588
  171DOPC  C21020825   3.895   3.213   4.242  0.1969  0.4159 -0.4614
  171DOPC  H10R20826   3.817   3.171   4.307 -0.9220  1.5559 -1.0205
  171DOPC  C21120827   4.028   3.257   4.310  0.5502  0.7746 -0.0637
  171DOPC  H11R20828   4.115   3.260   4.242 -0.0073  1.9164 -0.7509
  171DOPC  H11S20829   4.048   3.189   4.396 -0.2630  1.0326  0.3452
  171DOPC  C21220830   4.016   3.398   4.369 -0.4761  0.1703  0.4743
  171DOPC  H12R20831   3.920   3.401   4.427 -1.2285 -1.7941 -0.6071
  171DOPC  H12S20832   4.002   3.459   4.277 -1.2002 -2.2717 -1.1071
  171DOPC  C21320833   4.139   3.435   4.454 -0.6727 -0.6310  0.6850
  171DOPC  H13R20834   4.228   3.389   4.408 -2.4318 -1.7260 -1.8310
  171DOPC  H13S20835   4.118   3.400   4.558 -0.6618  0.7205  1.1622
  171DOPC  C21420836   4.171   3.587   4.446 -0.2181 -0.3768  0.6444
  171DOPC  H14R20837   4.085   3.657   4.455 -0.6284 -0.9900  1.6855
  171DOPC  H14S20838   4.207   3.613   4.345 -0.7595  0.2595  0.6049
  171DOPC  C21520839   4.261   3.627   4.568  0.7783  0.0857  0.0527
  171DOPC  H15R20840   4.340   3.549   4.570  0.7589  0.0703  0.2443
  171DOPC  H15S20841   4.208   3.612   4.664 -0.3353  0.9322 -0.4102
  171DOPC  C21620842   4.327   3.759   4.547  0.1142  0.0840 -0.0315
  171DOPC  H16R20843   4.248   3.834   4.526  1.6051  0.9078 -3.3179
  171DOPC  H16S20844   4.378   3.765   4.448 -0.4797  1.0150 -0.2885
  171DOPC  C21720845   4.409   3.809   4.664  0.6236  0.6777 -0.2189
  171DOPC  H17R20846   4.430   3.916   4.643 -0.4724  0.7097 -1.2449
  171DOPC  H17S20847   4.501   3.748   4.676 -0.4915 -0.8296  1.0271
  171DOPC  C21820848   4.344   3.803   4.797 -0.5211 -0.0491  0.3489
  171DOPC  H18R20849   4.252   3.865   4.798 -2.4232 -2.5638 -2.4553
  171DOPC  H18S20850   4.416   3.845   4.871 -1.5085  2.3086  0.0339
  171DOPC  H18T20851   4.318   3.699   4.826  1.9968 -0.7775  0.2854
  171DOPC   C3320852   4.329   3.206   3.678 -0.4279  1.0215 -0.6851
  171DOPC   H3X20853   4.437   3.232   3.685 -0.2156 -0.2344  2.6313
  171DOPC   H3Y20854   4.331   3.104   3.634  1.2718  0.8715 -0.3512
  171DOPC   C3420855   4.262   3.194   3.814  0.8636 -0.4224 -0.1324
  171DOPC   H4X20856   4.155   3.162   3.812 -0.1471  2.6702 -1.7093
  171DOPC   H4Y20857   4.266   3.298   3.850  0.2144 -0.1517 -0.8093
  171DOPC   C3520858   4.352   3.111   3.904 -0.7081 -0.3579 -0.5129
  171DOPC   H5X20859   4.446   3.168   3.884 -1.4410  0.2262 -2.4723
  171DOPC   H5Y20860   4.368   3.005   3.873  1.8514  0.1020 -1.0416
  171DOPC   C3620861   4.320   3.123   4.052  0.0563 -0.3904  0.5223
  171DOPC   H6X20862   4.313   3.227   4.091 -1.8034 -0.3134  0.0567
  171DOPC   H6Y20863   4.220   3.080   4.076 -0.9795  1.3068 -0.4977
  171DOPC   C3720864   4.414   3.033   4.139  0.7542 -0.4309  0.4573
  171DOPC   H7X20865   4.391   2.928   4.109  2.6943 -0.5402 -0.7635
  171DOPC   H7Y20866   4.521   3.056   4.124  0.1483  2.3244 -0.0957
  171DOPC   C3820867   4.379   3.055   4.289  0.3441 -0.0209 -0.2596
  171DOPC   H8X20868   4.421   2.972   4.349 -2.4779 -1.6939 -0.3856
  171DOPC   H8Y20869   4.270   3.032   4.294  0.6649 -1.5293  0.6689
  171DOPC   C3920870   4.409   3.186   4.348 -0.2548 -0.2994 -0.0916
  171DOPC   H9X20871   4.398   3.272   4.281  1.6221  1.3127  1.5219
  171DOPC  C31020872   4.454   3.217   4.468 -0.0854  0.3373 -0.3469
  171DOPC  H10X20873   4.456   3.322   4.500 -0.7182  0.0341  0.7014
  171DOPC  C31120874   4.501   3.120   4.580  0.5173 -0.0787  0.0655
  171DOPC  H11X20875   4.588   3.176   4.621 -0.3658  3.2413 -2.1088
  171DOPC  H11Y20876   4.539   3.025   4.536  1.3849  0.5557 -0.5985
  171DOPC  C31220877   4.396   3.083   4.688 -0.4512 -0.4683  0.5971
  171DOPC  H12X20878   4.453   3.016   4.756  0.7385 -1.0403 -0.8931
  171DOPC  H12Y20879   4.327   3.015   4.634  0.5986 -1.2792  0.2217
  171DOPC  C31320880   4.319   3.198   4.752  0.9543  0.0223 -0.2584
  171DOPC  H13X20881   4.265   3.259   4.677 -0.7376  0.3064  1.1169
  171DOPC  H13Y20882   4.237   3.172   4.823  1.5032 -1.3566 -0.0952
  171DOPC  C31420883   4.412   3.289   4.837 -0.2563 -0.2878  0.6834
  171DOPC  H14X20884   4.480   3.230   4.903 -0.8882  1.0986  2.6435
  171DOPC  H14Y20885   4.479   3.337   4.763 -2.0769 -0.2382 -1.0084
  171DOPC  C31520886   4.347   3.395   4.920  0.3269 -0.5338  0.3480
  171DOPC  H15X20887   4.281   3.350   4.997 -0.3591  0.6284  0.4586
  171DOPC  H15Y20888   4.288   3.452   4.846  1.2683  1.8391  1.3275
  171DOPC  C31620889   4.448   3.504   4.971  0.3082  0.9193  0.1294
  171DOPC  H16X20890   4.546   3.467   5.008 -0.1996  1.2570  1.9198
  171DOPC  H16Y20891   4.471   3.568   4.882  3.2934 -0.0235  0.1214
  171DOPC  C31720892   4.399   3.598   5.082  0.5225  0.3686  0.0336
  171DOPC  H17X20893   4.302   3.642   5.049  0.9865  0.1068 -1.7939
  171DOPC  H17Y20894   4.372   3.533   5.168 -1.6154  0.7312 -0.2991
  171DOPC  C31820895   4.496   3.705   5.131  0.6051 -0.0860  0.6626
  171DOPC  H18X20896   4.557   3.751   5.050  0.6685 -0.2905  0.5925
  171DOPC  H18Y20897   4.454   3.789   5.190  0.5784  1.9111 -1.9767
  171DOPC  H18Z20898   4.573   3.648   5.188 -0.4282 -2.4771 -0.1941
  172DOPC     N20899   3.183   5.250   2.823  0.0106 -0.7543  0.0667
  172DOPC   C1220900   3.321   5.191   2.845 -0.5988  0.1474 -0.5464
  172DOPC  H12A20901   3.388   5.264   2.890  1.0325 -1.9793  0.6576
  172DOPC  H12B20902   3.365   5.165   2.750  0.2508 -1.1241  0.1597
  172DOPC   C1320903   3.102   5.171   2.727 -1.2179 -0.3033  0.5063
  172DOPC  H13A20904   3.158   5.147   2.638  0.1543 -0.8937  1.4973
  172DOPC  H13B20905   3.074   5.072   2.758 -1.5403 -0.7866 -1.1817
  172DOPC  H13C20906   3.015   5.230   2.700 -0.0848  2.3623  2.2409
  172DOPC   C1420907   3.203   5.392   2.766  0.3546 -0.0030  0.5626
  172DOPC  H14A20908   3.268   5.381   2.681 -0.0645  3.0163 -0.2984
  172DOPC  H14B20909   3.111   5.433   2.725  1.4750  0.9215 -1.1358
  172DOPC  H14C20910   3.235   5.464   2.840  0.8067  1.4717 -1.0068
  172DOPC   C1520911   3.114   5.264   2.950 -0.2459 -0.1771  0.6217
  172DOPC  H15A20912   3.097   5.166   2.994  0.8256  0.3092  2.2261
  172DOPC  H15B20913   3.023   5.323   2.952  0.4565  0.9856  3.0054
  172DOPC  H15C20914   3.171   5.326   3.018 -0.6044  0.6926  0.1427
  172DOPC   C1120915   3.326   5.055   2.925  0.3262  0.3179 -0.6370
  172DOPC  H11A20916   3.250   4.981   2.893  0.8504 -0.9848  1.0047
  172DOPC  H11B20917   3.422   5.002   2.912  0.1830 -0.1510  0.1569
  172DOPC     P20918   3.418   5.147   3.147 -0.0209 -0.2637  0.0345
  172DOPC   O1320919   3.361   5.230   3.251  0.1951 -0.6523 -0.7949
  172DOPC   O1420920   3.512   5.216   3.054 -0.0323 -0.1034  0.5577
  172DOPC   O1220921   3.305   5.074   3.067 -0.9853  0.4778 -0.2700
  172DOPC   O1120922   3.496   5.025   3.213  0.0186  0.2733  0.7572
  172DOPC    C120923   3.425   4.919   3.281  0.4762  0.7188 -0.1909
  172DOPC    HA20924   3.462   4.821   3.244 -1.3299  0.2116 -0.7506
  172DOPC    HB20925   3.316   4.927   3.263  0.5906  1.7276 -0.4781
  172DOPC    C220926   3.462   4.934   3.432  0.0032  0.6059 -0.3197
  172DOPC    HS20927   3.429   4.837   3.474 -0.5042  0.6768 -0.5523
  172DOPC   O2120928   3.400   5.048   3.501  0.2949 -0.0283  0.1091
  172DOPC   C2120929   3.279   5.021   3.534 -0.2141  0.5889  0.3146
  172DOPC   O2220930   3.213   4.918   3.508 -0.4369 -0.6977  0.0451
  172DOPC   C2220931   3.227   5.141   3.603  0.6990  0.1828 -0.0702
  172DOPC   H2R20932   3.119   5.151   3.579  0.6861 -0.1245 -0.1450
  172DOPC   H2S20933   3.281   5.237   3.583  0.4436  0.1203 -1.1480
  172DOPC    C320934   3.618   4.962   3.445 -0.0860  0.8274  0.0299
  172DOPC    HX20935   3.631   5.060   3.394 -0.7925  1.5065  1.1220
  172DOPC    HY20936   3.679   4.890   3.386  0.0535 -0.3054  1.4946
  172DOPC   O3120937   3.656   4.973   3.581  0.3036  0.3183 -0.0520
  172DOPC   C3120938   3.693   4.858   3.640 -0.8571 -0.2455  0.3118
  172DOPC   O3220939   3.699   4.747   3.585 -0.0638 -0.1459 -0.0050
  172DOPC   C3220940   3.727   4.884   3.786  0.1317 -0.2493 -0.3663
  172DOPC   H2X20941   3.812   4.956   3.784 -0.1457  0.0647 -0.6709
  172DOPC   H2Y20942   3.635   4.928   3.829  0.2595 -1.1123  0.8627
  172DOPC   C2320943   3.236   5.127   3.760  0.9653 -0.1094  0.4653
  172DOPC   H3R20944   3.190   5.032   3.796  1.3776 -0.4774  0.0245
  172DOPC   H3S20945   3.178   5.205   3.814 -0.5760  0.6032 -2.0497
  172DOPC   C2420946   3.379   5.139   3.819  0.1031 -0.0446  0.5007
  172DOPC   H4R20947   3.451   5.060   3.786 -1.2325 -0.1111 -2.5502
  172DOPC   H4S20948   3.359   5.113   3.925 -2.4149 -1.4164 -0.2170
  172DOPC   C2520949   3.436   5.281   3.804  0.0971  0.0415 -0.0168
  172DOPC   H5R20950   3.380   5.357   3.863 -0.6222 -0.4887 -0.0098
  172DOPC   H5S20951   3.432   5.302   3.695 -0.9190 -2.2517 -0.4846
  172DOPC   C2620952   3.579   5.295   3.852 -0.7607  0.3864  0.0655
  172DOPC   H6R20953   3.617   5.399   3.841  0.3507  0.0846  0.9240
  172DOPC   H6S20954   3.641   5.236   3.781  1.5349 -0.2940  2.4800
  172DOPC   C2720955   3.615   5.251   3.998  0.2809  0.1903  0.1139
  172DOPC   H7R20956   3.600   5.142   4.011 -0.6892  0.0884 -1.6242
  172DOPC   H7S20957   3.540   5.292   4.069 -2.1840 -3.6433  0.0592
  172DOPC   C2820958   3.761   5.293   4.037 -1.0291  0.0562 -0.2193
  172DOPC   H8R20959   3.782   5.292   4.146 -1.3427  0.2209 -0.1565
  172DOPC   H8S20960   3.784   5.398   4.007  0.9314  0.4985  2.4365
  172DOPC   C2920961   3.857   5.199   3.969 -0.0738  0.5204 -0.0864
  172DOPC   H9R20962   3.846   5.210   3.860 -2.3400 -0.2583  0.0285
  172DOPC  C21020963   3.942   5.109   4.029 -0.6511 -0.5710  0.0972
  172DOPC  H10R20964   4.000   5.046   3.960 -0.6640  1.0996 -1.4797
  172DOPC  C21120965   3.959   5.092   4.180  1.0988 -0.8858  0.3233
  172DOPC  H11R20966   3.857   5.071   4.218  0.2565  1.9629 -0.1209
  172DOPC  H11S20967   4.007   5.182   4.224 -0.8631  0.5202 -0.2814
  172DOPC  C21220968   4.054   4.987   4.218 -0.1610  0.2606 -0.0951
  172DOPC  H12R20969   4.151   5.014   4.173 -1.5026  2.3837 -1.8999
  172DOPC  H12S20970   4.014   4.896   4.168  0.1690 -1.2207  2.1838
  172DOPC  C21320971   4.061   4.973   4.372  0.2707  0.0811  0.2222
  172DOPC  H13R20972   3.960   4.975   4.420 -0.5264  0.3429 -1.3728
  172DOPC  H13S20973   4.123   5.058   4.405  1.6844 -0.3317 -1.2534
  172DOPC  C21420974   4.131   4.839   4.414  0.3289 -0.1964 -0.4155
  172DOPC  H14R20975   4.228   4.819   4.364  0.9322  0.8403  0.2924
  172DOPC  H14S20976   4.055   4.765   4.382 -2.4404  1.4969  1.7124
  172DOPC  C21520977   4.137   4.829   4.564  0.4967 -0.5509 -0.6464
  172DOPC  H15R20978   4.036   4.848   4.606  0.6994  0.8470 -0.7460
  172DOPC  H15S20979   4.205   4.913   4.589  0.7283 -0.1497 -2.4807
  172DOPC  C21620980   4.185   4.689   4.614  0.2678  0.5681  0.2164
  172DOPC  H16R20981   4.279   4.674   4.557  0.5734  2.6684  0.0976
  172DOPC  H16S20982   4.110   4.610   4.591  0.1515  1.0596 -1.1622
  172DOPC  C21720983   4.207   4.681   4.762 -0.2846 -0.0328 -0.2178
  172DOPC  H17R20984   4.286   4.755   4.790 -3.0996  2.1847  2.5398
  172DOPC  H17S20985   4.242   4.578   4.781 -0.8496 -0.5686 -1.9263
  172DOPC  C21820986   4.070   4.705   4.844  0.0536  0.5849 -0.4268
  172DOPC  H18R20987   4.087   4.690   4.953 -2.3256 -0.9208 -0.1779
  172DOPC  H18S20988   3.988   4.643   4.800 -0.6302  2.3403 -1.7644
  172DOPC  H18T20989   4.043   4.811   4.825  2.2024  0.9394 -1.8069
  172DOPC   C3320990   3.753   4.756   3.872  0.1960 -0.6811 -0.0503
  172DOPC   H3X20991   3.837   4.698   3.827 -2.3040 -1.4253 -4.2504
  172DOPC   H3Y20992   3.661   4.698   3.853  0.1937 -0.3667 -1.0429
  172DOPC   C3420993   3.775   4.785   4.018  0.3450 -0.3206  0.3366
  172DOPC   H4X20994   3.694   4.856   4.046 -1.1787 -1.2026 -1.6226
  172DOPC   H4Y20995   3.873   4.832   4.039 -0.0190  0.0073  1.3586
  172DOPC   C3520996   3.760   4.659   4.106  0.5008 -0.0239  0.1200
  172DOPC   H5X20997   3.831   4.583   4.066  2.3710  1.8863 -0.3882
  172DOPC   H5Y20998   3.661   4.614   4.084  2.1614 -3.3947 -1.1262
  172DOPC   C3620999   3.780   4.680   4.255  0.3911 -0.5426 -0.5990
  172DOPC   H6X21000   3.813   4.583   4.299 -2.1124 -1.4542 -0.5690
  172DOPC   H6Y21001   3.857   4.758   4.273 -0.9556  0.1896  2.8081
  172DOPC   C3721002   3.652   4.728   4.330 -0.9923 -0.6579 -0.1317
  172DOPC   H7X21003   3.625   4.819   4.273 -0.8346 -2.3343 -3.0410
  172DOPC   H7Y21004   3.569   4.655   4.326  0.4633 -2.4137  0.4201
  172DOPC   C3821005   3.680   4.762   4.478 -0.4032 -0.4137 -0.2415
  172DOPC   H8X21006   3.782   4.803   4.487 -1.1249  2.0979 -2.3594
  172DOPC   H8Y21007   3.684   4.669   4.539  0.6187 -0.8466 -0.9408
  172DOPC   C3921008   3.580   4.858   4.538 -0.3825  0.3826  0.3086
  172DOPC   H9X21009   3.587   4.963   4.505  0.8177  0.8161  1.8270
  172DOPC  C31021010   3.470   4.828   4.610  1.0611  0.2207 -0.7241
  172DOPC  H10X21011   3.412   4.915   4.643  0.7880 -0.6478  1.1940
  172DOPC  C31121012   3.409   4.694   4.662 -0.2976 -0.3025  0.0370
  172DOPC  H11X21013   3.487   4.620   4.691  0.5381  0.5815  0.1099
  172DOPC  H11Y21014   3.352   4.644   4.581 -0.5971  1.1266 -0.6637
  172DOPC  C31221015   3.316   4.717   4.785 -0.6758  0.0560 -0.1454
  172DOPC  H12X21016   3.240   4.795   4.763  1.9029  3.4313  1.8537
  172DOPC  H12Y21017   3.382   4.753   4.866  0.1317  0.2631 -0.8841
  172DOPC  C31321018   3.250   4.593   4.831  0.5723 -0.2888 -0.4643
  172DOPC  H13X21019   3.172   4.566   4.756  0.2025  0.9108 -0.5354
  172DOPC  H13Y21020   3.335   4.521   4.829  1.6145  0.8868 -0.3302
  172DOPC  C31421021   3.200   4.602   4.974  0.2174 -0.1324 -0.0467
  172DOPC  H14X21022   3.270   4.666   5.033  1.9598 -0.9172 -1.1742
  172DOPC  H14Y21023   3.100   4.651   4.977  0.4033  0.3036 -0.5771
  172DOPC  C31521024   3.200   4.464   5.050  0.9343 -0.1052  0.3297
  172DOPC  H15X21025   3.189   4.488   5.157  0.9887 -0.5592  0.4409
  172DOPC  H15Y21026   3.291   4.402   5.032  0.4672 -1.2860  1.8205
  172DOPC  C31621027   3.078   4.382   5.014  0.0560 -0.5541 -0.0488
  172DOPC  H16X21028   2.986   4.433   5.049  0.2945 -0.8480  1.0559
  172DOPC  H16Y21029   3.063   4.364   4.906 -1.9413 -1.9534  0.3852
  172DOPC  C31721030   3.082   4.248   5.088 -0.6314 -0.3933  0.3326
  172DOPC  H17X21031   3.140   4.254   5.183  0.8009  1.0811 -0.5921
  172DOPC  H17Y21032   2.980   4.208   5.108 -0.4757 -1.3848 -0.7452
  172DOPC  C31821033   3.148   4.144   4.995  0.1078  0.3909 -0.1199
  172DOPC  H18X21034   3.257   4.166   4.990  0.3469 -0.6183  0.5004
  172DOPC  H18Y21035   3.125   4.045   5.039 -0.7664  1.0528  0.9570
  172DOPC  H18Z21036   3.103   4.135   4.893 -1.4548 -0.4059  0.5955
  173DOPC     N21037   2.164   4.226   2.914  0.1107  0.1322  0.2900
  173DOPC   C1221038   2.293   4.237   2.993 -0.0662 -0.2485 -0.6059
  173DOPC  H12A21039   2.259   4.217   3.094  0.0821 -1.0100 -0.7041
  173DOPC  H12B21040   2.319   4.341   3.001 -0.3511 -0.0682 -1.8673
  173DOPC   C1321041   2.055   4.309   2.978  0.0758 -0.2428  0.2941
  173DOPC  H13A21042   2.092   4.410   2.981 -0.5390 -0.0020  0.0712
  173DOPC  H13B21043   1.958   4.300   2.929  1.0012  0.1728 -1.7337
  173DOPC  H13C21044   2.032   4.283   3.080  1.3646  0.9035  0.8962
  173DOPC   C1421045   2.118   4.086   2.919  0.0577 -0.0882 -0.0191
  173DOPC  H14A21046   2.024   4.074   2.868  0.6824  1.8481 -1.7239
  173DOPC  H14B21047   2.185   4.023   2.862 -0.3432  0.7309 -1.4166
  173DOPC  H14C21048   2.113   4.061   3.024 -2.0506  0.3229  0.0301
  173DOPC   C1521049   2.193   4.270   2.772 -0.2460 -0.1186  0.3403
  173DOPC  H15A21050   2.248   4.362   2.761  3.3691 -2.3874 -2.6654
  173DOPC  H15B21051   2.103   4.280   2.713  0.9475 -1.7275 -1.8990
  173DOPC  H15C21052   2.249   4.200   2.713  0.7524  0.0606  1.0496
  173DOPC   C1121053   2.414   4.158   2.951 -0.0781 -0.2814  0.6710
  173DOPC  H11A21054   2.441   4.189   2.848  0.7761  0.3520  1.0791
  173DOPC  H11B21055   2.491   4.197   3.020  0.5294  1.2285 -0.7913
  173DOPC     P21056   2.484   3.914   3.039 -0.0365 -0.3155  0.2725
  173DOPC   O1321057   2.609   3.886   2.967 -0.0654 -0.0551  0.2247
  173DOPC   O1421058   2.398   3.798   3.066  0.2834  0.1414  0.1116
  173DOPC   O1221059   2.392   4.012   2.957 -0.1195 -0.1957  0.0335
  173DOPC   O1121060   2.525   3.989   3.178 -0.2778  0.1748  0.2366
  173DOPC    C121061   2.406   4.030   3.254 -0.2524  0.6925 -0.2108
  173DOPC    HA21062   2.328   3.951   3.245  2.0535 -1.5798 -2.1258
  173DOPC    HB21063   2.353   4.120   3.216 -0.6935  1.0476  1.2026
  173DOPC    C221064   2.433   4.046   3.410  0.2629  0.0794  0.3917
  173DOPC    HS21065   2.339   4.046   3.469 -0.8804 -2.5190 -1.2445
  173DOPC   O2121066   2.503   4.170   3.436  0.2361  0.2968  0.0604
  173DOPC   C2121067   2.432   4.275   3.438 -0.7662 -0.0984  0.5607
  173DOPC   O2221068   2.314   4.286   3.417  0.1930 -0.1223 -0.0972
  173DOPC   C2221069   2.535   4.386   3.462  0.2592 -0.7803 -0.5852
  173DOPC   H2R21070   2.473   4.473   3.490  1.0223 -0.1949 -0.6791
  173DOPC   H2S21071   2.582   4.404   3.362  0.7512 -0.3702 -0.2824
  173DOPC    C321072   2.528   3.937   3.469  0.0251  0.3973 -0.3477
  173DOPC    HX21073   2.631   3.962   3.434 -0.4546 -0.2337 -2.3833
  173DOPC    HY21074   2.498   3.847   3.410 -0.2320  1.1787 -1.4323
  173DOPC   O3121075   2.507   3.920   3.609 -0.0401  0.3339 -0.7463
  173DOPC   C3121076   2.600   3.969   3.692  0.1746 -0.1721 -0.1289
  173DOPC   O3221077   2.704   4.018   3.650  0.3395 -0.0107 -0.1885
  173DOPC   C3221078   2.550   3.963   3.841 -0.2604  0.7269  0.6871
  173DOPC   H2X21079   2.464   4.029   3.864 -0.5876  0.4267  0.3298
  173DOPC   H2Y21080   2.530   3.855   3.854 -1.2511  0.8805  0.5235
  173DOPC   C2321081   2.658   4.371   3.557 -0.2215  0.1005 -0.1349
  173DOPC   H3R21082   2.720   4.282   3.533  0.2394  0.5780 -0.7443
  173DOPC   H3S21083   2.610   4.354   3.656 -1.2947  0.0957 -0.6470
  173DOPC   C2421084   2.751   4.497   3.557 -0.4316  0.2680 -0.4650
  173DOPC   H4R21085   2.787   4.516   3.453  2.0630  1.1570  0.4859
  173DOPC   H4S21086   2.839   4.479   3.622  0.8537 -0.0191 -2.2110
  173DOPC   C2521087   2.685   4.628   3.605  0.1240 -0.5804 -0.9832
  173DOPC   H5R21088   2.633   4.619   3.702 -1.1976 -1.4707 -1.7429
  173DOPC   H5S21089   2.612   4.650   3.524 -1.9440  0.9383  1.1854
  173DOPC   C2621090   2.795   4.738   3.610 -0.1304 -0.3236  0.2956
  173DOPC   H6R21091   2.853   4.735   3.516 -0.3789  0.0855  0.1235
  173DOPC   H6S21092   2.875   4.724   3.686  0.9166  1.7359 -0.3256
  173DOPC   C2721093   2.745   4.887   3.616  0.6384 -0.6352 -0.3857
  173DOPC   H7R21094   2.678   4.882   3.705  0.3954 -0.2459 -0.5488
  173DOPC   H7S21095   2.683   4.917   3.529  1.5270 -0.1266 -0.8593
  173DOPC   C2821096   2.866   4.976   3.635 -0.8097 -0.5483  0.0453
  173DOPC   H8R21097   2.904   4.993   3.532  1.5731 -0.4390  0.8928
  173DOPC   H8S21098   2.946   4.929   3.696 -1.2140  0.7789  1.6764
  173DOPC   C2921099   2.830   5.113   3.687 -0.3818 -0.3602 -0.4379
  173DOPC   H9R21100   2.801   5.175   3.601 -3.2642 -0.6005  0.2414
  173DOPC  C21021101   2.859   5.173   3.807  0.9475  0.0393 -0.5934
  173DOPC  H10R21102   2.818   5.274   3.819 -2.0541 -1.1964  0.4666
  173DOPC  C21121103   2.910   5.112   3.933 -1.3111 -0.6649  0.4234
  173DOPC  H11R21104   3.015   5.148   3.945 -1.5584  0.2110 -0.0042
  173DOPC  H11S21105   2.934   5.005   3.916 -0.5267 -0.2430 -1.2970
  173DOPC  C21221106   2.830   5.122   4.065 -0.4984 -0.0776  0.0870
  173DOPC  H12R21107   2.898   5.091   4.147 -0.6159 -0.1497  0.1574
  173DOPC  H12S21108   2.747   5.048   4.059 -1.9014  1.2492  1.8886
  173DOPC  C21321109   2.783   5.270   4.092 -0.3804  0.7307  1.3600
  173DOPC  H13R21110   2.686   5.290   4.043 -0.9906 -2.3196  1.1580
  173DOPC  H13S21111   2.870   5.332   4.060 -1.3237  0.5319 -1.9707
  173DOPC  C21421112   2.742   5.296   4.238 -0.1855 -0.2302  0.0951
  173DOPC  H14R21113   2.700   5.398   4.254  0.7076 -0.0317  1.3905
  173DOPC  H14S21114   2.835   5.280   4.296 -1.0056 -3.4981  0.6704
  173DOPC  C21521115   2.645   5.197   4.297  0.6998  0.1519  0.1808
  173DOPC  H15R21116   2.700   5.116   4.349  0.8091  1.9048  2.9695
  173DOPC  H15S21117   2.583   5.151   4.216 -0.0978  1.3678  0.0799
  173DOPC  C21621118   2.541   5.265   4.386 -0.5351  0.2484  0.9029
  173DOPC  H16R21119   2.486   5.177   4.426 -1.6129  1.1776  1.5205
  173DOPC  H16S21120   2.481   5.325   4.314  1.3366 -0.6222 -1.5114
  173DOPC  C21721121   2.591   5.341   4.508  0.2629 -0.3911 -0.8050
  173DOPC  H17R21122   2.680   5.402   4.483 -0.7667  1.0267 -1.0811
  173DOPC  H17S21123   2.639   5.258   4.564  0.7778 -0.0208 -0.6848
  173DOPC  C21821124   2.473   5.411   4.572  0.2053  0.1388  0.5159
  173DOPC  H18R21125   2.380   5.350   4.577  0.6966 -0.5356  1.8124
  173DOPC  H18S21126   2.439   5.495   4.508 -0.3170  0.7221  1.5446
  173DOPC  H18T21127   2.496   5.453   4.672  0.3500 -0.2692  0.6566
  173DOPC   C3321128   2.657   3.994   3.949  0.3490 -0.5581 -0.3052
  173DOPC   H3X21129   2.672   4.103   3.962  1.3417 -0.8811  1.6772
  173DOPC   H3Y21130   2.758   3.953   3.927  0.0264 -1.4658 -0.1716
  173DOPC   C3421131   2.610   3.930   4.092 -0.2535 -0.4111 -0.0442
  173DOPC   H4X21132   2.661   3.833   4.110  0.5704 -0.3853 -1.9762
  173DOPC   H4Y21133   2.500   3.919   4.088 -0.1276 -2.3723  0.8199
  173DOPC   C3521134   2.644   4.031   4.205  0.4636  0.2432  0.1536
  173DOPC   H5X21135   2.557   4.098   4.225  1.9221  2.0486  0.8410
  173DOPC   H5Y21136   2.720   4.104   4.168  0.7153 -0.4199 -0.6682
  173DOPC   C3621137   2.693   3.969   4.332  0.1439  0.4868 -0.2563
  173DOPC   H6X21138   2.608   3.932   4.392 -0.2066  1.5604 -0.0734
  173DOPC   H6Y21139   2.763   3.888   4.302 -0.2074  0.9241 -2.4306
  173DOPC   C3721140   2.760   4.079   4.421  0.8015  0.7797 -0.4811
  173DOPC   H7X21141   2.833   4.130   4.355 -0.5694 -0.4347 -3.0921
  173DOPC   H7Y21142   2.680   4.151   4.449 -1.0576 -0.4774 -2.2801
  173DOPC   C3821143   2.825   4.026   4.543  0.3598  0.0520  0.2286
  173DOPC   H8X21144   2.874   4.105   4.604  1.5587 -1.5070  1.3633
  173DOPC   H8Y21145   2.911   3.965   4.508  1.7989  1.2487  1.5318
  173DOPC   C3921146   2.738   3.934   4.629 -0.9092  0.0227  0.2219
  173DOPC   H9X21147   2.702   3.842   4.581  1.6530 -1.7144  1.3972
  173DOPC  C31021148   2.685   3.965   4.745  0.0886 -0.2477 -0.3571
  173DOPC  H10X21149   2.621   3.894   4.800 -1.2343  1.3912  0.3235
  173DOPC  C31121150   2.716   4.085   4.820 -0.1626 -0.4122 -0.4061
  173DOPC  H11X21151   2.622   4.143   4.836  1.4790  1.7805  2.3035
  173DOPC  H11Y21152   2.777   4.165   4.772  0.0921  0.0498  0.6384
  173DOPC  C31221153   2.769   4.047   4.963 -0.6657  0.1221 -0.0568
  173DOPC  H12X21154   2.803   4.134   5.023  0.3267 -1.0023  1.0675
  173DOPC  H12Y21155   2.852   3.977   4.938  0.6805  1.5373  0.3270
  173DOPC  C31321156   2.670   3.973   5.058 -0.9435 -0.2488  0.1419
  173DOPC  H13X21157   2.581   4.040   5.063 -0.6339  0.5819 -3.0504
  173DOPC  H13Y21158   2.634   3.881   5.009 -2.4760  0.8099 -0.8295
  173DOPC  C31421159   2.727   3.954   5.204 -0.1132  0.6089  0.6371
  173DOPC  H14X21160   2.818   3.890   5.197 -1.4419 -1.5239  1.8363
  173DOPC  H14Y21161   2.750   4.049   5.256 -1.5945 -0.1228  2.7683
  173DOPC  C31521162   2.638   3.879   5.304 -0.4994 -0.4095 -0.3186
  173DOPC  H15X21163   2.606   3.796   5.238 -2.1860  1.7313 -2.4046
  173DOPC  H15Y21164   2.542   3.933   5.319 -0.4688  0.2318 -2.1849
  173DOPC  C31621165   2.705   3.855   5.436 -0.9114 -0.2523  0.2526
  173DOPC  H16X21166   2.668   3.759   5.479  2.2543 -0.8280  2.0038
  173DOPC  H16Y21167   2.816   3.850   5.431 -0.7415  2.1258  0.5497
  173DOPC  C31721168   2.677   3.973   5.532 -0.3301  0.1157 -0.6468
  173DOPC  H17X21169   2.734   4.056   5.485 -1.0508  2.4131  2.2315
  173DOPC  H17Y21170   2.570   4.004   5.532 -0.6261 -0.7383 -2.6473
  173DOPC  C31821171   2.726   3.946   5.677  0.2287 -0.6149 -0.0620
  173DOPC  H18X21172   2.634   3.952   5.739  0.3611  2.1195  0.0122
  173DOPC  H18Y21173   2.773   3.845   5.676  1.0303 -0.2496 -0.9831
  173DOPC  H18Z21174   2.796   4.024   5.713 -0.8122 -0.3259  1.3974
  174DOPC     N21175   5.180   2.228   2.535  0.6623  0.5153  0.5482
  174DOPC   C1221176   5.197   2.259   2.683  0.5719 -0.0801  0.2115
  174DOPC  H12A21177   5.143   2.193   2.750 -0.4596 -1.2071 -1.6730
  174DOPC  H12B21178   5.141   2.349   2.706  0.2165 -0.2641  0.0657
  174DOPC   C1321179   5.255   2.105   2.500  0.2500 -0.2603 -0.0484
  174DOPC  H13A21180   5.265   2.098   2.393  1.4410 -1.4671  0.1139
  174DOPC  H13B21181   5.351   2.102   2.548  1.0220 -1.1373 -1.5664
  174DOPC  H13C21182   5.208   2.011   2.526  1.0860 -0.5905  0.3112
  174DOPC   C1421183   5.245   2.336   2.448 -0.3949  0.3173 -0.6081
  174DOPC  H14A21184   5.349   2.350   2.470 -0.9923  1.6989  1.7541
  174DOPC  H14B21185   5.241   2.320   2.341  1.7109 -2.3034 -0.3735
  174DOPC  H14C21186   5.201   2.433   2.472  3.0583  1.3742  2.3211
  174DOPC   C1521187   5.034   2.216   2.490 -0.0659  0.3423 -0.0862
  174DOPC  H15A21188   4.974   2.161   2.562  0.2770 -0.4596 -0.3926
  174DOPC  H15B21189   5.031   2.173   2.391 -0.2954  1.3524 -0.5293
  174DOPC  H15C21190   4.993   2.315   2.480 -0.9814  0.0193  0.3874
  174DOPC   C1121191   5.332   2.298   2.741  0.8738 -0.2494  0.1213
  174DOPC  H11A21192   5.322   2.303   2.851  2.8821 -0.4277  0.3499
  174DOPC  H11B21193   5.418   2.229   2.723  1.7993  1.6496 -3.6523
  174DOPC     P21194   5.296   2.558   2.755 -0.0662 -0.2773  0.0293
  174DOPC   O1321195   5.158   2.536   2.802 -0.0587 -0.6719  0.1663
  174DOPC   O1421196   5.322   2.664   2.655  0.2593  0.7754  0.5918
  174DOPC   O1221197   5.370   2.427   2.693 -0.2259 -0.1825  0.2389
  174DOPC   O1121198   5.384   2.581   2.887 -0.2427  0.0905  0.8280
  174DOPC    C121199   5.528   2.583   2.881  0.7635 -0.0042 -0.6311
  174DOPC    HA21200   5.562   2.688   2.890  0.5147 -0.1327  3.8247
  174DOPC    HB21201   5.571   2.538   2.789  2.0441 -0.1222  0.0102
  174DOPC    C221202   5.588   2.498   2.999 -0.0048  0.2860 -0.5054
  174DOPC    HS21203   5.577   2.392   2.968  2.1149  0.8239 -3.5189
  174DOPC   O2121204   5.525   2.531   3.124 -0.7140  0.4771  0.1383
  174DOPC   C2121205   5.528   2.448   3.224  0.0801 -0.1932 -0.8937
  174DOPC   O2221206   5.594   2.348   3.226 -0.1447  0.9756 -0.1757
  174DOPC   C2221207   5.431   2.490   3.333 -0.0063  0.9991 -0.6226
  174DOPC   H2R21208   5.331   2.498   3.286  0.5373  0.0382 -2.0204
  174DOPC   H2S21209   5.461   2.585   3.382 -0.2140 -0.0633  1.6510
  174DOPC    C321210   5.738   2.526   3.014  0.5871  0.6209  0.1300
  174DOPC    HX21211   5.745   2.632   3.046  0.8090  0.3413  1.0299
  174DOPC    HY21212   5.782   2.512   2.913  1.2465 -0.4365  0.5514
  174DOPC   O3121213   5.805   2.437   3.107 -0.2615 -0.0265 -0.3215
  174DOPC   C3121214   5.930   2.472   3.130 -0.2535 -0.1079 -0.4375
  174DOPC   O3221215   5.991   2.566   3.079  0.1192  0.1250  0.1541
  174DOPC   C3221216   5.996   2.367   3.220  0.2760 -0.7935 -0.1741
  174DOPC   H2X21217   5.946   2.379   3.319 -1.0857  1.8702 -1.1161
  174DOPC   H2Y21218   5.969   2.269   3.175 -0.1968 -0.8244  0.1705
  174DOPC   C2321219   5.415   2.381   3.447 -0.0627 -0.0790  0.2967
  174DOPC   H3R21220   5.514   2.366   3.495  1.1999  2.6304 -1.2061
  174DOPC   H3S21221   5.389   2.280   3.409 -0.6981  0.4246 -0.6677
  174DOPC   C2421222   5.328   2.426   3.561 -0.0901 -0.1607  0.1635
  174DOPC   H4R21223   5.356   2.530   3.588  1.3626 -0.4827 -0.0351
  174DOPC   H4S21224   5.341   2.353   3.644  0.6569  1.8068  1.8575
  174DOPC   C2521225   5.174   2.424   3.539  0.3133  1.1157  0.0540
  174DOPC   H5R21226   5.136   2.324   3.508 -0.4280  0.8871  1.6241
  174DOPC   H5S21227   5.143   2.497   3.462  1.8739  0.4294 -1.2717
  174DOPC   C2621228   5.105   2.476   3.666 -0.1901 -0.1238 -0.2175
  174DOPC   H6R21229   5.140   2.580   3.685 -2.4550  0.6449  0.1366
  174DOPC   H6S21230   5.120   2.417   3.759 -0.7310  1.1326  0.6913
  174DOPC   C2721231   4.951   2.486   3.650 -0.3555 -0.1831  0.1446
  174DOPC   H7R21232   4.906   2.396   3.603 -2.0575  0.3768  0.6163
  174DOPC   H7S21233   4.922   2.558   3.570 -1.3350 -0.3476  0.3309
  174DOPC   C2821234   4.876   2.527   3.780  0.2414  0.2606 -0.2043
  174DOPC   H8R21235   4.771   2.546   3.751  0.1284 -1.1795 -0.8510
  174DOPC   H8S21236   4.920   2.625   3.810  1.5776 -0.8996  1.8748
  174DOPC   C2921237   4.879   2.430   3.894 -0.1806  0.4119 -0.2294
  174DOPC   H9R21238   4.824   2.339   3.865  0.5972  0.1734 -1.0424
  174DOPC  C21021239   4.950   2.450   3.996 -0.3176 -0.2469 -0.5052
  174DOPC  H10R21240   4.937   2.378   4.079 -2.0272 -1.8478 -2.0765
  174DOPC  C21121241   5.044   2.564   4.023  0.0432 -0.5742  0.4695
  174DOPC  H11R21242   4.995   2.655   4.063  2.2944  1.0503 -0.2864
  174DOPC  H11S21243   5.093   2.584   3.925 -0.0225 -0.0225  0.5483
  174DOPC  C21221244   5.162   2.535   4.117 -0.1584  0.4537  0.0608
  174DOPC  H12R21245   5.239   2.613   4.100  2.5319 -2.0577 -0.0251
  174DOPC  H12S21246   5.206   2.438   4.089 -0.4466 -0.2137  1.7907
  174DOPC  C21321247   5.130   2.529   4.264 -0.4216 -0.1063 -0.1153
  174DOPC  H13R21248   5.064   2.441   4.285 -0.4663  0.4524  2.3442
  174DOPC  H13S21249   5.089   2.628   4.293  0.5984  0.1775  0.4055
  174DOPC  C21421250   5.255   2.512   4.349 -0.0946  0.3028  0.4863
  174DOPC  H14R21251   5.328   2.591   4.322  0.6821  0.7874  3.6404
  174DOPC  H14S21252   5.301   2.415   4.321  1.1989  1.3130 -1.0638
  174DOPC  C21521253   5.232   2.504   4.501 -0.2462  0.6728 -0.1589
  174DOPC  H15R21254   5.152   2.426   4.504 -0.1523  0.2747 -3.5483
  174DOPC  H15S21255   5.191   2.599   4.540  1.3418  0.3397  2.5788
  174DOPC  C21621256   5.358   2.473   4.572  0.2400 -0.1490  0.8613
  174DOPC  H16R21257   5.435   2.549   4.546 -0.6425  0.5375  0.2046
  174DOPC  H16S21258   5.393   2.371   4.543 -0.5538 -0.3762  0.6707
  174DOPC  C21721259   5.336   2.466   4.721 -0.5495 -0.4693  0.2582
  174DOPC  H17R21260   5.300   2.567   4.751 -0.7398 -0.1747 -0.8961
  174DOPC  H17S21261   5.435   2.459   4.770 -0.0477 -0.8816 -0.7954
  174DOPC  C21821262   5.240   2.354   4.768 -0.5857 -0.1079 -0.7682
  174DOPC  H18R21263   5.299   2.261   4.756 -1.4534 -1.0117  1.5378
  174DOPC  H18S21264   5.145   2.348   4.711 -1.4757 -1.3536  0.7873
  174DOPC  H18T21265   5.215   2.367   4.875 -0.3168  0.6649 -0.7870
  174DOPC   C3321266   6.144   2.390   3.227  0.0293 -0.3489 -0.1756
  174DOPC   H3X21267   6.162   2.499   3.215  0.6118 -0.5307 -1.1407
  174DOPC   H3Y21268   6.198   2.335   3.147 -0.4546 -0.1377 -0.6503
  174DOPC   C3421269   6.201   2.346   3.366 -0.0807 -0.6261  0.5200
  174DOPC   H4X21270   6.180   2.240   3.390 -0.7533 -0.1714  2.0502
  174DOPC   H4Y21271   6.152   2.405   3.447  1.8914 -0.1943  1.4578
  174DOPC   C3521272   6.352   2.361   3.375 -0.1466  0.8119  0.1581
  174DOPC   H5X21273   6.397   2.456   3.337  1.3289  0.1379  0.1600
  174DOPC   H5Y21274   6.388   2.275   3.315 -0.5087  0.7470  0.0297
  174DOPC   C3621275   6.407   2.334   3.519 -0.1341 -0.1603  0.4061
  174DOPC   H6X21276   6.363   2.410   3.587  0.3324  0.5689 -0.0968
  174DOPC   H6Y21277   6.351   2.242   3.547 -0.9391  0.0246 -0.5518
  174DOPC   C3721278   6.559   2.307   3.544 -0.8273  0.2556  0.6996
  174DOPC   H7X21279   6.585   2.241   3.458  1.4114  1.4475  0.3743
  174DOPC   H7Y21280   6.610   2.406   3.543 -0.1158 -0.1027  0.0209
  174DOPC   C3821281   6.600   2.224   3.666 -0.1643  0.2048  0.2372
  174DOPC   H8X21282   6.539   2.131   3.669 -1.6721  1.1204  3.7470
  174DOPC   H8Y21283   6.566   2.268   3.762  0.5715 -1.9504  1.5683
  174DOPC   C3921284   6.751   2.195   3.666 -0.1002  0.2134 -0.7034
  174DOPC   H9X21285   6.804   2.197   3.569 -0.8166  1.4743 -1.0956
  174DOPC  C31021286   6.828   2.168   3.773 -0.1684  0.5485  0.3570
  174DOPC  H10X21287   6.931   2.133   3.754 -0.7564 -1.0213 -0.0715
  174DOPC  C31121288   6.782   2.167   3.918 -0.0527 -0.6612 -0.2154
  174DOPC  H11X21289   6.793   2.062   3.955 -0.5285 -0.3371  0.9172
  174DOPC  H11Y21290   6.681   2.209   3.941 -0.7439 -0.6415 -2.9557
  174DOPC  C31221291   6.876   2.259   4.006 -0.1468  0.7100  0.2720
  174DOPC  H12X21292   6.983   2.239   3.984  0.5460  0.2451  3.4742
  174DOPC  H12Y21293   6.859   2.240   4.115  0.1795  1.0877  0.3925
  174DOPC  C31321294   6.847   2.406   3.992  0.2278 -0.6464  0.6168
  174DOPC  H13X21295   6.926   2.457   4.051  0.1863  0.3733 -0.1792
  174DOPC  H13Y21296   6.871   2.434   3.887  1.1257 -1.0221  0.7071
  174DOPC  C31421297   6.706   2.452   4.020  0.2392 -0.0560 -0.2831
  174DOPC  H14X21298   6.640   2.419   3.937 -1.3983  2.8287 -0.2622
  174DOPC  H14Y21299   6.679   2.402   4.116 -0.4834 -0.8988 -0.9131
  174DOPC  C31521300   6.697   2.600   4.037 -0.2700 -0.8005  0.3436
  174DOPC  H15X21301   6.723   2.656   3.945 -1.0152 -0.5360  0.2871
  174DOPC  H15Y21302   6.774   2.621   4.114  0.4480  2.2130 -1.0585
  174DOPC  C31621303   6.561   2.655   4.089  0.1911 -0.4057  0.1309
  174DOPC  H16X21304   6.539   2.608   4.188  0.5771 -0.9206 -0.0233
  174DOPC  H16Y21305   6.580   2.764   4.095 -0.6021 -0.2634  0.1873
  174DOPC  C31721306   6.445   2.655   3.980 -1.0984  0.6509  0.2470
  174DOPC  H17X21307   6.498   2.698   3.893  0.6558 -3.2668 -0.8531
  174DOPC  H17Y21308   6.419   2.548   3.962  1.4172  0.0471 -0.1576
  174DOPC  C31821309   6.318   2.738   4.018 -0.5029  0.0710 -0.2666
  174DOPC  H18X21310   6.342   2.846   4.006 -3.7888  0.8941 -0.4886
  174DOPC  H18Y21311   6.232   2.736   3.948 -0.3125  1.8154 -0.5865
  174DOPC  H18Z21312   6.274   2.716   4.118 -1.8295 -2.4697 -1.3245
  175DOPC     N21313   3.392   6.783   3.120 -0.0888 -0.4731 -0.1130
  175DOPC   C1221314   3.441   6.770   3.264 -0.1420  0.5158  0.0695
  175DOPC  H12A21315   3.404   6.675   3.301  0.5178  0.2076 -0.0413
  175DOPC  H12B21316   3.396   6.839   3.333  2.9003  1.3586  1.4157
  175DOPC   C1321317   3.243   6.766   3.111 -0.4670 -0.6341  0.1554
  175DOPC  H13A21318   3.206   6.859   3.152  2.3903  0.7589 -0.1787
  175DOPC  H13B21319   3.201   6.759   3.012 -0.3495  0.5026  0.0070
  175DOPC  H13C21320   3.214   6.686   3.177  0.4624 -1.3944 -0.3418
  175DOPC   C1421321   3.438   6.669   3.040 -0.3968  0.0109  0.2877
  175DOPC  H14A21322   3.545   6.662   3.028 -0.1593  1.7511  1.0883
  175DOPC  H14B21323   3.409   6.572   3.076 -1.2308 -0.7672 -2.2477
  175DOPC  H14C21324   3.396   6.668   2.940  0.5959 -0.6429 -0.1315
  175DOPC   C1521325   3.434   6.916   3.058 -0.3990  0.3869 -0.7407
  175DOPC  H15A21326   3.539   6.927   3.035 -0.8386  2.2212 -2.0807
  175DOPC  H15B21327   3.423   6.999   3.126  2.3468  0.6425 -0.5230
  175DOPC  H15C21328   3.376   6.931   2.968 -1.6423  1.1953  0.1684
  175DOPC   C1121329   3.594   6.799   3.303  0.5072  0.1612  0.2490
  175DOPC  H11A21330   3.614   6.901   3.265 -1.8468  0.3509 -0.6473
  175DOPC  H11B21331   3.609   6.804   3.413  0.7315  0.0777  0.2235
  175DOPC     P21332   3.714   6.563   3.294 -0.4542 -0.1422 -0.1826
  175DOPC   O1321333   3.706   6.463   3.185  0.3316 -0.9065  0.5379
  175DOPC   O1421334   3.635   6.545   3.420 -0.2185  0.8231 -0.4490
  175DOPC   O1221335   3.688   6.713   3.239 -0.3245  0.8266 -0.5172
  175DOPC   O1121336   3.868   6.567   3.330 -0.0847  0.3427 -0.0428
  175DOPC    C121337   3.916   6.668   3.427  0.1608 -0.1601  0.5015
  175DOPC    HA21338   3.855   6.760   3.432 -1.1166 -1.0368  2.0721
  175DOPC    HB21339   4.020   6.703   3.407 -0.4758  2.3475  1.2129
  175DOPC    C221340   3.916   6.610   3.568  0.4218  0.3213 -0.4378
  175DOPC    HS21341   3.813   6.571   3.587  0.2987  1.3143  1.1230
  175DOPC   O2121342   3.953   6.729   3.643 -0.1360 -0.5653  0.2110
  175DOPC   C2121343   3.926   6.704   3.774  0.2817 -0.0634  0.1902
  175DOPC   O2221344   3.893   6.591   3.814  0.2345  0.8835 -0.3296
  175DOPC   C2221345   3.918   6.836   3.855 -0.4501  0.0890 -0.6648
  175DOPC   H2R21346   3.850   6.908   3.804 -1.9577 -1.8020 -1.4313
  175DOPC   H2S21347   4.019   6.882   3.851  0.4897 -1.8948 -1.2817
  175DOPC    C321348   4.020   6.489   3.572 -0.5177 -0.9831 -0.2790
  175DOPC    HX21349   4.113   6.540   3.539 -0.7806  0.2171  0.7757
  175DOPC    HY21350   3.989   6.415   3.494 -0.1642 -0.1614 -1.2159
  175DOPC   O3121351   4.045   6.421   3.701  0.2650 -0.1938 -0.2055
  175DOPC   C3121352   3.973   6.311   3.733  0.2607 -0.4699  0.5300
  175DOPC   O3221353   3.876   6.272   3.673 -0.1757 -0.0337 -0.1553
  175DOPC   C3221354   4.041   6.230   3.844 -0.2396 -0.1639 -0.2562
  175DOPC   H2X21355   3.968   6.148   3.863  0.7799 -1.9484 -3.3305
  175DOPC   H2Y21356   4.128   6.176   3.801 -0.5942 -1.2813  0.3922
  175DOPC   C2321357   3.884   6.815   4.005  0.0325 -0.2388  0.0135
  175DOPC   H3R21358   3.940   6.728   4.045 -1.0391 -0.8030  0.3301
  175DOPC   H3S21359   3.777   6.784   4.007 -0.7843  2.3270 -0.1366
  175DOPC   C2421360   3.912   6.939   4.094 -0.1961  0.1499  0.7397
  175DOPC   H4R21361   3.884   7.036   4.047  0.4178 -0.4142 -0.8881
  175DOPC   H4S21362   4.022   6.953   4.096 -0.5045  3.5550 -0.0569
  175DOPC   C2521363   3.872   6.920   4.236  0.3558  0.1046  0.5336
  175DOPC   H5R21364   3.909   6.817   4.258  2.4342  0.7945  0.4217
  175DOPC   H5S21365   3.762   6.912   4.222  0.4264  0.3290 -0.1544
  175DOPC   C2621366   3.938   7.020   4.331 -0.1203 -0.5172  0.3465
  175DOPC   H6R21367   3.948   7.118   4.279 -0.9281 -0.2225  0.7293
  175DOPC   H6S21368   4.043   6.987   4.344 -0.0489 -0.4759 -0.1025
  175DOPC   C2721369   3.857   7.051   4.454  0.5073  0.3296 -0.1448
  175DOPC   H7R21370   3.857   6.967   4.526 -0.3082  0.5078  0.0673
  175DOPC   H7S21371   3.755   7.065   4.411  0.7228 -1.1899 -1.2298
  175DOPC   C2821372   3.900   7.179   4.520  0.0751 -0.6143  0.8689
  175DOPC   H8R21373   3.876   7.263   4.451  1.2752  0.8838  2.1674
  175DOPC   H8S21374   4.010   7.188   4.511  0.0262 -1.7955 -1.3985
  175DOPC   C2921375   3.857   7.203   4.663  0.2907 -0.5707  0.6234
  175DOPC   H9R21376   3.828   7.113   4.720 -0.0525 -1.0428 -0.2735
  175DOPC  C21021377   3.846   7.326   4.719 -0.3934  0.0436  0.7630
  175DOPC  H10R21378   3.796   7.327   4.817  0.5247  0.9569  1.2323
  175DOPC  C21121379   3.882   7.462   4.663 -0.4909  0.8416 -0.7329
  175DOPC  H11R21380   3.903   7.446   4.555  0.1388 -0.1534 -0.4743
  175DOPC  H11S21381   3.983   7.496   4.696 -0.6136  0.5332 -0.0365
  175DOPC  C21221382   3.789   7.585   4.683  0.0950  0.3477 -0.2946
  175DOPC  H12R21383   3.774   7.617   4.789 -1.5681 -1.0472 -0.0670
  175DOPC  H12S21384   3.686   7.563   4.649 -1.3639  1.6514  2.8601
  175DOPC  C21321385   3.834   7.703   4.591 -0.3035  1.0008  0.8621
  175DOPC  H13R21386   3.803   7.680   4.487 -1.8533  0.8324  1.3386
  175DOPC  H13S21387   3.944   7.714   4.591 -0.2156  0.5598 -1.5268
  175DOPC  C21421388   3.771   7.831   4.643 -0.4065  0.3527 -0.8576
  175DOPC  H14R21389   3.790   7.841   4.752  1.2796 -2.6312 -0.7730
  175DOPC  H14S21390   3.662   7.828   4.624 -0.3123 -2.7222 -1.3182
  175DOPC  C21521391   3.818   7.958   4.579 -0.1195 -0.5076 -0.1360
  175DOPC  H15R21392   3.926   7.985   4.587 -0.1546  0.4344 -2.2039
  175DOPC  H15S21393   3.760   8.045   4.615 -0.0741 -1.1571  1.5718
  175DOPC  C21621394   3.793   7.960   4.425 -0.6137  0.1486 -0.0642
  175DOPC  H16R21395   3.697   7.909   4.400 -0.0756 -0.5311 -0.7701
  175DOPC  H16S21396   3.867   7.897   4.371 -1.1309 -0.9378  0.4646
  175DOPC  C21721397   3.798   8.099   4.369  0.4240  0.0160  0.4068
  175DOPC  H17R21398   3.903   8.136   4.368  0.5521 -0.3306 -0.4386
  175DOPC  H17S21399   3.737   8.160   4.438  0.5162 -0.8906  1.3211
  175DOPC  C21821400   3.726   8.115   4.234  0.2253  0.3084 -0.1555
  175DOPC  H18R21401   3.618   8.091   4.246  0.0400  0.8948 -0.6112
  175DOPC  H18S21402   3.765   8.036   4.166  0.1733 -0.8819  1.1534
  175DOPC  H18T21403   3.748   8.204   4.172 -0.2365  1.3382  1.1192
  175DOPC   C3321404   4.079   6.308   3.968 -0.3302 -0.1399 -0.5069
  175DOPC   H3X21405   4.146   6.394   3.947 -1.0418  0.0434 -2.2131
  175DOPC   H3Y21406   4.145   6.242   4.028  1.1484  1.3297 -0.4490
  175DOPC   C3421407   3.955   6.350   4.053 -0.8162  0.3717  0.1327
  175DOPC   H4X21408   3.913   6.250   4.078  1.4116 -0.4588  0.8189
  175DOPC   H4Y21409   3.890   6.404   3.981  0.8116 -1.1740 -2.6599
  175DOPC   C3521410   4.014   6.431   4.173 -0.0115  0.3054 -0.1715
  175DOPC   H5X21411   4.071   6.516   4.130 -0.6803  1.6328  1.4433
  175DOPC   H5Y21412   4.071   6.373   4.249  1.4789  0.7452 -0.9161
  175DOPC   C3621413   3.896   6.497   4.249 -1.0567 -0.6728 -0.4779
  175DOPC   H6X21414   3.851   6.576   4.186  0.7065  0.7276 -0.0768
  175DOPC   H6Y21415   3.830   6.416   4.287  1.7178 -2.5098  0.8392
  175DOPC   C3721416   3.961   6.572   4.367  0.8763  0.3787  0.1576
  175DOPC   H7X21417   4.032   6.504   4.417  0.8201  1.8710  2.3929
  175DOPC   H7Y21418   4.023   6.656   4.329  0.7821  0.2438 -0.2989
  175DOPC   C3821419   3.853   6.616   4.466  0.6795 -0.1012 -1.2115
  175DOPC   H8X21420   3.789   6.527   4.485  0.3836  0.0765 -1.3628
  175DOPC   H8Y21421   3.796   6.702   4.424  0.0137  1.7399  2.8963
  175DOPC   C3921422   3.911   6.663   4.589  0.0926  0.1167 -0.4631
  175DOPC   H9X21423   4.002   6.723   4.573 -1.3030  1.8927 -2.3256
  175DOPC  C31021424   3.850   6.688   4.709  0.3362  0.3328  0.7956
  175DOPC  H10X21425   3.912   6.745   4.780  1.3005  0.6964 -0.3039
  175DOPC  C31121426   3.712   6.636   4.750 -0.0521 -0.3613  0.0542
  175DOPC  H11X21427   3.738   6.550   4.814  0.1105 -1.1226 -1.0161
  175DOPC  H11Y21428   3.654   6.611   4.658  0.4861  1.9860 -1.0069
  175DOPC  C31221429   3.620   6.733   4.838 -0.5928  0.0140 -0.3740
  175DOPC  H12X21430   3.578   6.806   4.765 -0.9272  0.9395  0.7267
  175DOPC  H12Y21431   3.675   6.804   4.902  0.4218  0.8527 -2.1276
  175DOPC  C31321432   3.509   6.670   4.918  1.0633  0.6551  0.5332
  175DOPC  H13X21433   3.443   6.618   4.845 -0.4075 -0.7967  2.7752
  175DOPC  H13Y21434   3.548   6.597   4.992  0.9269 -1.1956 -1.1567
  175DOPC  C31421435   3.426   6.764   5.001 -0.0477  0.2161 -0.0342
  175DOPC  H14X21436   3.500   6.809   5.071 -0.6098 -0.2516  0.8749
  175DOPC  H14Y21437   3.381   6.845   4.941  1.7174 -1.2366 -3.6148
  175DOPC  C31521438   3.321   6.689   5.089 -1.1107  0.7102  0.4563
  175DOPC  H15X21439   3.361   6.589   5.118 -3.1073 -0.9844 -2.1020
  175DOPC  H15Y21440   3.237   6.658   5.022 -1.2206 -1.7975  1.6383
  175DOPC  C31621441   3.280   6.760   5.220 -0.4407 -0.1165  0.8859
  175DOPC  H16X21442   3.373   6.787   5.276  1.0271 -1.2769 -0.8702
  175DOPC  H16Y21443   3.244   6.859   5.185  0.8633 -0.7096 -2.5432
  175DOPC  C31721444   3.166   6.697   5.298  0.5159  0.1242 -0.4404
  175DOPC  H17X21445   3.137   6.766   5.380 -0.2444  1.4570 -1.7833
  175DOPC  H17Y21446   3.082   6.698   5.226  0.6920 -1.3964 -0.7152
  175DOPC  C31821447   3.194   6.558   5.355 -0.3248  0.5882  0.3328
  175DOPC  H18X21448   3.284   6.557   5.420 -0.3624  2.8263  0.4936
  175DOPC  H18Y21449   3.113   6.510   5.414 -1.2209  1.6370 -0.0081
  175DOPC  H18Z21450   3.215   6.493   5.267 -3.9520  0.4592 -0.5886
  176DOPC     N21451   2.521   2.271   2.845  0.6613  0.5272  0.2562
  176DOPC   C1221452   2.629   2.204   2.931  0.8502  0.6246  0.3362
  176DOPC  H12A21453   2.674   2.280   2.993  2.1786 -1.0259  1.5039
  176DOPC  H12B21454   2.699   2.161   2.862 -1.8986 -1.5227 -1.3225
  176DOPC   C1321455   2.567   2.385   2.763 -0.1639  0.2991  0.8007
  176DOPC  H13A21456   2.641   2.337   2.700  1.0371 -0.1806  2.5075
  176DOPC  H13B21457   2.491   2.426   2.698  1.2410  1.6555 -0.0444
  176DOPC  H13C21458   2.606   2.466   2.822  0.4039  1.3038 -0.8901
  176DOPC   C1421459   2.406   2.320   2.929  0.5037 -0.3836  0.1666
  176DOPC  H14A21460   2.436   2.397   2.999  0.5979  0.6934 -1.0202
  176DOPC  H14B21461   2.325   2.358   2.868  0.3952 -1.5157 -0.4212
  176DOPC  H14C21462   2.368   2.240   2.991 -0.4914  0.0682  0.1692
  176DOPC   C1521463   2.458   2.176   2.741 -0.6118 -0.5030 -0.2504
  176DOPC  H15A21464   2.390   2.240   2.687  1.0880  1.5529 -0.0953
  176DOPC  H15B21465   2.402   2.098   2.790 -1.8034  0.5723  0.1619
  176DOPC  H15C21466   2.531   2.135   2.673  0.9674  2.5408 -0.5517
  176DOPC   C1121467   2.574   2.086   3.021 -0.0971  0.1185  0.6697
  176DOPC  H11A21468   2.659   2.059   3.088  0.4243  2.0999  0.8601
  176DOPC  H11B21469   2.502   2.120   3.098  0.1797  1.9362  0.1651
  176DOPC     P21470   2.565   1.833   2.963  0.2286 -0.1365  0.3115
  176DOPC   O1321471   2.676   1.825   2.865  0.1694 -0.1887 -0.3560
  176DOPC   O1421472   2.454   1.742   2.940  0.2302 -0.0013 -0.3892
  176DOPC   O1221473   2.503   1.979   2.954 -0.5679  0.2252  0.0296
  176DOPC   O1121474   2.618   1.826   3.114 -0.6101  0.5808 -0.0888
  176DOPC    C121475   2.521   1.809   3.222  0.7892 -0.0612  0.0915
  176DOPC    HA21476   2.419   1.782   3.187  1.0131  0.8321 -1.3395
  176DOPC    HB21477   2.508   1.905   3.276 -0.6075 -0.0178 -0.2796
  176DOPC    C221478   2.566   1.698   3.329  0.5020  0.1813  0.8664
  176DOPC    HS21479   2.516   1.709   3.427  1.7413  0.8243  1.4417
  176DOPC   O2121480   2.704   1.704   3.349 -0.4036  0.9825 -0.2896
  176DOPC   C2121481   2.742   1.816   3.407  0.5519  0.2807 -0.0117
  176DOPC   O2221482   2.670   1.895   3.461  0.5409 -1.1013 -0.0172
  176DOPC   C2221483   2.892   1.823   3.406  1.1516  0.1148 -0.2740
  176DOPC   H2R21484   2.909   1.919   3.354  1.0903  1.8270  2.6320
  176DOPC   H2S21485   2.930   1.737   3.348 -0.3531 -0.0642 -1.0418
  176DOPC    C321486   2.544   1.549   3.287  0.7135 -0.9049 -0.1435
  176DOPC    HX21487   2.579   1.540   3.182 -1.0711  0.3791 -0.8931
  176DOPC    HY21488   2.435   1.525   3.286  0.2617  1.0108 -0.0014
  176DOPC   O3121489   2.611   1.464   3.377 -0.9510  0.0044  0.2875
  176DOPC   C3121490   2.548   1.418   3.486  0.0180 -0.0830 -0.0787
  176DOPC   O3221491   2.452   1.466   3.542 -0.0300  0.0784 -0.1205
  176DOPC   C3221492   2.639   1.299   3.545 -0.4022 -0.1539  0.1086
  176DOPC   H2X21493   2.743   1.334   3.533 -0.7815  0.3827 -2.0326
  176DOPC   H2Y21494   2.617   1.299   3.654 -1.6007  1.8158 -0.0795
  176DOPC   C2321495   2.943   1.835   3.553 -0.1227  0.1787  0.0153
  176DOPC   H3R21496   2.884   1.906   3.614 -0.2282  0.0965  0.0094
  176DOPC   H3S21497   3.041   1.886   3.544 -0.2837  0.8116  1.5065
  176DOPC   C2421498   2.951   1.701   3.618 -0.5259 -0.2259 -0.1485
  176DOPC   H4R21499   3.045   1.657   3.580  0.4723 -1.1681  3.1017
  176DOPC   H4S21500   2.871   1.628   3.592  1.0841 -2.0463 -0.2580
  176DOPC   C2521501   2.958   1.707   3.771  0.0731 -0.2947  0.0547
  176DOPC   H5R21502   2.874   1.770   3.806 -0.4393 -0.1672 -1.3422
  176DOPC   H5S21503   3.055   1.756   3.795 -1.1024  1.9384  0.5114
  176DOPC   C2621504   2.955   1.572   3.840  0.1057  0.3274 -0.2198
  176DOPC   H6R21505   2.867   1.509   3.813  0.5793 -0.5774  0.3117
  176DOPC   H6S21506   2.967   1.590   3.949  0.3714  0.0476 -0.2036
  176DOPC   C2721507   3.066   1.483   3.780 -1.4478  0.2210  0.4087
  176DOPC   H7R21508   3.163   1.537   3.788 -1.8111  0.7284  1.5625
  176DOPC   H7S21509   3.049   1.472   3.670 -1.6128 -1.1880  0.5607
  176DOPC   C2821510   3.085   1.344   3.851 -0.5137  0.0848  0.4453
  176DOPC   H8R21511   3.069   1.366   3.958 -1.1972 -1.0865  0.5940
  176DOPC   H8S21512   3.189   1.306   3.837 -0.9920 -1.5278  1.0128
  176DOPC   C2921513   2.987   1.242   3.800  0.3838 -0.3143 -0.6954
  176DOPC   H9R21514   3.003   1.206   3.698 -1.4985 -1.3671 -0.6502
  176DOPC  C21021515   2.876   1.196   3.858  0.6234 -0.3698 -0.2425
  176DOPC  H10R21516   2.806   1.149   3.788  0.3265  1.5963 -1.3280
  176DOPC  C21121517   2.820   1.227   3.999  0.0029 -0.2592  0.4750
  176DOPC  H11R21518   2.870   1.311   4.051 -1.2778  1.1397 -0.4617
  176DOPC  H11S21519   2.830   1.139   4.067 -0.0482 -1.7582 -1.3580
  176DOPC  C21221520   2.664   1.241   4.000 -0.0363  0.8343  0.5874
  176DOPC  H12R21521   2.630   1.217   4.103  2.6649  1.0614  1.6019
  176DOPC  H12S21522   2.609   1.175   3.929 -1.1345  2.1239  0.1882
  176DOPC  C21321523   2.639   1.386   3.950  0.2550 -0.2758  0.0236
  176DOPC  H13R21524   2.680   1.407   3.849  1.5069 -2.5248  0.0011
  176DOPC  H13S21525   2.685   1.456   4.023 -1.5197  2.1849 -1.0500
  176DOPC  C21421526   2.492   1.427   3.962  0.9514  0.2407  0.2732
  176DOPC  H14R21527   2.446   1.433   4.063 -0.3295  0.6751 -0.3268
  176DOPC  H14S21528   2.439   1.343   3.912  1.4463  0.1072 -0.0354
  176DOPC  C21521529   2.463   1.558   3.887  0.1315  0.3397  0.2548
  176DOPC  H15R21530   2.373   1.605   3.934  0.5951  2.1359 -0.5745
  176DOPC  H15S21531   2.440   1.542   3.780 -1.1072  0.7963  0.4323
  176DOPC  C21621532   2.572   1.659   3.902  0.1457  0.5191 -0.0410
  176DOPC  H16R21533   2.650   1.630   3.829  1.1525 -0.8184  1.5003
  176DOPC  H16S21534   2.613   1.661   4.005  0.2434 -2.1375  0.0243
  176DOPC  C21721535   2.531   1.804   3.879  0.2074 -0.1309 -0.1502
  176DOPC  H17R21536   2.617   1.875   3.889 -0.7951  1.3761 -1.7544
  176DOPC  H17S21537   2.457   1.844   3.951  0.6239  0.3075  0.0447
  176DOPC  C21821538   2.480   1.821   3.735  0.2178  0.5594 -0.2699
  176DOPC  H18R21539   2.541   1.780   3.653  0.0212  0.9452 -0.6136
  176DOPC  H18S21540   2.461   1.928   3.712 -0.2306  0.6050  0.2947
  176DOPC  H18T21541   2.386   1.762   3.736  1.8220 -2.1614  1.9062
  176DOPC   C3321542   2.611   1.169   3.462 -0.0512 -0.4496  0.1280
  176DOPC   H3X21543   2.689   1.100   3.501  0.0259 -1.1208 -1.1721
  176DOPC   H3Y21544   2.621   1.186   3.353  0.8078 -0.4032  0.2054
  176DOPC   C3421545   2.484   1.082   3.501 -0.4206  0.2802 -0.8970
  176DOPC   H4X21546   2.484   0.988   3.442 -1.5980  0.8527 -1.8395
  176DOPC   H4Y21547   2.390   1.134   3.474 -2.6910 -2.2463  1.5030
  176DOPC   C3521548   2.497   1.039   3.652  0.6096 -0.0649  0.2525
  176DOPC   H5X21549   2.503   1.125   3.722  1.9549 -0.8849  1.2012
  176DOPC   H5Y21550   2.586   0.974   3.666  0.6443 -0.2842 -0.9052
  176DOPC   C3621551   2.378   0.945   3.694 -0.5415  0.5284  0.2992
  176DOPC   H6X21552   2.283   0.981   3.648 -0.3064 -0.4907 -1.0273
  176DOPC   H6Y21553   2.405   0.846   3.652  0.5038 -0.0641  2.2701
  176DOPC   C3721554   2.378   0.906   3.846  0.0208 -0.6449  0.9418
  176DOPC   H7X21555   2.310   0.818   3.840 -0.1413 -0.4174 -2.2408
  176DOPC   H7Y21556   2.482   0.871   3.863  1.3897  2.7247  0.3306
  176DOPC   C3821557   2.334   1.017   3.937 -0.4886 -0.3548 -0.1702
  176DOPC   H8X21558   2.230   1.039   3.906 -0.1011 -0.4674 -1.6310
  176DOPC   H8Y21559   2.407   1.100   3.921  0.7141 -1.0210  1.5793
  176DOPC   C3921560   2.370   0.977   4.073  0.3088  0.3170 -0.5716
  176DOPC   H9X21561   2.479   0.979   4.090  0.4356  0.9505 -1.4102
  176DOPC  C31021562   2.290   0.927   4.167  0.1088  0.1834 -0.6886
  176DOPC  H10X21563   2.341   0.909   4.262  1.3915 -0.1392 -1.4060
  176DOPC  C31121564   2.141   0.899   4.162 -0.1930  0.1928  0.9616
  176DOPC  H11X21565   2.128   0.790   4.150  0.0626  0.2009  0.5947
  176DOPC  H11Y21566   2.096   0.947   4.073  0.7776  1.0072  0.8849
  176DOPC  C31221567   2.070   0.933   4.288  0.0948 -0.2155  0.2192
  176DOPC  H12X21568   1.966   0.902   4.267 -0.0467  0.7410 -0.5422
  176DOPC  H12Y21569   2.070   1.040   4.317 -2.5033 -0.5975  1.9050
  176DOPC  C31321570   2.119   0.852   4.405  0.3070 -0.4454  0.3175
  176DOPC  H13X21571   2.136   0.749   4.369  1.7740 -0.1980  0.2385
  176DOPC  H13Y21572   2.217   0.895   4.434  0.1946  0.0488 -0.0094
  176DOPC  C31421573   2.020   0.841   4.525 -0.2304  0.2087 -0.0464
  176DOPC  H14X21574   2.025   0.943   4.568  0.9518  1.2252 -2.3958
  176DOPC  H14Y21575   1.915   0.818   4.495  0.3439 -2.1680 -0.3872
  176DOPC  C31521576   2.054   0.742   4.644 -0.2417 -0.6013 -0.0806
  176DOPC  H15X21577   2.159   0.766   4.671  0.3053 -2.1978 -0.6797
  176DOPC  H15Y21578   2.061   0.636   4.613  0.5693 -0.6301  0.1748
  176DOPC  C31621579   1.962   0.756   4.763 -0.0652 -0.2648  0.1499
  176DOPC  H16X21580   1.954   0.860   4.803  0.3203 -0.5513  1.0046
  176DOPC  H16Y21581   1.863   0.735   4.718 -0.0983  0.8324 -0.3312
  176DOPC  C31721582   1.976   0.655   4.883 -0.2454 -0.6665  1.1829
  176DOPC  H17X21583   1.982   0.549   4.851  1.9468  0.5827 -3.4534
  176DOPC  H17Y21584   2.078   0.672   4.923  1.4562  0.4121 -3.0369
  176DOPC  C31821585   1.862   0.670   4.981  0.2638  0.2617  0.3372
  176DOPC  H18X21586   1.764   0.670   4.928 -0.2456  0.5054  1.2457
  176DOPC  H18Y21587   1.868   0.591   5.059  1.3418  2.2475  2.3949
  176DOPC  H18Z21588   1.853   0.771   5.027  0.6367  0.4240  0.0550
  177DOPC     N21589   4.940   6.136   3.140  0.0795  0.3505  0.0704
  177DOPC   C1221590   4.932   6.274   3.211 -0.2844  0.2340  0.9691
  177DOPC  H12A21591   4.880   6.329   3.134  0.9242  0.7495  0.4811
  177DOPC  H12B21592   5.035   6.305   3.217  0.1813 -1.4793  3.9688
  177DOPC   C1321593   5.009   6.039   3.233  0.3311  0.0583 -1.1872
  177DOPC  H13A21594   4.970   6.039   3.334 -0.7069 -1.2768 -1.5628
  177DOPC  H13B21595   5.012   5.941   3.188  1.0096  0.0573 -1.1492
  177DOPC  H13C21596   5.113   6.066   3.239  0.8621 -2.0309  1.5623
  177DOPC   C1421597   5.029   6.157   3.016 -0.0628 -0.2870 -0.0883
  177DOPC  H14A21598   5.122   6.206   3.042  0.2108 -0.9260  0.1561
  177DOPC  H14B21599   5.045   6.058   2.976 -0.0815 -1.0414  1.6675
  177DOPC  H14C21600   4.976   6.220   2.946  1.1082  1.6638  0.6837
  177DOPC   C1521601   4.810   6.083   3.095  0.3453 -1.0642  0.8337
  177DOPC  H15A21602   4.772   6.141   3.012  1.7443 -2.2943 -0.7485
  177DOPC  H15B21603   4.741   6.093   3.178 -2.8330 -0.2651 -1.6746
  177DOPC  H15C21604   4.822   5.981   3.062  2.7707 -0.3645 -0.7266
  177DOPC   C1121605   4.856   6.285   3.345 -0.3826 -0.3556  0.2868
  177DOPC  H11A21606   4.884   6.219   3.429 -2.6207 -0.7347  0.7919
  177DOPC  H11B21607   4.856   6.386   3.393 -1.6897 -0.1699 -0.0556
  177DOPC     P21608   4.603   6.335   3.268  0.1909 -0.3535  0.1661
  177DOPC   O1321609   4.502   6.257   3.198 -0.0697  0.4042  0.8858
  177DOPC   O1421610   4.661   6.448   3.187  0.6554 -0.2294  0.2457
  177DOPC   O1221611   4.725   6.238   3.309  0.0894  0.3188  0.3038
  177DOPC   O1121612   4.542   6.397   3.402 -0.1031 -0.0221  0.0610
  177DOPC    C121613   4.540   6.325   3.529 -0.1461  0.2702  0.2481
  177DOPC    HA21614   4.540   6.215   3.514 -0.5418  0.3216 -0.1616
  177DOPC    HB21615   4.440   6.341   3.575  0.5188 -2.0169  2.7453
  177DOPC    C221616   4.657   6.366   3.629  0.2522 -0.5046  0.5456
  177DOPC    HS21617   4.746   6.311   3.593 -0.0438  0.7291 -2.3123
  177DOPC   O2121618   4.616   6.326   3.763 -0.2472  0.6664 -0.6089
  177DOPC   C2121619   4.627   6.192   3.786 -0.3932 -0.4223 -1.2110
  177DOPC   O2221620   4.645   6.106   3.700 -0.6511 -0.3448 -0.1682
  177DOPC   C2221621   4.594   6.163   3.934  0.5114 -0.2712 -0.1231
  177DOPC   H2R21622   4.681   6.124   3.992  0.3737 -1.2191 -0.5376
  177DOPC   H2S21623   4.522   6.080   3.949  3.2727 -2.5911  1.3983
  177DOPC    C321624   4.686   6.520   3.623 -0.2389 -0.4061  0.5722
  177DOPC    HX21625   4.599   6.578   3.659 -1.1687 -2.3093  1.5488
  177DOPC    HY21626   4.696   6.549   3.516 -0.3895  2.0319  1.1622
  177DOPC   O3121627   4.805   6.552   3.699  0.0204  0.7618  0.4250
  177DOPC   C3121628   4.824   6.678   3.717 -0.4831 -0.1727  0.4022
  177DOPC   O3221629   4.744   6.766   3.697 -0.5324 -0.1372 -0.4436
  177DOPC   C3221630   4.960   6.701   3.770  0.2639 -0.1308  0.1285
  177DOPC   H2X21631   5.008   6.609   3.810  0.9032  0.5972  1.0619
  177DOPC   H2Y21632   5.020   6.747   3.689 -1.2182  1.4173 -0.1454
  177DOPC   C2321633   4.536   6.291   4.006 -0.0504 -0.1843  0.1452
  177DOPC   H3R21634   4.448   6.335   3.954  0.3255  2.1949  1.3665
  177DOPC   H3S21635   4.620   6.362   3.995 -0.6195  0.6274  0.8969
  177DOPC   C2421636   4.497   6.248   4.146 -0.2482 -0.1821  0.0152
  177DOPC   H4R21637   4.577   6.189   4.196 -0.5714  0.8249  1.7940
  177DOPC   H4S21638   4.413   6.177   4.134 -0.7272  0.4869 -0.7370
  177DOPC   C2521639   4.450   6.367   4.234 -0.2291 -0.2516  0.0922
  177DOPC   H5R21640   4.373   6.433   4.187 -1.5877 -0.6250  1.7230
  177DOPC   H5S21641   4.528   6.443   4.256 -1.1048  1.4546 -2.2740
  177DOPC   C2621642   4.396   6.316   4.369 -0.1901 -0.2240 -0.1479
  177DOPC   H6R21643   4.298   6.273   4.339 -0.0687 -0.9128  0.4391
  177DOPC   H6S21644   4.389   6.408   4.431  0.7297  0.7461 -1.4366
  177DOPC   C2721645   4.481   6.209   4.450  0.1759 -0.0689  0.1014
  177DOPC   H7R21646   4.584   6.251   4.447 -0.0660  0.5470  0.1951
  177DOPC   H7S21647   4.479   6.114   4.392  2.7241  0.3564 -0.7990
  177DOPC   C2821648   4.439   6.204   4.599  0.5515 -0.1657  0.3309
  177DOPC   H8R21649   4.458   6.308   4.631  0.6000 -0.2448  0.5582
  177DOPC   H8S21650   4.517   6.147   4.653 -1.6348 -2.3277  1.3914
  177DOPC   C2921651   4.294   6.163   4.630  0.2847 -0.8888  0.1565
  177DOPC   H9R21652   4.262   6.058   4.625  1.6827 -1.3379  0.0156
  177DOPC  C21021653   4.202   6.244   4.682 -0.0783  0.0334 -0.5000
  177DOPC  H10R21654   4.101   6.203   4.697  1.0427 -2.7080  0.2211
  177DOPC  C21121655   4.217   6.391   4.720 -0.2159 -0.4317 -0.2902
  177DOPC  H11R21656   4.165   6.451   4.642  1.0867  1.8871  0.5668
  177DOPC  H11S21657   4.321   6.422   4.741 -0.5033  0.1285  0.3235
  177DOPC  C21221658   4.155   6.407   4.863  0.6350  0.1911 -0.1530
  177DOPC  H12R21659   4.208   6.335   4.929  0.5467 -0.3821 -0.7011
  177DOPC  H12S21660   4.045   6.392   4.859  0.2950  1.8349  1.6221
  177DOPC  C21321661   4.178   6.550   4.919 -0.3988  0.8864  0.1134
  177DOPC  H13R21662   4.128   6.621   4.850  2.5257  2.8816 -0.1233
  177DOPC  H13S21663   4.283   6.585   4.927 -1.0821  2.6565  2.3000
  177DOPC  C21421664   4.130   6.570   5.065  0.1370  0.7793  0.0854
  177DOPC  H14R21665   4.166   6.481   5.121  1.3399 -0.1064 -1.9620
  177DOPC  H14S21666   4.020   6.581   5.072 -0.2229 -1.7414 -0.3835
  177DOPC  C21521667   4.180   6.688   5.141  0.2616  0.2360  0.0662
  177DOPC  H15R21668   4.149   6.785   5.097  1.4820  1.4302  1.7359
  177DOPC  H15S21669   4.290   6.681   5.126 -0.0935 -1.4137 -2.1898
  177DOPC  C21621670   4.157   6.688   5.290 -0.2393 -0.1849  0.4714
  177DOPC  H16R21671   4.194   6.593   5.336 -0.9106  0.3921  2.3039
  177DOPC  H16S21672   4.046   6.688   5.291 -0.2817  2.1480  0.9800
  177DOPC  C21721673   4.203   6.813   5.363 -0.4584 -0.4681 -0.0665
  177DOPC  H17R21674   4.153   6.903   5.322 -0.8622 -1.2064 -1.2303
  177DOPC  H17S21675   4.312   6.819   5.342 -0.0339  0.3451  2.1344
  177DOPC  C21821676   4.184   6.794   5.514  0.6129  0.2999 -0.2353
  177DOPC  H18R21677   4.076   6.779   5.536  0.8516  0.0332  0.7686
  177DOPC  H18S21678   4.202   6.883   5.578 -3.5025 -0.5380  2.4391
  177DOPC  H18T21679   4.236   6.701   5.545 -0.8135 -0.7208 -0.7886
  177DOPC   C3321680   4.952   6.812   3.877 -0.3335  0.1749  0.1019
  177DOPC   H3X21681   4.896   6.904   3.850  1.1443  1.1784  0.3327
  177DOPC   H3Y21682   5.056   6.843   3.903 -0.1914 -0.6619  0.5863
  177DOPC   C3421683   4.891   6.751   4.014  1.2263 -0.7437 -0.3383
  177DOPC   H4X21684   4.964   6.672   4.039  1.5680 -0.8875 -1.6814
  177DOPC   H4Y21685   4.792   6.704   3.997  0.1804  0.9095  0.9086
  177DOPC   C3521686   4.874   6.857   4.125 -0.1668  0.2211  0.8945
  177DOPC   H5X21687   4.791   6.927   4.100 -1.4496 -2.0806 -1.8271
  177DOPC   H5Y21688   4.960   6.926   4.136  0.8113 -0.4932 -1.5348
  177DOPC   C3621689   4.858   6.784   4.259  0.5079  0.2405 -0.5231
  177DOPC   H6X21690   4.943   6.713   4.273  0.1791 -0.2896 -1.1505
  177DOPC   H6Y21691   4.870   6.856   4.342  1.1295 -1.1225  0.6022
  177DOPC   C3721692   4.725   6.716   4.285  0.5211  0.5476  1.3344
  177DOPC   H7X21693   4.637   6.780   4.264 -0.1218 -0.9229 -0.8159
  177DOPC   H7Y21694   4.706   6.641   4.205 -1.2062  1.9449  0.3684
  177DOPC   C3821695   4.709   6.640   4.420 -0.2071 -0.4571 -0.1574
  177DOPC   H8X21696   4.794   6.572   4.440  0.3783  0.5644  1.0271
  177DOPC   H8Y21697   4.614   6.586   4.403 -0.4637  0.6627 -2.6166
  177DOPC   C3921698   4.706   6.742   4.532 -0.1988 -0.5266 -0.4862
  177DOPC   H9X21699   4.705   6.847   4.501  1.7511 -0.1850  0.4310
  177DOPC  C31021700   4.716   6.706   4.655 -0.5754  0.1867  0.0016
  177DOPC  H10X21701   4.733   6.790   4.724  1.7968  1.2575 -1.7368
  177DOPC  C31121702   4.708   6.567   4.710 -0.2444 -0.6896 -0.6546
  177DOPC  H11X21703   4.804   6.544   4.761 -0.1055 -1.3711 -1.2154
  177DOPC  H11Y21704   4.696   6.483   4.639  1.3423 -0.1206 -1.6758
  177DOPC  C31221705   4.602   6.558   4.819  0.3062  0.2971 -0.1622
  177DOPC  H12X21706   4.501   6.573   4.774  0.0964 -0.6032 -0.0163
  177DOPC  H12Y21707   4.606   6.641   4.893  0.3972 -0.6124  0.8808
  177DOPC  C31321708   4.603   6.424   4.900  0.0092  0.6667  0.5326
  177DOPC  H13X21709   4.565   6.340   4.838 -0.6282 -0.4345  2.3387
  177DOPC  H13Y21710   4.701   6.401   4.945 -1.7637 -2.6445  3.1803
  177DOPC  C31421711   4.509   6.426   5.019 -0.0629  0.6697  0.3058
  177DOPC  H14X21712   4.404   6.444   4.989 -0.0793  2.7684  1.4419
  177DOPC  H14Y21713   4.522   6.328   5.069  2.2992  0.4866 -0.5409
  177DOPC  C31521714   4.549   6.529   5.127 -0.2124  0.8416 -0.0449
  177DOPC  H15X21715   4.528   6.635   5.100 -3.0671  0.3690  0.0142
  177DOPC  H15Y21716   4.660   6.527   5.139 -0.1814 -1.0147 -0.4537
  177DOPC  C31621717   4.494   6.482   5.265 -0.1235 -0.0895  0.5422
  177DOPC  H16X21718   4.384   6.487   5.252  0.1374  0.7889 -1.7270
  177DOPC  H16Y21719   4.519   6.377   5.289 -0.2428 -0.5223 -1.1222
  177DOPC  C31721720   4.548   6.568   5.378 -0.0587 -0.0695 -0.6619
  177DOPC  H17X21721   4.537   6.676   5.355 -2.3351 -0.5126 -1.8403
  177DOPC  H17Y21722   4.478   6.552   5.463  1.5656  2.1525  1.2580
  177DOPC  C31821723   4.694   6.549   5.422 -0.1300  0.5271 -0.3261
  177DOPC  H18X21724   4.723   6.448   5.457  0.4793  0.4935 -0.9285
  177DOPC  H18Y21725   4.762   6.555   5.335 -0.7180  1.0501 -0.7603
  177DOPC  H18Z21726   4.720   6.627   5.496  0.2944  0.0296  0.0568
  178DOPC     N21727   4.157   5.894   2.869 -0.2538  0.3400  0.1796
  178DOPC   C1221728   4.177   5.984   2.991 -0.0300  0.2618  0.6010
  178DOPC  H12A21729   4.186   6.087   2.961 -3.1588  0.1777 -1.0921
  178DOPC  H12B21730   4.265   5.948   3.041 -0.3959  0.2678  1.2626
  178DOPC   C1321731   4.101   5.756   2.895  0.4229 -0.1394  0.1220
  178DOPC  H13A21732   4.158   5.691   2.960  1.3306  1.3214  0.8360
  178DOPC  H13B21733   4.001   5.759   2.934  1.2325  0.5857  2.3120
  178DOPC  H13C21734   4.102   5.701   2.803 -2.1912  0.4720 -0.3436
  178DOPC   C1421735   4.285   5.871   2.797  0.3103 -0.1945 -0.4316
  178DOPC  H14A21736   4.368   5.813   2.833  1.4546  0.6738 -1.5788
  178DOPC  H14B21737   4.260   5.818   2.706 -0.2092  0.0331 -0.4277
  178DOPC  H14C21738   4.329   5.967   2.777 -0.3667  0.3520  0.6191
  178DOPC   C1521739   4.069   5.967   2.768  0.3324 -0.3181 -0.5887
  178DOPC  H15A21740   4.071   5.923   2.670 -4.2721  0.9784 -1.4718
  178DOPC  H15B21741   4.092   6.072   2.758  0.5789 -0.3792 -0.6822
  178DOPC  H15C21742   3.970   5.975   2.810 -0.0250  0.4005 -1.5372
  178DOPC   C1121743   4.070   5.977   3.099  0.7093 -0.1319 -0.4248
  178DOPC  H11A21744   4.077   5.872   3.133 -1.6158  0.0265  0.7410
  178DOPC  H11B21745   4.105   6.029   3.191 -0.3514  2.3217 -1.2986
  178DOPC     P21746   3.882   6.156   3.031  0.0053 -0.2728  0.2387
  178DOPC   O1321747   3.783   6.164   2.920  0.1831  0.0697 -0.2871
  178DOPC   O1421748   3.991   6.253   3.013 -0.1601  0.0373  0.0629
  178DOPC   O1221749   3.939   6.010   3.053 -0.4685 -0.1350 -0.1214
  178DOPC   O1121750   3.802   6.188   3.171 -0.2793  0.2529 -0.1227
  178DOPC    C121751   3.864   6.162   3.296  0.0288  0.0900  0.1887
  178DOPC    HA21752   3.806   6.231   3.361 -1.1073  0.5249 -1.2047
  178DOPC    HB21753   3.972   6.186   3.303 -0.3964  2.3383  0.0079
  178DOPC    C221754   3.845   6.023   3.353 -0.1312 -0.5813 -0.6938
  178DOPC    HS21755   3.923   5.958   3.307  0.2733 -0.6721  0.1056
  178DOPC   O2121756   3.709   5.977   3.322  0.1610 -0.0116  0.1225
  178DOPC   C2121757   3.693   5.852   3.328  0.1600  0.8009  0.4178
  178DOPC   O2221758   3.783   5.769   3.328  0.3804 -1.0919 -0.0356
  178DOPC   C2221759   3.550   5.825   3.312  0.1391  0.7010  0.7803
  178DOPC   H2R21760   3.542   5.762   3.220  1.6245 -0.4217  1.3882
  178DOPC   H2S21761   3.481   5.908   3.285  1.3983  0.9086 -2.1540
  178DOPC    C321762   3.878   6.024   3.504 -0.8052  0.8219  0.1202
  178DOPC    HX21763   3.805   6.097   3.545 -0.2696  2.6658 -2.0077
  178DOPC    HY21764   3.976   6.073   3.522 -0.8351  0.4989  1.2413
  178DOPC   O3121765   3.875   5.892   3.566  0.6417 -0.1852 -0.0500
  178DOPC   C3121766   3.972   5.809   3.532 -0.3292 -0.2677 -0.2139
  178DOPC   O3221767   4.059   5.845   3.454 -0.7232 -0.4709  0.5510
  178DOPC   C3221768   3.958   5.663   3.587 -0.3203  0.2641 -0.4560
  178DOPC   H2X21769   3.927   5.677   3.693  1.9899 -0.8677  0.4247
  178DOPC   H2Y21770   3.871   5.612   3.540 -0.6758  1.2337 -0.9010
  178DOPC   C2321771   3.488   5.734   3.418  0.0679  0.7807  0.7930
  178DOPC   H3R21772   3.559   5.648   3.423  1.2923  1.3730 -3.3237
  178DOPC   H3S21773   3.389   5.698   3.385 -0.3416  1.4411  1.2789
  178DOPC   C2421774   3.491   5.800   3.550 -0.6231  0.1804 -0.3820
  178DOPC   H4R21775   3.399   5.854   3.578 -1.0768 -1.1407  0.8173
  178DOPC   H4S21776   3.569   5.879   3.553 -1.4417  1.0572 -1.2630
  178DOPC   C2521777   3.495   5.698   3.663  0.0094 -0.3527  0.1892
  178DOPC   H5R21778   3.575   5.623   3.645  1.3614  0.3612  2.6633
  178DOPC   H5S21779   3.405   5.633   3.666  0.0259 -0.3724  0.2835
  178DOPC   C2621780   3.513   5.755   3.804 -0.2078 -0.1963 -0.3698
  178DOPC   H6R21781   3.496   5.676   3.880  0.7507  0.0990  0.1644
  178DOPC   H6S21782   3.446   5.839   3.830 -0.9999 -1.3135  1.4094
  178DOPC   C2721783   3.661   5.784   3.834  0.2908  0.0399  0.1764
  178DOPC   H7R21784   3.685   5.866   3.763 -1.3998  0.5456  0.1407
  178DOPC   H7S21785   3.742   5.715   3.801  0.7495 -0.1103  1.5429
  178DOPC   C2821786   3.679   5.838   3.977  0.8913  0.9241 -0.1852
  178DOPC   H8R21787   3.596   5.911   3.990  0.0431  0.6336 -3.2095
  178DOPC   H8S21788   3.776   5.892   3.985  2.0182 -1.2246  1.8313
  178DOPC   C2921789   3.676   5.729   4.079 -0.6895  0.2270 -0.1783
  178DOPC   H9R21790   3.772   5.677   4.095 -0.0477  1.3120 -0.3749
  178DOPC  C21021791   3.563   5.699   4.141 -0.0169  0.3539 -0.9203
  178DOPC  H10R21792   3.560   5.612   4.208  0.4693  1.6625  0.8573
  178DOPC  C21121793   3.431   5.781   4.149 -0.8595 -0.1041 -0.0026
  178DOPC  H11R21794   3.362   5.767   4.063 -0.9780  1.2043 -0.1466
  178DOPC  H11S21795   3.446   5.891   4.159  1.5821 -0.5631  2.4335
  178DOPC  C21221796   3.358   5.746   4.278  0.0374 -0.2496 -0.0459
  178DOPC  H12R21797   3.339   5.636   4.282 -0.3979 -0.1898 -0.4174
  178DOPC  H12S21798   3.261   5.800   4.284 -1.0157 -1.8689 -1.6764
  178DOPC  C21321799   3.446   5.786   4.405  0.0386  0.5422  0.1632
  178DOPC  H13R21800   3.502   5.878   4.379  2.3575  0.2221  3.4755
  178DOPC  H13S21801   3.517   5.705   4.430 -1.3354 -0.6034  0.5281
  178DOPC  C21421802   3.371   5.818   4.532 -0.2421  0.5184 -0.5670
  178DOPC  H14R21803   3.307   5.728   4.547 -2.2756  1.1191 -4.2772
  178DOPC  H14S21804   3.300   5.903   4.522 -2.1855 -0.9353  0.0417
  178DOPC  C21521805   3.459   5.851   4.651 -0.4918  0.0077  0.3677
  178DOPC  H15R21806   3.539   5.916   4.611 -0.6561 -0.2832 -0.4501
  178DOPC  H15S21807   3.509   5.757   4.682 -0.7612 -0.4543 -0.5665
  178DOPC  C21621808   3.383   5.909   4.766 -0.3522  0.7972 -0.1501
  178DOPC  H16R21809   3.305   5.832   4.785 -0.3345  0.8385  0.0999
  178DOPC  H16S21810   3.341   6.003   4.726  1.4781  1.5587 -0.3613
  178DOPC  C21721811   3.455   5.938   4.904  0.6736 -0.3137 -0.3173
  178DOPC  H17R21812   3.375   5.987   4.964  0.8384  1.3292 -1.3819
  178DOPC  H17S21813   3.538   6.010   4.896  0.7743 -0.3205  0.5110
  178DOPC  C21821814   3.501   5.820   4.987  0.3747  0.1909  0.2266
  178DOPC  H18R21815   3.577   5.759   4.934  0.1889 -0.5462  0.7992
  178DOPC  H18S21816   3.412   5.764   5.025  2.3173 -2.0558  1.7772
  178DOPC  H18T21817   3.555   5.855   5.077  0.6164  0.6220 -0.0829
  178DOPC   C3321818   4.086   5.574   3.591  0.0502 -0.5433 -0.3080
  178DOPC   H3X21819   4.159   5.585   3.507  0.5407  0.1971  0.1969
  178DOPC   H3Y21820   4.052   5.470   3.608  0.3301 -0.4781  0.7092
  178DOPC   C3421821   4.164   5.617   3.718  0.1562 -0.2827  0.2523
  178DOPC   H4X21822   4.174   5.727   3.732 -0.5597 -0.3495  1.4367
  178DOPC   H4Y21823   4.269   5.584   3.702 -0.5645 -1.4014 -2.6955
  178DOPC   C3521824   4.095   5.556   3.837  0.0775  0.4559  0.3845
  178DOPC   H5X21825   4.082   5.446   3.823 -0.8816  0.7065 -0.9044
  178DOPC   H5Y21826   3.988   5.580   3.855 -0.3797 -0.3271 -1.1595
  178DOPC   C3621827   4.171   5.573   3.979  0.1022  0.6565  1.2607
  178DOPC   H6X21828   4.280   5.585   3.961 -0.3552  2.1746 -0.9748
  178DOPC   H6Y21829   4.139   5.673   4.015  0.1121  1.0661  0.1925
  178DOPC   C3721830   4.136   5.464   4.072 -0.0319 -0.4142  0.4973
  178DOPC   H7X21831   4.029   5.435   4.058 -0.3936  0.6528  0.9294
  178DOPC   H7Y21832   4.193   5.372   4.046  0.2361  0.2839 -1.6129
  178DOPC   C3821833   4.168   5.499   4.220  0.2585 -0.4286 -0.2952
  178DOPC   H8X21834   4.110   5.586   4.257 -0.1135 -0.5326 -0.6340
  178DOPC   H8Y21835   4.273   5.537   4.227  0.6424 -1.0411 -2.0361
  178DOPC   C3921836   4.165   5.386   4.312  0.5929  0.7583  0.1385
  178DOPC   H9X21837   4.170   5.282   4.276 -1.0269 -0.1109  2.1798
  178DOPC  C31021838   4.160   5.381   4.449  0.2827 -0.1864  0.4788
  178DOPC  H10X21839   4.174   5.283   4.498  0.1386  0.2432  1.4052
  178DOPC  C31121840   4.141   5.503   4.539 -0.2574 -0.2515 -0.6814
  178DOPC  H11X21841   4.172   5.595   4.485 -1.0496  1.6954  1.9702
  178DOPC  H11Y21842   4.199   5.497   4.633 -0.8925 -1.9075 -0.3682
  178DOPC  C31221843   3.987   5.515   4.560 -0.2154  0.5593 -0.7714
  178DOPC  H12X21844   3.928   5.521   4.466  0.2253 -0.3047 -1.1159
  178DOPC  H12Y21845   3.976   5.614   4.610  0.8745  0.5053 -0.4033
  178DOPC  C31321846   3.913   5.410   4.649 -0.5540  0.6507  0.1323
  178DOPC  H13X21847   3.899   5.313   4.595  1.1070 -0.3998  1.4732
  178DOPC  H13Y21848   3.979   5.396   4.737  2.5426  0.8329 -1.9821
  178DOPC  C31421849   3.771   5.453   4.694 -0.5230  0.0083  0.4237
  178DOPC  H14X21850   3.725   5.375   4.759 -3.3399  1.4944  0.3624
  178DOPC  H14Y21851   3.766   5.549   4.750  0.3770  0.4250 -0.1844
  178DOPC  C31521852   3.680   5.470   4.575 -0.3440  0.1912 -0.0723
  178DOPC  H15X21853   3.729   5.548   4.512 -0.1955  0.9319  0.9333
  178DOPC  H15Y21854   3.584   5.521   4.597 -0.9546  0.5148 -3.0881
  178DOPC  C31621855   3.642   5.334   4.510 -0.1025 -0.6260 -0.0578
  178DOPC  H16X21856   3.730   5.296   4.454  0.1531  0.2212 -0.2420
  178DOPC  H16Y21857   3.636   5.256   4.589  0.6977 -0.8315 -0.1997
  178DOPC  C31721858   3.526   5.338   4.410 -0.2668 -0.3486  0.4172
  178DOPC  H17X21859   3.442   5.385   4.465  0.0707  0.4406  0.2838
  178DOPC  H17Y21860   3.542   5.402   4.320 -3.5611  0.3557  0.2048
  178DOPC  C31821861   3.480   5.201   4.359  0.1841 -0.2980 -0.0837
  178DOPC  H18X21862   3.569   5.164   4.303  0.6434 -0.6607  0.8696
  178DOPC  H18Y21863   3.451   5.133   4.442  1.2430 -2.4768 -1.3966
  178DOPC  H18Z21864   3.400   5.210   4.283  1.1074  1.8880 -0.8756
  179DOPC     N21865   5.410   5.726   2.921  0.2019 -0.4989  0.5276
  179DOPC   C1221866   5.558   5.741   2.941  0.2174 -0.0188  0.2355
  179DOPC  H12A21867   5.610   5.752   2.847 -3.0811 -1.2423 -1.9237
  179DOPC  H12B21868   5.596   5.643   2.969 -0.8203  0.0038  1.8655
  179DOPC   C1321869   5.345   5.658   3.034 -0.5636  0.1015  0.3901
  179DOPC  H13A21870   5.367   5.716   3.123 -0.6124  1.8276 -0.6701
  179DOPC  H13B21871   5.237   5.648   3.033 -0.6875  0.8205  2.1628
  179DOPC  H13C21872   5.398   5.564   3.041 -0.0435  0.4957  2.2626
  179DOPC   C1421873   5.384   5.641   2.801 -0.7267 -0.6509 -0.1964
  179DOPC  H14A21874   5.452   5.675   2.724 -2.0883 -2.2788 -2.2182
  179DOPC  H14B21875   5.413   5.540   2.824  2.3115  0.0548 -0.4746
  179DOPC  H14C21876   5.284   5.628   2.762 -0.0397  1.3453 -2.9528
  179DOPC   C1521877   5.354   5.862   2.903 -0.1651  0.1313  0.3091
  179DOPC  H15A21878   5.248   5.861   2.884 -0.3098  1.8217  0.9084
  179DOPC  H15B21879   5.402   5.901   2.814  2.4543 -0.7860  1.2129
  179DOPC  H15C21880   5.376   5.934   2.980  0.9045 -0.1677  0.3028
  179DOPC   C1121881   5.616   5.845   3.033  0.1995  0.3043 -0.2491
  179DOPC  H11A21882   5.588   5.946   2.996  0.5471 -0.4307 -2.6841
  179DOPC  H11B21883   5.590   5.831   3.141  3.1222 -0.4379  0.4479
  179DOPC     P21884   5.858   5.941   3.060 -0.0671  0.1149 -0.1770
  179DOPC   O1321885   5.797   6.067   3.014  0.0394  0.3501 -0.5962
  179DOPC   O1421886   5.991   5.912   3.007  0.7831  0.6954  0.2522
  179DOPC   O1221887   5.759   5.829   3.028 -0.0706 -0.3384  0.1921
  179DOPC   O1121888   5.871   5.940   3.220 -0.1057  0.4710  0.3892
  179DOPC    C121889   5.933   6.048   3.284 -0.4770  0.0145 -0.5435
  179DOPC    HA21890   5.977   6.132   3.226  1.4202  0.7099  1.7813
  179DOPC    HB21891   6.015   5.999   3.341 -2.3924 -1.3848  1.1808
  179DOPC    C221892   5.839   6.115   3.388  0.2731  0.3415 -0.4824
  179DOPC    HS21893   5.746   6.122   3.328  0.8256 -0.2690 -1.4160
  179DOPC   O2121894   5.892   6.238   3.429  0.0478 -0.9813 -0.0819
  179DOPC   C2121895   5.819   6.333   3.483 -0.0702  0.6734  0.8565
  179DOPC   O2221896   5.695   6.332   3.501  0.1423  0.6705 -0.1773
  179DOPC   C2221897   5.911   6.447   3.534 -0.2692 -0.6922  0.2987
  179DOPC   H2R21898   5.846   6.534   3.556 -0.6368  0.0089 -2.9914
  179DOPC   H2S21899   5.966   6.489   3.447 -0.4494  2.3785  1.5661
  179DOPC    C321900   5.830   6.022   3.510 -0.1889 -0.0402  0.2814
  179DOPC    HX21901   5.934   6.014   3.549  0.6964 -1.8816 -2.1654
  179DOPC    HY21902   5.805   5.917   3.482  0.4687 -0.0187 -0.4417
  179DOPC   O3121903   5.740   6.064   3.612  0.2594  0.2224 -0.2062
  179DOPC   C3121904   5.610   6.028   3.586  0.2736  0.0445  0.0360
  179DOPC   O3221905   5.562   5.972   3.484  0.0247  0.4150 -0.3284
  179DOPC   C3221906   5.522   6.103   3.690 -0.4491  0.4028  0.9467
  179DOPC   H2X21907   5.572   6.171   3.762 -0.6769  0.4927  1.0184
  179DOPC   H2Y21908   5.458   6.168   3.626  1.0675  0.6385 -0.4030
  179DOPC   C2321909   6.014   6.403   3.649 -0.0828 -0.5317  0.6834
  179DOPC   H3R21910   6.094   6.480   3.647  0.2223 -0.8012  1.8876
  179DOPC   H3S21911   6.067   6.310   3.619  0.7292  0.0744  0.2152
  179DOPC   C2421912   5.939   6.385   3.781  0.2350  0.2338  0.2621
  179DOPC   H4R21913   5.884   6.290   3.767  1.4018 -0.2739 -1.2086
  179DOPC   H4S21914   5.867   6.465   3.808 -1.4949 -1.3748  0.6016
  179DOPC   C2521915   6.033   6.347   3.900 -1.1092 -0.7970  0.3280
  179DOPC   H5R21916   6.090   6.437   3.931 -2.8054  0.1706  0.6962
  179DOPC   H5S21917   6.117   6.277   3.878  1.2863  0.9000  3.3271
  179DOPC   C2621918   5.960   6.299   4.013 -0.3589  0.1042 -0.0618
  179DOPC   H6R21919   5.918   6.197   3.996  0.6588 -0.0939 -1.5527
  179DOPC   H6S21920   5.876   6.367   4.036  1.0762  1.8889  0.0789
  179DOPC   C2721921   6.050   6.296   4.142 -0.1868  0.1115  0.6706
  179DOPC   H7R21922   6.088   6.398   4.159  3.2989 -0.7908 -0.8192
  179DOPC   H7S21923   6.143   6.235   4.133 -0.0853  0.2617  0.6928
  179DOPC   C2821924   5.960   6.249   4.261  0.6393 -0.1828  0.0926
  179DOPC   H8R21925   5.967   6.138   4.258  1.6862 -0.1952  1.9636
  179DOPC   H8S21926   5.853   6.270   4.238  0.2418 -0.8118  1.2910
  179DOPC   C2921927   6.000   6.306   4.395 -0.4110  0.0920  1.0883
  179DOPC   H9R21928   5.971   6.412   4.408 -1.8898  0.1477 -1.8737
  179DOPC  C21021929   6.069   6.248   4.494  0.6465 -0.2885  0.2643
  179DOPC  H10R21930   6.084   6.314   4.581 -0.5006 -0.0757  0.3082
  179DOPC  C21121931   6.144   6.122   4.504 -0.5481  0.3981  0.9859
  179DOPC  H11R21932   6.117   6.046   4.428 -0.8578 -0.9281  2.3802
  179DOPC  H11S21933   6.150   6.073   4.603  2.8369  0.4295  0.8925
  179DOPC  C21221934   6.288   6.160   4.482  0.3445  0.0059 -0.4992
  179DOPC  H12R21935   6.351   6.070   4.501  3.8847  2.5503  0.9272
  179DOPC  H12S21936   6.316   6.233   4.561 -0.4455  2.1192 -2.0726
  179DOPC  C21321937   6.330   6.210   4.344  0.0059  0.7400  0.1408
  179DOPC  H13R21938   6.275   6.304   4.325  1.9857  1.9556  0.1282
  179DOPC  H13S21939   6.305   6.140   4.261 -1.8678  0.0813  1.2206
  179DOPC  C21421940   6.481   6.231   4.346 -0.2656 -0.1564 -0.8183
  179DOPC  H14R21941   6.498   6.310   4.423 -2.1720  0.6988 -1.2259
  179DOPC  H14S21942   6.509   6.267   4.245 -1.2190 -0.3964 -1.1811
  179DOPC  C21521943   6.566   6.112   4.385 -0.1400  0.7979 -0.7512
  179DOPC  H15R21944   6.534   6.019   4.334  1.6459 -0.8823  1.0583
  179DOPC  H15S21945   6.560   6.082   4.492 -1.5287 -1.2849 -1.3412
  179DOPC  C21621946   6.716   6.115   4.350 -0.0866  0.5669  0.4638
  179DOPC  H16R21947   6.725   6.150   4.245 -3.1359  2.7689  0.7885
  179DOPC  H16S21948   6.752   6.011   4.368 -0.9966 -0.5058 -3.1881
  179DOPC  C21721949   6.798   6.208   4.432 -0.4662  0.0790 -0.0064
  179DOPC  H17R21950   6.756   6.295   4.486 -0.7820  0.6217 -1.1100
  179DOPC  H17S21951   6.868   6.262   4.365  0.7308  1.5218  2.2655
  179DOPC  C21821952   6.897   6.141   4.526  0.0896  0.2067 -0.6594
  179DOPC  H18R21953   6.841   6.079   4.600 -1.3588 -1.1538 -2.7991
  179DOPC  H18S21954   6.955   6.213   4.588 -1.7172 -0.7663  2.4078
  179DOPC  H18T21955   6.962   6.072   4.468 -0.8403 -1.3830  0.1001
  179DOPC   C3321956   5.422   6.001   3.753  0.4439  0.2188 -0.7143
  179DOPC   H3X21957   5.409   5.912   3.688  0.0009 -0.4836  0.3086
  179DOPC   H3Y21958   5.323   6.044   3.780  0.7622  0.1219  0.6766
  179DOPC   C3421959   5.480   5.949   3.891  0.4662 -0.8623  0.0789
  179DOPC   H4X21960   5.511   6.043   3.942 -1.7736  0.5729 -1.0244
  179DOPC   H4Y21961   5.568   5.883   3.873  1.2627 -0.0475  0.8518
  179DOPC   C3521962   5.382   5.877   3.988 -0.3130  0.0247 -0.1215
  179DOPC   H5X21963   5.323   5.798   3.937 -1.1190  1.6084 -1.7590
  179DOPC   H5Y21964   5.317   5.954   4.034 -0.4332 -1.6909  2.8228
  179DOPC   C3621965   5.448   5.819   4.119  0.0654  0.1489 -0.0413
  179DOPC   H6X21966   5.521   5.737   4.101 -0.1331  0.0017 -0.1751
  179DOPC   H6Y21967   5.504   5.898   4.173  1.8595 -1.2864  0.2809
  179DOPC   C3721968   5.345   5.764   4.218 -0.6660  0.3004  0.6041
  179DOPC   H7X21969   5.292   5.853   4.258 -0.8183  0.1520  0.7318
  179DOPC   H7Y21970   5.272   5.701   4.164  0.2619  1.0699 -1.6901
  179DOPC   C3821971   5.400   5.685   4.347 -0.2548 -0.4334  0.1977
  179DOPC   H8X21972   5.463   5.603   4.306 -0.7303  0.9970 -3.7541
  179DOPC   H8Y21973   5.307   5.653   4.400 -0.8814  2.0240  0.7103
  179DOPC   C3921974   5.490   5.754   4.444  0.5965  0.9489  0.5160
  179DOPC   H9X21975   5.557   5.829   4.399 -0.2001  0.7688 -1.0100
  179DOPC  C31021976   5.499   5.759   4.573 -0.2266 -0.4765 -0.3341
  179DOPC  H10X21977   5.584   5.808   4.622  1.1287 -0.0622 -2.8986
  179DOPC  C31121978   5.411   5.679   4.660 -0.0034 -0.0257  0.1985
  179DOPC  H11X21979   5.374   5.590   4.604 -0.7328  0.8780 -0.7960
  179DOPC  H11Y21980   5.321   5.737   4.689  0.2980  1.9322 -2.3803
  179DOPC  C31221981   5.469   5.619   4.797 -0.2084 -0.9634  0.5187
  179DOPC  H12X21982   5.548   5.548   4.762 -1.2930 -1.8892 -0.1300
  179DOPC  H12Y21983   5.384   5.559   4.836 -0.8719 -0.7079 -0.4836
  179DOPC  C31321984   5.535   5.719   4.893 -1.0729 -0.4268 -0.3749
  179DOPC  H13X21985   5.599   5.787   4.833 -0.7233 -0.2649  0.1726
  179DOPC  H13Y21986   5.453   5.784   4.930 -0.9400 -0.1692 -0.5262
  179DOPC  C31421987   5.621   5.662   5.002  0.6465  0.4333  0.3218
  179DOPC  H14X21988   5.573   5.593   5.074 -0.5446  0.6665 -0.2281
  179DOPC  H14Y21989   5.703   5.599   4.962  0.3442  0.8685 -1.0257
  179DOPC  C31521990   5.686   5.781   5.078  0.5764  0.1389 -0.5438
  179DOPC  H15X21991   5.718   5.857   5.002 -0.7306 -0.1703 -1.4288
  179DOPC  H15Y21992   5.776   5.745   5.132  0.5142  0.3155 -0.3236
  179DOPC  C31621993   5.588   5.837   5.189  0.1894 -0.1967 -0.3227
  179DOPC  H16X21994   5.493   5.875   5.147 -1.2056 -2.4292  0.6073
  179DOPC  H16Y21995   5.554   5.756   5.257 -1.2039  0.4476 -0.2333
  179DOPC  C31721996   5.637   5.951   5.282 -0.1839  0.5782  0.1698
  179DOPC  H17X21997   5.657   6.036   5.213  3.0360 -0.3023 -0.1446
  179DOPC  H17Y21998   5.554   5.979   5.349  0.4604  0.3491  1.0889
  179DOPC  C31821999   5.763   5.929   5.352 -0.0281  0.4633  0.4088
  179DOPC  H18X22000   5.773   6.018   5.418 -3.8885  0.2959  1.4186
  179DOPC  H18Y22001   5.751   5.843   5.422  0.2481  0.3958  0.3756
  179DOPC  H18Z22002   5.842   5.921   5.274 -1.7413  0.4617 -1.3758
  180DOPC     N22003   5.840   3.417   2.851  0.0603 -0.8409 -0.3559
  180DOPC   C1222004   5.930   3.353   2.955 -0.2666  0.3460 -0.4643
  180DOPC  H12A22005   6.015   3.308   2.906  0.5380 -0.0286  1.2039
  180DOPC  H12B22006   5.862   3.273   2.977 -1.5460  1.1625 -1.3303
  180DOPC   C1322007   5.815   3.330   2.730  0.2874  0.9133 -0.2709
  180DOPC  H13A22008   5.767   3.381   2.648 -0.1368  0.3850 -0.3563
  180DOPC  H13B22009   5.902   3.283   2.687 -0.6875  0.7606 -2.1726
  180DOPC  H13C22010   5.743   3.256   2.762  0.7944 -0.0901 -1.3812
  180DOPC   C1422011   5.902   3.548   2.807  0.4634  0.0020 -0.6365
  180DOPC  H14A22012   5.922   3.602   2.898 -0.5703 -1.0034  0.2237
  180DOPC  H14B22013   5.994   3.529   2.753  0.6893 -2.6170  0.5423
  180DOPC  H14C22014   5.833   3.598   2.741  0.3075  0.5613 -0.0557
  180DOPC   C1522015   5.698   3.444   2.910 -0.0054 -0.2754  0.3800
  180DOPC  H15A22016   5.693   3.502   3.001 -2.3219  2.5970 -1.4081
  180DOPC  H15B22017   5.634   3.361   2.934 -1.5361  0.9889  0.8328
  180DOPC  H15C22018   5.645   3.500   2.835 -0.3038 -1.5660 -0.3968
  180DOPC   C1122019   5.960   3.431   3.088  0.2649  0.3478 -0.6969
  180DOPC  H11A22020   5.869   3.480   3.128  0.6533  0.1798  0.4159
  180DOPC  H11B22021   5.990   3.361   3.168 -0.3650  0.7403 -0.1061
  180DOPC     P22022   6.213   3.517   3.078 -0.2869 -0.1609  0.2332
  180DOPC   O1322023   6.278   3.644   3.038  0.3887  0.1030 -0.2348
  180DOPC   O1422024   6.269   3.396   3.013  0.5810  0.2484  0.1361
  180DOPC   O1222025   6.057   3.530   3.064 -0.4238 -0.3232 -0.0844
  180DOPC   O1122026   6.232   3.491   3.223  0.4502  0.0143  0.2680
  180DOPC    C122027   6.172   3.571   3.327  0.1577  0.9300 -0.1313
  180DOPC    HA22028   6.081   3.516   3.359  0.0826 -0.6316 -2.7635
  180DOPC    HB22029   6.150   3.674   3.291 -0.1342  0.2349 -2.0123
  180DOPC    C222030   6.276   3.588   3.442  0.2537 -0.1699  0.0413
  180DOPC    HS22031   6.358   3.641   3.388  0.8217 -1.0064  0.0787
  180DOPC   O2122032   6.318   3.455   3.487 -0.3328 -0.2318 -0.0274
  180DOPC   C2122033   6.393   3.451   3.598 -0.1179 -0.2971 -0.2239
  180DOPC   O2222034   6.435   3.543   3.662 -0.4347 -0.9012 -0.3518
  180DOPC   C2222035   6.439   3.304   3.619  0.4545 -0.9584  0.5460
  180DOPC   H2R22036   6.501   3.284   3.529  0.1204  1.7005 -0.3812
  180DOPC   H2S22037   6.350   3.240   3.603  0.3457 -0.7758  0.4086
  180DOPC    C322038   6.205   3.685   3.539  0.1017  0.5261 -0.6288
  180DOPC    HX22039   6.165   3.772   3.483 -2.2894  0.4672  0.8327
  180DOPC    HY22040   6.277   3.738   3.604  0.0023  3.5101 -2.7328
  180DOPC   O3122041   6.101   3.615   3.612 -0.0262 -0.5973 -0.4553
  180DOPC   C3122042   5.974   3.647   3.584 -0.9092 -0.1319  0.2953
  180DOPC   O3222043   5.941   3.735   3.506  0.5285  0.9667 -0.6588
  180DOPC   C3222044   5.880   3.581   3.676  0.3670 -0.1572  0.3708
  180DOPC   H2X22045   5.789   3.556   3.617  0.9351 -0.8398 -0.2393
  180DOPC   H2Y22046   5.925   3.484   3.707  1.7900  0.4382  0.2567
  180DOPC   C2322047   6.507   3.268   3.755  0.2700 -0.4933 -0.1011
  180DOPC   H3R22048   6.432   3.261   3.836  0.6093  0.6397  0.3299
  180DOPC   H3S22049   6.570   3.356   3.780 -0.2940 -0.2925  0.6521
  180DOPC   C2422050   6.582   3.128   3.751 -0.2344 -0.5987  0.7320
  180DOPC   H4R22051   6.666   3.133   3.678 -1.7081 -2.1766 -1.2108
  180DOPC   H4S22052   6.510   3.050   3.716 -1.1283  0.0821  0.9957
  180DOPC   C2522053   6.643   3.095   3.883 -0.2286  0.1122  0.3852
  180DOPC   H5R22054   6.717   3.174   3.909 -2.6024  2.2812  1.0184
  180DOPC   H5S22055   6.703   3.002   3.888  1.5871  1.2961  3.3233
  180DOPC   C2622056   6.548   3.094   4.002 -0.3609 -0.4531 -0.7516
  180DOPC   H6R22057   6.465   3.022   3.981 -0.6191 -0.0671 -1.0730
  180DOPC   H6S22058   6.497   3.188   4.032  2.1670  0.9202 -0.5321
  180DOPC   C2722059   6.630   3.057   4.133 -0.0262 -0.6374  0.6324
  180DOPC   H7R22060   6.705   3.132   4.164  0.0306 -0.9309  1.2279
  180DOPC   H7S22061   6.682   2.962   4.108  1.1292 -0.0484  0.7845
  180DOPC   C2822062   6.540   3.042   4.260  0.3118 -0.5257  0.5522
  180DOPC   H8R22063   6.432   3.033   4.234 -0.1761  1.1288  1.8752
  180DOPC   H8S22064   6.536   3.137   4.317 -1.4170  1.0518 -1.9822
  180DOPC   C2922065   6.587   2.925   4.347  0.2165  0.3458 -0.0334
  180DOPC   H9R22066   6.695   2.927   4.365  0.1945 -1.6621  0.5611
  180DOPC  C21022067   6.512   2.822   4.392 -0.8871  0.1158 -0.4782
  180DOPC  H10R22068   6.559   2.746   4.457 -2.7976 -1.2001 -0.5507
  180DOPC  C21122069   6.362   2.790   4.366 -0.0318 -0.1371  0.2425
  180DOPC  H11R22070   6.344   2.690   4.321 -0.9040 -0.8640  2.1446
  180DOPC  H11S22071   6.321   2.863   4.292  3.2874  2.1393  0.3844
  180DOPC  C21222072   6.296   2.802   4.502  1.2816  0.4969 -0.0366
  180DOPC  H12R22073   6.193   2.843   4.499  0.8977 -0.4817 -1.3565
  180DOPC  H12S22074   6.348   2.879   4.564  2.3635 -0.0695 -0.2186
  180DOPC  C21322075   6.290   2.667   4.574  0.1573  0.0776 -0.1021
  180DOPC  H13R22076   6.387   2.661   4.629  0.2701  2.5540  0.0802
  180DOPC  H13S22077   6.280   2.581   4.504  0.5245 -1.1049  1.2282
  180DOPC  C21422078   6.193   2.663   4.695  0.2242 -0.1220  0.1286
  180DOPC  H14R22079   6.188   2.756   4.755  1.9854 -0.7618  1.3441
  180DOPC  H14S22080   6.227   2.596   4.776  0.0107 -0.5476 -0.1315
  180DOPC  C21522081   6.054   2.624   4.644 -0.3000 -1.0362  0.5664
  180DOPC  H15R22082   6.070   2.533   4.582 -1.4843 -0.8688 -0.0045
  180DOPC  H15S22083   6.032   2.708   4.575  0.7632 -0.0219  1.4273
  180DOPC  C21622084   5.959   2.612   4.757  0.2254 -0.0432  0.0155
  180DOPC  H16R22085   5.966   2.699   4.825 -0.2688  0.2158 -0.2563
  180DOPC  H16S22086   5.974   2.515   4.810 -0.2212  0.2021  0.6151
  180DOPC  C21722087   5.805   2.611   4.714 -0.3517  0.1795 -0.1527
  180DOPC  H17R22088   5.795   2.691   4.638 -0.0176 -1.0155 -1.4999
  180DOPC  H17S22089   5.746   2.643   4.803  0.4400 -1.3801  0.9734
  180DOPC  C21822090   5.759   2.477   4.664 -0.3899 -0.4545 -0.2430
  180DOPC  H18R22091   5.652   2.491   4.637 -1.2467  1.1130  3.3239
  180DOPC  H18S22092   5.765   2.391   4.734  0.4482 -0.7948 -0.7195
  180DOPC  H18T22093   5.811   2.434   4.576 -0.7513 -2.4030  0.4465
  180DOPC   C3322094   5.828   3.680   3.782  0.8319 -0.0231 -0.4258
  180DOPC   H3X22095   5.737   3.636   3.828  2.0977 -1.5821  0.6931
  180DOPC   H3Y22096   5.791   3.771   3.730 -0.9281 -0.5592 -0.1916
  180DOPC   C3422097   5.922   3.717   3.897 -0.4182 -0.9611  0.1648
  180DOPC   H4X22098   5.863   3.773   3.973  0.7638  0.1704  0.2938
  180DOPC   H4Y22099   5.999   3.785   3.855  0.4793 -1.6212  0.7027
  180DOPC   C3522100   5.980   3.601   3.971 -0.3193  0.0183  0.5262
  180DOPC   H5X22101   6.044   3.546   3.899  0.3815  0.5372  0.7290
  180DOPC   H5Y22102   5.898   3.538   4.011 -0.0596  0.0801  1.1744
  180DOPC   C3622103   6.063   3.647   4.093  1.0216 -0.3948  0.4815
  180DOPC   H6X22104   6.152   3.582   4.107  1.9046  0.8079  0.6559
  180DOPC   H6Y22105   6.108   3.747   4.076 -0.1527 -0.0031 -0.4831
  180DOPC   C3722106   5.973   3.655   4.216  0.5273  0.1314 -0.8758
  180DOPC   H7X22107   5.895   3.729   4.188  0.6056 -0.3498 -2.5042
  180DOPC   H7Y22108   5.939   3.551   4.235  3.5867 -0.4838  2.1718
  180DOPC   C3822109   6.051   3.701   4.345  0.0704  0.8339  0.0910
  180DOPC   H8X22110   6.088   3.805   4.330 -0.9035  1.2194  0.2717
  180DOPC   H8Y22111   6.136   3.630   4.341 -0.9300 -0.3304 -2.0703
  180DOPC   C3922112   5.966   3.670   4.464 -0.6321 -0.2604 -0.6257
  180DOPC   H9X22113   5.857   3.677   4.457 -0.6830  0.4487  0.6014
  180DOPC  C31022114   6.017   3.630   4.583  0.0475 -0.4465  0.5535
  180DOPC  H10X22115   5.948   3.590   4.658  0.1191  0.2425  0.9867
  180DOPC  C31122116   6.156   3.609   4.620 -0.7794 -0.6543 -0.6460
  180DOPC  H11X22117   6.229   3.630   4.539 -1.1862 -3.2731 -1.7847
  180DOPC  H11Y22118   6.174   3.502   4.645 -1.4389 -0.4568  0.7658
  180DOPC  C31222119   6.196   3.696   4.744  0.0113 -0.8682 -0.1319
  180DOPC  H12X22120   6.127   3.673   4.829  0.1824 -1.9849 -0.2831
  180DOPC  H12Y22121   6.159   3.796   4.712 -0.1965 -0.6686  0.7055
  180DOPC  C31322122   6.344   3.682   4.773  1.1149  0.4611  0.7299
  180DOPC  H13X22123   6.365   3.577   4.803 -0.9418 -0.1920  0.0568
  180DOPC  H13Y22124   6.405   3.708   4.684  0.9171 -0.0099  0.4524
  180DOPC  C31422125   6.394   3.789   4.868  0.3386 -0.6013  0.2662
  180DOPC  H14X22126   6.364   3.892   4.841  1.0646 -0.3072  0.5416
  180DOPC  H14Y22127   6.342   3.778   4.965 -0.9308 -1.7090 -0.5095
  180DOPC  C31522128   6.545   3.781   4.902  0.3083 -0.1549  0.0656
  180DOPC  H15X22129   6.595   3.774   4.804 -1.2231 -0.3373 -0.7347
  180DOPC  H15Y22130   6.571   3.685   4.950 -0.1115  0.6022  1.9099
  180DOPC  C31622131   6.599   3.901   4.987 -0.4174  0.0403 -0.2657
  180DOPC  H16X22132   6.697   3.928   4.942 -1.4286 -0.2320 -2.7741
  180DOPC  H16Y22133   6.528   3.986   4.974 -3.0822 -1.7080  1.6990
  180DOPC  C31722134   6.609   3.869   5.134  1.0694  0.6560  0.2323
  180DOPC  H17X22135   6.506   3.851   5.173  1.5672 -0.4529  1.0980
  180DOPC  H17Y22136   6.666   3.775   5.152 -0.6727 -0.1739  1.8840
  180DOPC  C31822137   6.677   3.974   5.221  0.2485  0.3200 -0.6063
  180DOPC  H18X22138   6.647   3.954   5.326  1.1337  0.1095 -0.3816
  180DOPC  H18Y22139   6.788   3.967   5.212  0.4747  1.1874  1.0455
  180DOPC  H18Z22140   6.638   4.075   5.196 -1.7837 -0.2159  0.2075
  181DOPC     N22141   1.115   4.568   3.050 -0.0970 -0.4911  0.0873
  181DOPC   C1222142   1.114   4.565   3.200 -0.0307 -0.2934 -0.0577
  181DOPC  H12A22143   1.015   4.529   3.225  0.0519 -1.2632 -1.0808
  181DOPC  H12B22144   1.125   4.667   3.235  0.9029 -0.7342  1.0098
  181DOPC   C1322145   1.113   4.430   2.986 -0.4171 -0.9277 -0.4677
  181DOPC  H13A22146   1.120   4.447   2.879  0.9237 -0.9447 -0.3966
  181DOPC  H13B22147   1.200   4.374   3.016 -0.6636 -2.9967 -3.2354
  181DOPC  H13C22148   1.017   4.383   3.001 -1.1828  0.5254 -0.5421
  181DOPC   C1422149   1.234   4.641   3.003 -0.2963 -0.1301 -0.1959
  181DOPC  H14A22150   1.225   4.736   3.054 -3.1986 -0.8698  0.8481
  181DOPC  H14B22151   1.322   4.599   3.049  0.4209  1.7033  0.2007
  181DOPC  H14C22152   1.249   4.646   2.896  1.1537  1.3196  0.0236
  181DOPC   C1522153   0.997   4.641   2.991  0.0048 -0.0023 -0.4434
  181DOPC  H15A22154   0.993   4.747   3.010  0.3088  0.0231 -0.5231
  181DOPC  H15B22155   0.905   4.596   3.025  0.0336  1.2881  1.5313
  181DOPC  H15C22156   0.995   4.626   2.885  1.1609 -3.0672 -0.1294
  181DOPC   C1122157   1.217   4.473   3.274  0.4094  0.0237  0.0131
  181DOPC  H11A22158   1.201   4.469   3.384 -0.0643 -1.0916 -0.0847
  181DOPC  H11B22159   1.200   4.366   3.249  1.2786 -0.6735  2.1173
  181DOPC     P22160   1.476   4.421   3.305  0.1439 -0.3108 -0.1637
  181DOPC   O1322161   1.597   4.501   3.293 -0.3081 -0.3261 -0.1662
  181DOPC   O1422162   1.475   4.284   3.247 -0.4858  0.5818  0.0291
  181DOPC   O1222163   1.354   4.504   3.241 -0.1952  0.9449 -0.3073
  181DOPC   O1122164   1.455   4.408   3.465  0.5733  0.5805  0.5755
  181DOPC    C122165   1.459   4.516   3.550  0.1447  0.3373 -0.2761
  181DOPC    HA22166   1.392   4.598   3.514 -0.3049  1.2169  2.3650
  181DOPC    HB22167   1.563   4.554   3.561  0.3207 -0.6689  1.9462
  181DOPC    C222168   1.401   4.468   3.691 -0.1203  0.4126 -0.7124
  181DOPC    HS22169   1.400   4.557   3.758  5.6347  0.6657 -0.4112
  181DOPC   O2122170   1.490   4.368   3.739  0.2382  0.0634  0.5978
  181DOPC   C2122171   1.589   4.412   3.816  0.0241  0.6439  0.5024
  181DOPC   O2222172   1.614   4.531   3.831  0.1465 -0.0678 -0.5146
  181DOPC   C2222173   1.666   4.297   3.870  0.7900  0.3098  0.7918
  181DOPC   H2R22174   1.776   4.317   3.870  1.0515 -0.5477  4.3386
  181DOPC   H2S22175   1.648   4.207   3.807  2.5977  0.8025 -0.5347
  181DOPC    C322176   1.267   4.392   3.680 -0.1263 -0.4072  0.1231
  181DOPC    HX22177   1.275   4.312   3.603  1.3543 -1.1270  0.9624
  181DOPC    HY22178   1.193   4.461   3.635  0.7236 -0.3536 -1.2497
  181DOPC   O3122179   1.223   4.338   3.806 -0.1008 -0.4586 -0.1959
  181DOPC   C3122180   1.137   4.413   3.873  0.7712 -0.2211  0.7470
  181DOPC   O3222181   1.083   4.515   3.827 -0.0537 -0.3153 -0.1754
  181DOPC   C3222182   1.111   4.355   4.010 -0.4970 -0.1598 -0.6245
  181DOPC   H2X22183   1.120   4.244   4.011 -1.9678 -0.3197  1.3462
  181DOPC   H2Y22184   1.183   4.403   4.080 -0.6640  0.8858 -1.1561
  181DOPC   C2322185   1.639   4.257   4.019  0.2432  0.1584 -0.4792
  181DOPC   H3R22186   1.670   4.347   4.076  1.5487  0.2204 -1.2549
  181DOPC   H3S22187   1.705   4.170   4.039  0.8050  0.6603 -0.1090
  181DOPC   C2422188   1.493   4.219   4.038  0.1263 -0.8233 -0.3886
  181DOPC   H4R22189   1.480   4.146   3.955  1.5135 -0.7629 -0.6848
  181DOPC   H4S22190   1.437   4.313   4.016 -1.2483 -1.9360 -1.8709
  181DOPC   C2522191   1.458   4.160   4.178 -0.0054 -0.7162 -0.4699
  181DOPC   H5R22192   1.469   4.232   4.262  1.0182 -0.6054 -0.6909
  181DOPC   H5S22193   1.542   4.088   4.194  1.3659  0.8634 -0.2686
  181DOPC   C2622194   1.321   4.091   4.169 -0.3831  0.1197  0.2261
  181DOPC   H6R22195   1.292   4.077   4.062  1.7309 -2.3491 -0.1323
  181DOPC   H6S22196   1.251   4.169   4.204  0.6210  0.5133  1.4373
  181DOPC   C2722197   1.309   3.960   4.247  0.6029  0.1338  0.4010
  181DOPC   H7R22198   1.367   3.877   4.203  2.7810  0.5608  2.2874
  181DOPC   H7S22199   1.204   3.926   4.229  0.1062  1.6503  0.2982
  181DOPC   C2822200   1.331   3.971   4.398  0.1506  0.2596 -0.2079
  181DOPC   H8R22201   1.242   3.921   4.443  2.4986 -2.2952  1.9569
  181DOPC   H8S22202   1.314   4.077   4.428  1.4379  0.1774  0.9273
  181DOPC   C2922203   1.466   3.938   4.456  0.0964  0.1820 -0.3199
  181DOPC   H9R22204   1.547   4.007   4.429  0.2931 -0.5514 -1.6865
  181DOPC  C21022205   1.496   3.835   4.533  0.2257  0.6534  0.4976
  181DOPC  H10R22206   1.592   3.827   4.586  0.2181  0.1923  0.4515
  181DOPC  C21122207   1.404   3.721   4.575  0.3546 -0.1321  0.4269
  181DOPC  H11R22208   1.455   3.623   4.572 -0.5619 -0.6227  0.4665
  181DOPC  H11S22209   1.311   3.727   4.514  0.5880 -0.3384  0.0492
  181DOPC  C21222210   1.378   3.734   4.730  0.1697  0.4475  0.6790
  181DOPC  H12R22211   1.470   3.736   4.792  0.6736 -2.1383  0.1218
  181DOPC  H12S22212   1.326   3.641   4.763 -0.8104  1.0846  0.9633
  181DOPC  C21322213   1.285   3.851   4.771  0.0763 -0.3875 -0.1770
  181DOPC  H13R22214   1.193   3.834   4.712 -0.5955  2.6153 -0.1298
  181DOPC  H13S22215   1.337   3.945   4.745  1.4603 -0.9985  0.2556
  181DOPC  C21422216   1.248   3.847   4.921 -0.1482  0.6138 -0.6773
  181DOPC  H14R22217   1.337   3.833   4.986  0.2711  0.7816 -1.2064
  181DOPC  H14S22218   1.190   3.754   4.945 -0.6242  0.4816 -2.2325
  181DOPC  C21522219   1.177   3.973   4.968 -0.2468  0.3978 -0.1898
  181DOPC  H15R22220   1.233   4.069   4.978 -1.8790  1.4683 -0.9355
  181DOPC  H15S22221   1.143   3.955   5.072 -1.5684 -0.3771 -0.7332
  181DOPC  C21622222   1.050   3.996   4.881 -0.1285  0.4760  0.0371
  181DOPC  H16R22223   1.001   3.898   4.864 -0.6688  0.6047  0.8051
  181DOPC  H16S22224   1.087   4.032   4.783  2.9627  0.6688  1.1547
  181DOPC  C21722225   0.940   4.082   4.952 -0.5959  0.0152 -0.2840
  181DOPC  H17R22226   0.921   4.040   5.053 -1.6196  2.6593  0.7228
  181DOPC  H17S22227   0.843   4.077   4.897 -0.1451  0.6288 -1.1511
  181DOPC  C21822228   0.982   4.231   4.961 -0.3065 -0.7984  0.0353
  181DOPC  H18R22229   0.980   4.281   4.862 -0.2149 -0.5164  0.1737
  181DOPC  H18S22230   1.087   4.247   4.994 -0.9538  3.9726  0.4925
  181DOPC  H18T22231   0.920   4.283   5.038 -0.2113 -2.5015  1.3166
  181DOPC   C3322232   0.972   4.386   4.069 -0.3857 -0.0324 -0.2739
  181DOPC   H3X22233   0.894   4.340   4.005  0.4330  0.3374 -1.5559
  181DOPC   H3Y22234   0.966   4.497   4.065 -1.0225 -0.1082 -1.9027
  181DOPC   C3422235   0.956   4.340   4.213 -0.8165  0.2417 -0.4387
  181DOPC   H4X22236   1.022   4.385   4.290 -1.7009 -1.2535  1.2668
  181DOPC   H4Y22237   0.989   4.234   4.209  1.8569  0.9416  0.6299
  181DOPC   C3522238   0.816   4.367   4.266  0.0391 -0.0299  0.0356
  181DOPC   H5X22239   0.793   4.272   4.319  0.6421 -1.8064 -2.6861
  181DOPC   H5Y22240   0.745   4.382   4.182  0.2555 -3.4832 -0.9116
  181DOPC   C3622241   0.804   4.493   4.355  0.3436 -0.1978  0.6024
  181DOPC   H6X22242   0.851   4.455   4.448  0.7857  0.6592  0.7394
  181DOPC   H6Y22243   0.867   4.578   4.321 -2.6053  0.7789 -3.0835
  181DOPC   C3722244   0.670   4.554   4.382 -0.1463 -0.2182  0.0140
  181DOPC   H7X22245   0.673   4.637   4.455  0.1109  1.1728 -1.5045
  181DOPC   H7Y22246   0.651   4.612   4.289  1.2619  0.0631 -0.1192
  181DOPC   C3822247   0.555   4.463   4.411 -0.1273  0.7256  0.3124
  181DOPC   H8X22248   0.560   4.358   4.374 -0.1546  0.5790  0.7180
  181DOPC   H8Y22249   0.460   4.509   4.375 -0.3173  0.1216  0.0163
  181DOPC   C3922250   0.550   4.448   4.560  0.1765  0.3101 -0.0789
  181DOPC   H9X22251   0.651   4.419   4.592  0.9559  1.4078 -1.4128
  181DOPC  C31022252   0.447   4.459   4.643 -0.8269 -0.2253  0.3806
  181DOPC  H10X22253   0.472   4.437   4.748  1.8984  0.2965 -0.0779
  181DOPC  C31122254   0.301   4.471   4.600 -0.1173 -0.0391 -0.2807
  181DOPC  H11X22255   0.230   4.417   4.666  0.1519 -0.8254 -0.6267
  181DOPC  H11Y22256   0.286   4.418   4.503  0.1758 -0.5363 -0.0578
  181DOPC  C31222257   0.262   4.620   4.575  0.6771  0.2333 -0.1551
  181DOPC  H12X22258   0.325   4.658   4.492 -0.2145  0.7634 -0.6087
  181DOPC  H12Y22259   0.280   4.679   4.667 -0.1275 -2.1278  1.5945
  181DOPC  C31322260   0.113   4.626   4.550  1.6651  0.2199  0.2424
  181DOPC  H13X22261   0.097   4.585   4.447 -2.9541 -1.2873  1.3127
  181DOPC  H13Y22262   0.054   4.546   4.600  1.2763  1.3500  1.6388
  181DOPC  C31422263   0.053   4.759   4.580 -0.3853  0.2339  0.2273
  181DOPC  H14X22264   0.085   4.796   4.680  0.8612  0.0692 -0.0911
  181DOPC  H14Y22265   0.086   4.830   4.501  1.3631  0.6795  1.2934
  181DOPC  C31522266  -0.096   4.763   4.577 -0.4454  0.3749  0.5660
  181DOPC  H15X22267  -0.131   4.686   4.649  0.5789 -0.4959  0.1544
  181DOPC  H15Y22268  -0.124   4.720   4.478 -0.9731 -1.8151  1.6030
  181DOPC  C31622269  -0.142   4.905   4.604  0.3441 -0.7079 -0.4579
  181DOPC  H16X22270  -0.106   4.945   4.702  1.7448  0.2707 -1.3347
  181DOPC  H16Y22271  -0.097   4.973   4.529 -1.8718  2.2028  0.6882
  181DOPC  C31722272  -0.293   4.923   4.597  0.0935 -0.9525 -0.1888
  181DOPC  H17X22273  -0.322   4.890   4.495  0.6827 -2.0663 -0.0115
  181DOPC  H17Y22274  -0.352   4.864   4.670  0.1831  0.6328  1.2100
  181DOPC  C31822275  -0.334   5.067   4.610 -0.4321 -0.4810  0.4329
  181DOPC  H18X22276  -0.276   5.138   4.546  0.2488  0.7681  2.3505
  181DOPC  H18Y22277  -0.443   5.081   4.593 -1.0270 -2.9328  1.7837
  181DOPC  H18Z22278  -0.312   5.097   4.714  1.8203 -0.1385 -0.0882
  182DOPC     N22279   0.396   0.107   2.424 -0.6833 -0.2710 -0.3166
  182DOPC   C1222280   0.403   0.172   2.560  0.9441  0.7666 -0.1254
  182DOPC  H12A22281   0.370   0.100   2.634  1.3871  0.6127 -0.0720
  182DOPC  H12B22282   0.323   0.244   2.560  2.2579  2.3059  0.7819
  182DOPC   C1322283   0.268   0.030   2.418 -0.4397 -0.1887  0.4413
  182DOPC  H13A22284   0.218   0.048   2.324 -0.9983  3.5038  1.2791
  182DOPC  H13B22285   0.303  -0.072   2.430 -1.4690 -0.8865 -1.9624
  182DOPC  H13C22286   0.196   0.063   2.492 -0.7687  0.2382 -0.0669
  182DOPC   C1422287   0.508   0.017   2.395 -0.0438  1.1594 -0.4446
  182DOPC  H14A22288   0.602   0.071   2.399  0.9741 -0.5936  1.2430
  182DOPC  H14B22289   0.522  -0.063   2.466 -2.1590  0.1234 -1.1145
  182DOPC  H14C22290   0.511  -0.033   2.299 -0.0737  1.6575 -0.7058
  182DOPC   C1522291   0.390   0.215   2.322 -0.2559 -0.5244 -0.0295
  182DOPC  H15A22292   0.300   0.273   2.325 -0.7704 -1.2656  3.5284
  182DOPC  H15B22293   0.411   0.185   2.220  2.8797 -0.9364  0.6127
  182DOPC  H15C22294   0.477   0.275   2.347 -1.0443  0.4278  0.4633
  182DOPC   C1122295   0.534   0.243   2.612 -0.2121 -0.0286 -0.3834
  182DOPC  H11A22296   0.518   0.307   2.701 -0.3358  1.0342 -1.1495
  182DOPC  H11B22297   0.601   0.161   2.643 -0.5154 -0.5974 -1.2037
  182DOPC     P22298   0.620   0.464   2.492  0.0830 -0.4581  0.0617
  182DOPC   O1322299   0.578   0.507   2.357 -0.0135 -0.4011 -0.3912
  182DOPC   O1422300   0.758   0.496   2.532 -0.4256  0.0711  0.1584
  182DOPC   O1222301   0.605   0.309   2.502  0.2004  0.4279 -1.0470
  182DOPC   O1122302   0.510   0.523   2.598 -0.1130 -0.0291  0.3995
  182DOPC    C122303   0.572   0.637   2.670  0.4748 -0.6575 -0.6963
  182DOPC    HA22304   0.497   0.712   2.702  1.4319 -0.4667  1.2440
  182DOPC    HB22305   0.649   0.691   2.611  1.6903  0.0779  1.4272
  182DOPC    C222306   0.643   0.593   2.802 -0.4925 -0.4083 -0.6593
  182DOPC    HS22307   0.702   0.502   2.778  0.3673 -0.6698  2.1245
  182DOPC   O2122308   0.552   0.564   2.904  0.6163 -0.2435 -0.2371
  182DOPC   C2122309   0.553   0.450   2.962  0.1380 -0.3336 -0.0154
  182DOPC   O2222310   0.626   0.359   2.933  0.4349 -0.1937 -0.3312
  182DOPC   C2222311   0.443   0.448   3.071 -0.3914  0.5680  0.8309
  182DOPC   H2R22312   0.359   0.393   3.024  1.3960 -1.3519 -0.2546
  182DOPC   H2S22313   0.411   0.552   3.094 -1.1880  1.2759 -2.8796
  182DOPC    C322314   0.739   0.698   2.856 -0.3672 -0.5544 -0.0636
  182DOPC    HX22315   0.675   0.782   2.891  1.4301  0.1104  1.8089
  182DOPC    HY22316   0.810   0.728   2.777  0.6193 -0.6661  0.7652
  182DOPC   O3122317   0.816   0.641   2.962 -0.2618  0.3545 -0.2544
  182DOPC   C3122318   0.803   0.684   3.081 -0.2830  0.2910  0.3030
  182DOPC   O3222319   0.724   0.770   3.119 -0.8000 -0.0818  0.1826
  182DOPC   C3222320   0.909   0.623   3.172 -0.8881  0.2108 -0.8782
  182DOPC   H2X22321   0.965   0.706   3.219 -0.1457 -0.9769  0.4139
  182DOPC   H2Y22322   0.850   0.567   3.247  0.9617  0.9084  1.1944
  182DOPC   C2322323   0.480   0.361   3.195 -0.1852  0.9577 -0.6493
  182DOPC   H3R22324   0.538   0.272   3.164  0.6877  0.1795  2.8210
  182DOPC   H3S22325   0.381   0.333   3.236 -0.5868  2.3664 -0.6058
  182DOPC   C2422326   0.561   0.433   3.305 -0.2632  0.2527  0.8783
  182DOPC   H4R22327   0.498   0.517   3.342 -1.1012 -0.5568  1.3630
  182DOPC   H4S22328   0.659   0.469   3.268 -0.1107  0.6556  1.6681
  182DOPC   C2522329   0.583   0.355   3.437  0.9627  0.4708  0.8743
  182DOPC   H5R22330   0.498   0.286   3.457 -0.6842  1.9263 -0.6536
  182DOPC   H5S22331   0.586   0.425   3.522 -1.6284  0.4315  1.0990
  182DOPC   C2622332   0.704   0.268   3.430 -0.4904  0.4992  0.8006
  182DOPC   H6R22333   0.719   0.250   3.539  2.4940  0.3276  0.4517
  182DOPC   H6S22334   0.788   0.333   3.398  0.0670  1.2833  3.6249
  182DOPC   C2722335   0.687   0.133   3.358  0.1333 -0.4088 -0.3454
  182DOPC   H7R22336   0.701   0.150   3.249 -1.0221  2.0483 -0.1638
  182DOPC   H7S22337   0.582   0.103   3.378 -0.9488  2.7013 -0.8794
  182DOPC   C2822338   0.795   0.029   3.414 -0.5241  0.2615 -0.7813
  182DOPC   H8R22339   0.781  -0.071   3.365 -0.0936 -0.0860 -0.2102
  182DOPC   H8S22340   0.775   0.023   3.523 -1.2133 -3.0628 -0.9773
  182DOPC   C2922341   0.939   0.076   3.379 -0.0270 -0.4637  0.1135
  182DOPC   H9R22342   0.959   0.075   3.270  0.4956  1.0860  0.1712
  182DOPC  C21022343   1.048   0.105   3.457  0.2259  0.1836  0.0837
  182DOPC  H10R22344   1.145   0.128   3.410  1.0055 -1.6613  0.7182
  182DOPC  C21122345   1.033   0.113   3.612 -0.3707  0.0220  0.5299
  182DOPC  H11R22346   0.929   0.132   3.647  0.5005  0.5050  3.0409
  182DOPC  H11S22347   1.084   0.206   3.644 -0.3750  0.9432 -1.9073
  182DOPC  C21222348   1.083  -0.023   3.676 -0.2685 -0.3158 -0.2306
  182DOPC  H12R22349   1.186  -0.043   3.640  0.1385  0.8646  0.2234
  182DOPC  H12S22350   1.020  -0.105   3.635  1.7308 -0.4874 -3.2603
  182DOPC  C21322351   1.085  -0.016   3.825  0.6035  0.0852 -0.3515
  182DOPC  H13R22352   0.980  -0.012   3.861  0.1206  0.9171 -1.7446
  182DOPC  H13S22353   1.138   0.076   3.858 -1.0873  1.3039 -0.8488
  182DOPC  C21422354   1.153  -0.139   3.891 -0.1304  0.0874  0.1582
  182DOPC  H14R22355   1.261  -0.128   3.869  0.2905  1.5064  2.4965
  182DOPC  H14S22356   1.103  -0.229   3.851  0.5989 -1.4185  2.4290
  182DOPC  C21522357   1.137  -0.137   4.046  0.4250  0.3011  0.4532
  182DOPC  H15R22358   1.044  -0.189   4.076  1.5188 -3.1896 -1.5874
  182DOPC  H15S22359   1.125  -0.030   4.074 -0.7751  0.4645 -0.6400
  182DOPC  C21622360   1.254  -0.192   4.127 -0.1676 -0.1133  0.1658
  182DOPC  H16R22361   1.354  -0.149   4.103  0.4751 -0.7867  1.5302
  182DOPC  H16S22362   1.264  -0.302   4.117  0.7797 -0.0301  0.0550
  182DOPC  C21722363   1.229  -0.166   4.281  0.1941  0.1767  0.2799
  182DOPC  H17R22364   1.123  -0.174   4.312  0.6792 -1.3260  1.7234
  182DOPC  H17S22365   1.254  -0.058   4.293  0.9681  0.2530 -1.6712
  182DOPC  C21822366   1.314  -0.246   4.372  0.0947  0.7526 -0.1930
  182DOPC  H18R22367   1.421  -0.222   4.353  0.4910 -1.1370 -0.5570
  182DOPC  H18S22368   1.301  -0.356   4.365  0.1961  0.6407  1.1354
  182DOPC  H18T22369   1.289  -0.223   4.477 -0.5615 -2.3248  0.4132
  182DOPC   C3322370   1.007   0.522   3.103 -0.5058  0.3282 -0.7070
  182DOPC   H3X22371   1.077   0.574   3.036  0.4737 -0.9600 -0.7202
  182DOPC   H3Y22372   0.960   0.441   3.043 -0.1369  1.3924 -2.4810
  182DOPC   C3422373   1.088   0.451   3.211  0.2465  0.2596  0.4747
  182DOPC   H4X22374   1.171   0.395   3.163  0.9865 -1.1708  3.2002
  182DOPC   H4Y22375   1.020   0.389   3.273 -3.3924  2.3653 -1.1186
  182DOPC   C3522376   1.175   0.540   3.303 -0.2938 -0.4641 -0.0125
  182DOPC   H5X22377   1.114   0.615   3.358 -0.0956 -0.8434  0.7449
  182DOPC   H5Y22378   1.247   0.601   3.244  1.2496  0.5999  2.7724
  182DOPC   C3622379   1.249   0.469   3.415 -0.0903  0.1278 -0.0749
  182DOPC   H6X22380   1.176   0.419   3.482 -0.6964 -1.2313 -1.6736
  182DOPC   H6Y22381   1.305   0.389   3.362  0.3260  0.3727 -0.0103
  182DOPC   C3722382   1.344   0.565   3.485  0.1399 -0.8277 -0.3402
  182DOPC   H7X22383   1.391   0.619   3.401 -0.1918  0.1996  0.1247
  182DOPC   H7Y22384   1.293   0.646   3.541 -0.8713 -0.2878 -1.9687
  182DOPC   C3822385   1.445   0.513   3.586 -0.4109 -0.0286 -0.0906
  182DOPC   H8X22386   1.515   0.591   3.624 -1.9263  1.8970 -1.0557
  182DOPC   H8Y22387   1.515   0.455   3.522 -1.5706  0.3355 -1.7387
  182DOPC   C3922388   1.383   0.433   3.697  0.7354  0.3626  0.3262
  182DOPC   H9X22389   1.340   0.337   3.666  1.0614  0.6261 -0.9999
  182DOPC  C31022390   1.391   0.458   3.828 -0.4627 -0.1400  0.6945
  182DOPC  H10X22391   1.355   0.381   3.897  3.4060 -0.7264  2.2916
  182DOPC  C31122392   1.475   0.564   3.897  0.1839 -0.0958 -0.3950
  182DOPC  H11X22393   1.521   0.644   3.834 -0.6764  1.5228  0.9295
  182DOPC  H11Y22394   1.549   0.513   3.962  1.4419  1.9702 -0.0789
  182DOPC  C31222395   1.386   0.652   3.997  0.2891  0.0907  0.7407
  182DOPC  H12X22396   1.464   0.718   4.040  1.9490 -0.2755 -1.5331
  182DOPC  H12Y22397   1.344   0.596   4.083  2.7902 -3.9553 -0.4132
  182DOPC  C31322398   1.289   0.747   3.919  0.5920  0.0838 -0.6036
  182DOPC  H13X22399   1.336   0.787   3.827 -0.1179  0.8884 -0.6252
  182DOPC  H13Y22400   1.199   0.695   3.880 -2.2959  3.9023  0.3369
  182DOPC  C31422401   1.249   0.873   4.012  0.6889 -0.3118 -0.4717
  182DOPC  H14X22402   1.218   0.834   4.112 -0.7146  1.7941 -0.0198
  182DOPC  H14Y22403   1.329   0.939   4.050 -0.4942  0.0998  1.4502
  182DOPC  C31522404   1.135   0.953   3.950 -0.3374  0.3395  1.0974
  182DOPC  H15X22405   1.085   1.015   4.028 -0.1786 -1.4748  2.7311
  182DOPC  H15Y22406   1.071   0.878   3.898  0.9568  1.0653 -1.7369
  182DOPC  C31622407   1.188   1.049   3.839 -0.6879  0.1982  0.2321
  182DOPC  H16X22408   1.245   1.136   3.878 -2.9586  1.3030  1.2296
  182DOPC  H16Y22409   1.255   0.987   3.774 -1.0081  0.9785 -0.8605
  182DOPC  C31722410   1.071   1.094   3.757 -0.3874  0.2245  0.2018
  182DOPC  H17X22411   1.106   1.154   3.671  1.4777  1.1184  1.5071
  182DOPC  H17Y22412   1.021   1.005   3.712  1.7611 -0.9505 -0.0322
  182DOPC  C31822413   0.968   1.178   3.839  0.2715  0.3688 -0.2340
  182DOPC  H18X22414   0.872   1.191   3.785 -0.4093 -1.4674  0.4664
  182DOPC  H18Y22415   0.944   1.124   3.933  0.0203 -0.7744 -0.9287
  182DOPC  H18Z22416   1.019   1.274   3.862  0.5330  0.3261 -0.6145
  183DOPC     N22417   6.658   5.305   2.715  0.4419  0.1007  0.5418
  183DOPC   C1222418   6.788   5.354   2.644  0.2249  0.0992  0.2233
  183DOPC  H12A22419   6.758   5.422   2.566  1.6965 -0.1810 -0.6269
  183DOPC  H12B22420   6.826   5.267   2.592 -1.1840  0.1311 -0.9143
  183DOPC   C1322421   6.587   5.420   2.777  0.0399  0.4240 -0.1673
  183DOPC  H13A22422   6.636   5.439   2.872  1.6713 -1.5253 -0.5347
  183DOPC  H13B22423   6.585   5.502   2.707 -1.7583 -0.1493 -0.8481
  183DOPC  H13C22424   6.485   5.394   2.802  0.4469 -1.7558 -0.5233
  183DOPC   C1422425   6.683   5.202   2.811 -0.2175 -0.2796  1.5860
  183DOPC  H14A22426   6.734   5.122   2.760 -0.7684  1.5873 -2.2642
  183DOPC  H14B22427   6.758   5.237   2.880  2.2887  0.3673 -1.2759
  183DOPC  H14C22428   6.590   5.167   2.853 -1.1023 -0.3688 -0.3296
  183DOPC   C1522429   6.571   5.264   2.604  0.6981  0.3458 -0.0289
  183DOPC  H15A22430   6.487   5.201   2.632  1.5512 -1.1397 -0.6956
  183DOPC  H15B22431   6.633   5.228   2.523  1.5838  2.8617 -0.5703
  183DOPC  H15C22432   6.517   5.351   2.568 -0.2602 -0.1427  0.1774
  183DOPC   C1122433   6.889   5.427   2.734 -0.1591  0.1694 -0.0873
  183DOPC  H11A22434   6.967   5.476   2.671 -0.0526 -0.3697 -0.3813
  183DOPC  H11B22435   6.836   5.515   2.775  3.2688  2.3131  0.1614
  183DOPC     P22436   7.068   5.255   2.818  0.3792  0.0072  0.1094
  183DOPC   O1322437   7.180   5.355   2.796  0.3237 -0.2042 -0.2171
  183DOPC   O1422438   7.043   5.150   2.717  0.2931 -0.6384 -0.3582
  183DOPC   O1222439   6.937   5.348   2.836  0.1195  0.8116 -0.7259
  183DOPC   O1122440   7.100   5.187   2.959 -0.4552  0.3879 -0.3344
  183DOPC    C122441   7.001   5.099   3.023  0.1051 -0.1110 -0.8137
  183DOPC    HA22442   7.054   5.001   3.026  1.8877  0.8160 -1.1061
  183DOPC    HB22443   6.907   5.091   2.964 -0.8161  1.6528  0.3449
  183DOPC    C222444   6.970   5.156   3.163  0.1501 -0.3155 -0.4005
  183DOPC    HS22445   7.063   5.148   3.223  0.4589 -2.7384 -1.0988
  183DOPC   O2122446   6.878   5.074   3.239  0.3370  0.0398 -0.2495
  183DOPC   C2122447   6.912   4.953   3.266 -0.7299  0.2628  0.3975
  183DOPC   O2222448   7.020   4.904   3.234  0.9344  0.3933 -0.1260
  183DOPC   C2222449   6.792   4.887   3.335  0.3960  0.1756 -0.4796
  183DOPC   H2R22450   6.741   4.823   3.259  1.8005 -0.7188 -0.7008
  183DOPC   H2S22451   6.723   4.965   3.372  1.5473  0.6788  0.6808
  183DOPC    C322452   6.924   5.304   3.173 -0.1717  0.2802  0.5676
  183DOPC    HX22453   6.828   5.315   3.118 -0.0727 -1.9207 -0.1309
  183DOPC    HY22454   7.005   5.365   3.127  0.9230  0.0526  2.0901
  183DOPC   O3122455   6.923   5.357   3.305  0.2695 -0.2394  0.2713
  183DOPC   C3122456   6.812   5.368   3.373  0.2197 -0.4336  0.1981
  183DOPC   O3222457   6.699   5.358   3.328  0.1176  0.4439 -0.3883
  183DOPC   C3222458   6.864   5.406   3.512 -0.2786 -0.0901 -0.3859
  183DOPC   H2X22459   6.973   5.382   3.516 -0.3873 -0.4260  1.0244
  183DOPC   H2Y22460   6.834   5.513   3.519  1.1312  0.2027  3.1505
  183DOPC   C2322461   6.826   4.817   3.465 -0.1506  0.4945 -0.1515
  183DOPC   H3R22462   6.829   4.887   3.551  1.0774 -1.0715  1.1539
  183DOPC   H3S22463   6.923   4.763   3.459 -1.9911 -3.2512  0.6193
  183DOPC   C2422464   6.719   4.709   3.496  0.2862 -0.0319 -0.4336
  183DOPC   H4R22465   6.711   4.633   3.415  0.8221 -1.2602  0.6235
  183DOPC   H4S22466   6.619   4.757   3.508  0.3942  0.4341 -1.3541
  183DOPC   C2522467   6.751   4.622   3.624 -0.2398 -0.2546 -0.7880
  183DOPC   H5R22468   6.806   4.686   3.697 -1.0213 -1.0867  0.5684
  183DOPC   H5S22469   6.819   4.536   3.611  0.7157  0.2153  0.8314
  183DOPC   C2622470   6.629   4.562   3.714  0.2971  0.1386  0.3194
  183DOPC   H6R22471   6.547   4.636   3.729 -0.2238 -0.0259 -1.4546
  183DOPC   H6S22472   6.668   4.529   3.813  2.1026  1.0245 -0.0608
  183DOPC   C2722473   6.564   4.455   3.629  0.5291 -0.7121 -0.1483
  183DOPC   H7R22474   6.648   4.395   3.587  1.4227 -0.3928  1.1528
  183DOPC   H7S22475   6.510   4.500   3.542  0.8034  1.2124  0.6185
  183DOPC   C2822476   6.468   4.360   3.707  0.0178 -0.0233 -0.6547
  183DOPC   H8R22477   6.399   4.312   3.634 -0.3981 -0.4328 -0.0002
  183DOPC   H8S22478   6.393   4.422   3.760 -0.8467  0.6999 -2.5989
  183DOPC   C2922479   6.524   4.265   3.804 -0.2815 -0.3519  0.1722
  183DOPC   H9R22480   6.567   4.177   3.754 -0.4832 -0.6321  0.4872
  183DOPC  C21022481   6.521   4.260   3.940 -0.0163 -0.0732  0.7405
  183DOPC  H10R22482   6.589   4.192   3.992  0.0147 -0.0996  0.6647
  183DOPC  C21122483   6.465   4.371   4.023 -0.2151 -0.3792  0.7398
  183DOPC  H11R22484   6.355   4.370   4.041 -0.1114 -1.5650  1.4396
  183DOPC  H11S22485   6.492   4.463   3.968  2.0784 -1.2667  0.2495
  183DOPC  C21222486   6.549   4.380   4.160 -0.4122  0.2845 -0.6601
  183DOPC  H12R22487   6.655   4.394   4.130 -0.3260  0.9674 -0.0651
  183DOPC  H12S22488   6.544   4.283   4.213 -2.1628  1.1470  0.8933
  183DOPC  C21322489   6.499   4.492   4.247 -0.5727  0.8525 -0.3091
  183DOPC  H13R22490   6.400   4.465   4.290  0.2885  0.4206  1.5099
  183DOPC  H13S22491   6.491   4.583   4.184  0.9744  1.4934  0.3662
  183DOPC  C21422492   6.592   4.514   4.365 -0.1360  0.2401  0.1025
  183DOPC  H14R22493   6.686   4.561   4.327 -0.5326 -0.8565 -2.4479
  183DOPC  H14S22494   6.618   4.419   4.415 -1.3389  0.1618  0.6065
  183DOPC  C21522495   6.525   4.603   4.469 -0.2988  0.2425 -0.2144
  183DOPC  H15R22496   6.451   4.542   4.526 -1.1597  0.0390 -1.5023
  183DOPC  H15S22497   6.474   4.683   4.410 -1.0759 -0.6025 -0.7120
  183DOPC  C21622498   6.627   4.653   4.569  0.3972  0.4615 -0.4431
  183DOPC  H16R22499   6.672   4.740   4.517 -2.3015  1.0128 -2.1012
  183DOPC  H16S22500   6.699   4.571   4.588  1.4590  1.6597  0.8520
  183DOPC  C21722501   6.568   4.707   4.706 -0.7665  0.4362  0.9368
  183DOPC  H17R22502   6.642   4.748   4.779  0.7632  1.6034 -1.1713
  183DOPC  H17S22503   6.513   4.627   4.760 -2.1398  1.6758  1.4182
  183DOPC  C21822504   6.463   4.814   4.683  0.2251  0.1462  0.1690
  183DOPC  H18R22505   6.417   4.848   4.779 -0.0598  0.7704 -0.1793
  183DOPC  H18S22506   6.380   4.772   4.623 -0.8951 -0.2640  1.9244
  183DOPC  H18T22507   6.509   4.899   4.628  1.7997 -1.1524 -0.6026
  183DOPC   C3322508   6.785   5.324   3.619 -0.0781 -0.1727  0.0476
  183DOPC   H3X22509   6.800   5.215   3.600 -0.7097 -0.0284 -1.4795
  183DOPC   H3Y22510   6.676   5.348   3.610 -0.3052 -1.7302 -2.5749
  183DOPC   C3422511   6.834   5.367   3.755 -0.0348  0.2598  0.1957
  183DOPC   H4X22512   6.842   5.477   3.757 -2.4368  0.4837 -0.1855
  183DOPC   H4Y22513   6.931   5.322   3.788 -1.3914 -2.5870  0.6471
  183DOPC   C3522514   6.741   5.329   3.877  0.5043 -0.6593  0.5483
  183DOPC   H5X22515   6.708   5.224   3.868  1.2440 -0.9233  0.8727
  183DOPC   H5Y22516   6.647   5.384   3.856  1.8532  1.0619 -1.4667
  183DOPC   C3622517   6.793   5.373   4.016  0.0128  0.2204 -0.8325
  183DOPC   H6X22518   6.869   5.300   4.050  0.1518  0.5191 -0.5085
  183DOPC   H6Y22519   6.837   5.473   3.995  0.7952 -0.3477 -1.9960
  183DOPC   C3722520   6.686   5.393   4.126 -0.5591 -0.0177  0.2078
  183DOPC   H7X22521   6.599   5.449   4.085 -0.2459  0.6089  0.3867
  183DOPC   H7Y22522   6.656   5.293   4.165  1.6266 -0.5276  0.7110
  183DOPC   C3822523   6.730   5.481   4.247  0.2710  0.4372  0.2013
  183DOPC   H8X22524   6.824   5.437   4.288  0.4291  0.8736  0.3128
  183DOPC   H8Y22525   6.655   5.463   4.327  0.6955 -1.7247  0.1677
  183DOPC   C3922526   6.747   5.627   4.231  0.1694 -0.0929 -0.4565
  183DOPC   H9X22527   6.667   5.677   4.174  0.8821  0.4563 -1.0022
  183DOPC  C31022528   6.851   5.709   4.260  0.1503 -0.4759 -0.5304
  183DOPC  H10X22529   6.849   5.806   4.208 -0.8070 -1.4197 -2.3311
  183DOPC  C31122530   6.983   5.668   4.325  0.2624  0.0088  0.0358
  183DOPC  H11X22531   7.069   5.725   4.285 -0.2157  1.5925  1.1748
  183DOPC  H11Y22532   7.005   5.560   4.311 -3.5700 -0.6824 -2.0133
  183DOPC  C31222533   6.992   5.696   4.481 -0.9510 -0.1731  0.5760
  183DOPC  H12X22534   6.991   5.805   4.502  2.0338 -0.0230  0.4102
  183DOPC  H12Y22535   7.100   5.675   4.498 -0.9912 -1.4162 -0.4803
  183DOPC  C31322536   6.882   5.636   4.567  0.3044  0.0485 -0.0230
  183DOPC  H13X22537   6.796   5.707   4.572  0.4502  0.2190  0.1213
  183DOPC  H13Y22538   6.840   5.543   4.525 -0.7411  0.5261 -0.0714
  183DOPC  C31422539   6.933   5.602   4.707 -0.2094  0.8474 -0.5635
  183DOPC  H14X22540   7.006   5.518   4.703 -0.5419  0.3686  1.8207
  183DOPC  H14Y22541   6.981   5.686   4.762  0.9494  0.4177 -0.8858
  183DOPC  C31522542   6.816   5.549   4.799 -0.0827  0.4945  0.2375
  183DOPC  H15X22543   6.786   5.459   4.742 -1.2595  2.1705 -1.9541
  183DOPC  H15Y22544   6.731   5.619   4.809  1.6313  2.8248 -0.5778
  183DOPC  C31622545   6.860   5.515   4.941  0.0302  0.1404 -0.3360
  183DOPC  H16X22546   6.961   5.470   4.927 -0.1321  0.1025 -1.4196
  183DOPC  H16Y22547   6.875   5.612   4.994 -2.0886 -0.0117  0.6356
  183DOPC  C31722548   6.757   5.421   5.006  0.6552  0.2776 -0.2623
  183DOPC  H17X22549   6.653   5.459   4.996  0.3654 -1.0231 -3.4696
  183DOPC  H17Y22550   6.757   5.323   4.954 -1.9560 -0.6713  1.2675
  183DOPC  C31822551   6.797   5.385   5.150  0.2629 -0.1119 -0.0163
  183DOPC  H18X22552   6.818   5.476   5.210 -0.5742  0.3232 -0.3621
  183DOPC  H18Y22553   6.726   5.317   5.201 -0.4533  1.7742  1.5801
  183DOPC  H18Z22554   6.894   5.331   5.142  0.7141  0.7850 -0.8497
  184DOPC     N22555   4.453   1.904   2.779 -0.2531  1.1321 -0.3122
  184DOPC   C1222556   4.568   1.855   2.875  0.1730 -0.3940 -0.4044
  184DOPC  H12A22557   4.538   1.883   2.975  2.5404  1.2697 -0.0675
  184DOPC  H12B22558   4.665   1.901   2.864  1.3337 -1.9684  2.2087
  184DOPC   C1322559   4.314   1.855   2.815 -0.2248  0.2626 -0.9590
  184DOPC  H13A22560   4.319   1.747   2.817 -0.3867  0.2626 -0.3509
  184DOPC  H13B22561   4.287   1.880   2.916  2.7640 -3.7474  1.1274
  184DOPC  H13C22562   4.241   1.891   2.743 -0.7804  1.8622  0.3575
  184DOPC   C1422563   4.479   1.860   2.638 -0.4918 -0.2471 -0.2686
  184DOPC  H14A22564   4.491   1.753   2.644 -0.0571 -0.1542  0.7488
  184DOPC  H14B22565   4.392   1.879   2.577  0.9725  0.8901 -2.1471
  184DOPC  H14C22566   4.574   1.895   2.600 -0.9874  4.2456  1.8648
  184DOPC   C1522567   4.456   2.048   2.777 -0.3949 -0.1062  0.1318
  184DOPC  H15A22568   4.384   2.087   2.707  0.0987 -2.7287 -2.0503
  184DOPC  H15B22569   4.551   2.084   2.738  0.1569 -0.6448  0.9388
  184DOPC  H15C22570   4.447   2.092   2.874  0.7990  0.6009 -0.0558
  184DOPC   C1122571   4.589   1.703   2.891  0.1387 -0.1203  0.5487
  184DOPC  H11A22572   4.491   1.656   2.914 -0.3377  1.4914  2.1090
  184DOPC  H11B22573   4.624   1.655   2.797  2.4270 -1.8303  2.1770
  184DOPC     P22574   4.832   1.653   2.974 -0.0141  0.0329 -0.0969
  184DOPC   O1322575   4.895   1.690   3.102 -0.3112  1.1231 -0.2670
  184DOPC   O1422576   4.852   1.733   2.848 -0.1232 -0.3574 -0.3310
  184DOPC   O1222577   4.675   1.677   3.002  0.6519  0.4643 -0.7219
  184DOPC   O1122578   4.868   1.495   2.940 -0.2414 -0.3514 -0.6536
  184DOPC    C122579   4.788   1.388   2.970  0.1599 -0.6919  0.3906
  184DOPC    HA22580   4.816   1.292   2.920  1.7935 -0.4491  0.7842
  184DOPC    HB22581   4.685   1.397   2.929 -1.1292 -1.4947  3.2186
  184DOPC    C222582   4.755   1.347   3.121 -0.8437 -0.1159  0.0265
  184DOPC    HS22583   4.697   1.437   3.149 -0.5346  0.7912 -2.0634
  184DOPC   O2122584   4.879   1.332   3.192 -0.0465  0.5053  0.1494
  184DOPC   C2122585   4.888   1.404   3.306  0.1970  0.0086 -0.1152
  184DOPC   O2222586   4.797   1.467   3.352  0.4637 -0.2544  0.0939
  184DOPC   C2222587   5.027   1.384   3.356  0.0629  0.3349 -0.2549
  184DOPC   H2R22588   5.095   1.408   3.272  2.2351 -3.1490  0.3167
  184DOPC   H2S22589   5.042   1.278   3.386 -1.5965  0.5573  1.5986
  184DOPC    C322590   4.669   1.220   3.115  0.7744  0.2668 -0.8108
  184DOPC    HX22591   4.735   1.132   3.100 -0.1775 -0.5814 -0.1571
  184DOPC    HY22592   4.608   1.226   3.023  1.1278 -0.0030 -1.0632
  184DOPC   O3122593   4.583   1.183   3.224 -0.1799  0.5282 -0.5373
  184DOPC   C3122594   4.469   1.246   3.223  0.6663  0.3514 -0.1860
  184DOPC   O3222595   4.433   1.330   3.142 -0.0732 -0.3663  1.0288
  184DOPC   C3222596   4.382   1.195   3.343 -0.0634  0.4248 -0.3605
  184DOPC   H2X22597   4.299   1.137   3.298  0.1258  1.6151 -2.3483
  184DOPC   H2Y22598   4.445   1.134   3.412 -2.6528  2.1913  3.9915
  184DOPC   C2322599   5.057   1.471   3.472  0.2075  0.6837  0.0666
  184DOPC   H3R22600   5.001   1.448   3.566  0.7109  0.1779  0.2489
  184DOPC   H3S22601   5.042   1.580   3.454  0.1878  0.3853 -1.9940
  184DOPC   C2422602   5.201   1.451   3.524 -0.2195  0.7461 -1.0215
  184DOPC   H4R22603   5.264   1.412   3.441 -0.6129  1.9571 -1.9266
  184DOPC   H4S22604   5.205   1.384   3.612  1.5105  0.5823 -1.1919
  184DOPC   C2522605   5.240   1.593   3.565 -0.1712  0.5633  0.3400
  184DOPC   H5R22606   5.180   1.632   3.651  1.9396  0.4739  1.9496
  184DOPC   H5S22607   5.236   1.666   3.482  0.7398 -0.5593 -0.7219
  184DOPC   C2622608   5.381   1.598   3.611 -0.6580  0.2639 -0.7894
  184DOPC   H6R22609   5.439   1.557   3.526  0.2518  1.2196 -0.6445
  184DOPC   H6S22610   5.395   1.530   3.698  0.1481  0.8528 -0.4512
  184DOPC   C2722611   5.444   1.736   3.660 -0.3908  0.1334 -0.4798
  184DOPC   H7R22612   5.435   1.822   3.590  1.0787  1.3887  0.7915
  184DOPC   H7S22613   5.551   1.708   3.663  0.2966  2.1338 -2.8360
  184DOPC   C2822614   5.404   1.768   3.807 -0.1099 -0.4423 -0.5385
  184DOPC   H8R22615   5.500   1.807   3.847 -1.6488  1.3970  1.5984
  184DOPC   H8S22616   5.369   1.689   3.876  1.5035 -0.2903  0.5100
  184DOPC   C2922617   5.297   1.871   3.802 -0.3977 -0.3830 -0.4630
  184DOPC   H9R22618   5.215   1.843   3.736 -1.7624 -2.2707  1.8622
  184DOPC  C21022619   5.293   1.984   3.877 -0.3527 -0.2890  0.3491
  184DOPC  H10R22620   5.200   2.036   3.850  0.6026  1.6483  0.6312
  184DOPC  C21122621   5.384   2.042   3.986  0.1646  0.2586  0.2632
  184DOPC  H11R22622   5.436   1.958   4.039 -2.4110 -0.4523  1.8500
  184DOPC  H11S22623   5.319   2.081   4.067 -0.1291 -0.3954  0.3530
  184DOPC  C21222624   5.479   2.146   3.929 -0.5727 -0.2146  0.4390
  184DOPC  H12R22625   5.440   2.204   3.843 -2.4021  0.1584  1.4548
  184DOPC  H12S22626   5.558   2.091   3.875 -0.4398 -0.6752  1.0903
  184DOPC  C21322627   5.537   2.250   4.028 -0.2412  0.1924 -0.6918
  184DOPC  H13R22628   5.459   2.317   4.069 -0.3497 -0.1524 -0.3198
  184DOPC  H13S22629   5.597   2.321   3.967 -1.1811 -0.8959 -2.9986
  184DOPC  C21422630   5.625   2.185   4.147 -0.0798 -0.2085 -0.4727
  184DOPC  H14R22631   5.716   2.153   4.093 -0.4335  1.1708 -1.9624
  184DOPC  H14S22632   5.573   2.097   4.188 -0.2261 -0.7895 -1.8566
  184DOPC  C21522633   5.659   2.293   4.249 -0.1436 -0.4173 -0.6800
  184DOPC  H15R22634   5.570   2.350   4.283  0.5971 -0.0187  0.6633
  184DOPC  H15S22635   5.721   2.366   4.193  0.8304 -0.6592  0.0618
  184DOPC  C21622636   5.743   2.242   4.374 -0.3582  0.1351 -0.0608
  184DOPC  H16R22637   5.819   2.315   4.408  0.9222 -1.4448  0.5821
  184DOPC  H16S22638   5.796   2.148   4.348  0.4589  0.9730 -1.5194
  184DOPC  C21722639   5.652   2.196   4.484  0.0214  0.2591 -0.5150
  184DOPC  H17R22640   5.557   2.147   4.453 -0.2110  0.4365 -0.0973
  184DOPC  H17S22641   5.612   2.280   4.544 -3.5650 -0.5013 -1.6042
  184DOPC  C21822642   5.733   2.112   4.590 -0.4212  0.0505 -0.6150
  184DOPC  H18R22643   5.833   2.155   4.566 -1.8498  4.3567  0.1521
  184DOPC  H18S22644   5.729   2.005   4.561  0.6691 -0.2488  0.2968
  184DOPC  H18T22645   5.697   2.139   4.692  2.1511  0.9514  0.1261
  184DOPC   C3322646   4.318   1.304   3.412  0.1322  0.0007 -0.8057
  184DOPC   H3X22647   4.247   1.256   3.483 -0.4881  0.3841 -1.1485
  184DOPC   H3Y22648   4.260   1.364   3.338 -2.2820 -1.6260 -0.3590
  184DOPC   C3422649   4.412   1.401   3.486 -0.2990  0.3185  0.6994
  184DOPC   H4X22650   4.356   1.496   3.500  2.3151  1.6722  2.8022
  184DOPC   H4Y22651   4.510   1.417   3.436  0.0770 -1.6380  0.7463
  184DOPC   C3522652   4.423   1.342   3.627 -0.5623  0.2772  0.5263
  184DOPC   H5X22653   4.441   1.232   3.621  0.6119  0.4941 -0.4000
  184DOPC   H5Y22654   4.328   1.349   3.683 -0.7271  0.3608  0.2385
  184DOPC   C3622655   4.545   1.404   3.708 -0.9551  0.7451  0.4249
  184DOPC   H6X22656   4.553   1.358   3.808 -0.2567  0.0625  0.0627
  184DOPC   H6Y22657   4.634   1.375   3.648  1.7506  2.8549  3.1647
  184DOPC   C3722658   4.543   1.556   3.734 -1.2572 -0.1497  0.8695
  184DOPC   H7X22659   4.588   1.607   3.646  3.0186 -1.3361  2.1314
  184DOPC   H7Y22660   4.440   1.578   3.768 -1.6560  0.2004 -0.4999
  184DOPC   C3822661   4.642   1.596   3.853  0.5637 -1.0668  0.2123
  184DOPC   H8X22662   4.609   1.529   3.935 -1.4275  0.4575  0.7310
  184DOPC   H8Y22663   4.614   1.701   3.879 -0.6695 -0.3686 -3.2969
  184DOPC   C3922664   4.787   1.601   3.812  0.2745 -0.4466 -0.1438
  184DOPC   H9X22665   4.814   1.630   3.710  0.7243 -0.3634 -0.0076
  184DOPC  C31022666   4.889   1.567   3.899  0.2424 -0.4225  0.3205
  184DOPC  H10X22667   4.993   1.563   3.863 -0.1276 -0.3218 -0.8092
  184DOPC  C31122668   4.856   1.557   4.044 -0.2208  0.2658 -0.0188
  184DOPC  H11X22669   4.940   1.504   4.094  0.3842  1.6935  0.5193
  184DOPC  H11Y22670   4.760   1.502   4.051 -0.0945  0.2398  2.0981
  184DOPC  C31222671   4.841   1.693   4.116  0.4825  0.6554  0.5269
  184DOPC  H12X22672   4.751   1.748   4.083  1.4597  1.0656 -1.6608
  184DOPC  H12Y22673   4.930   1.754   4.088  0.0356 -0.0921 -3.1331
  184DOPC  C31322674   4.843   1.685   4.272 -0.3297 -0.6603 -0.8414
  184DOPC  H13X22675   4.749   1.633   4.301 -1.0706  1.6833  1.2765
  184DOPC  H13Y22676   4.923   1.619   4.312  1.2322  1.6113 -0.0291
  184DOPC  C31422677   4.850   1.831   4.338 -0.2898  0.2519 -1.1416
  184DOPC  H14X22678   4.950   1.877   4.352 -0.7218  0.7039  0.8199
  184DOPC  H14Y22679   4.784   1.898   4.279 -1.2076 -0.6409 -1.1669
  184DOPC  C31522680   4.775   1.822   4.474 -0.3930  0.0700 -0.0143
  184DOPC  H15X22681   4.678   1.770   4.463 -0.7549  0.5417  0.8689
  184DOPC  H15Y22682   4.756   1.923   4.516  1.8633  0.6855 -0.3221
  184DOPC  C31622683   4.842   1.766   4.597 -0.0253  0.3746  0.4634
  184DOPC  H16X22684   4.785   1.760   4.693 -1.3969  0.2000 -0.3396
  184DOPC  H16Y22685   4.869   1.662   4.569 -0.5155  0.6672 -1.1934
  184DOPC  C31722686   4.966   1.848   4.640 -0.4191  0.1574  0.0500
  184DOPC  H17X22687   5.021   1.779   4.707 -1.8008 -2.9708 -1.7893
  184DOPC  H17Y22688   5.029   1.875   4.553 -1.1763  2.6466  0.1693
  184DOPC  C31822689   4.928   1.978   4.724 -0.0356  0.4064 -0.8100
  184DOPC  H18X22690   4.873   2.056   4.667 -0.7245  1.1890  0.8567
  184DOPC  H18Y22691   4.868   1.939   4.809  1.1216 -2.6203 -1.2746
  184DOPC  H18Z22692   5.030   2.014   4.753 -0.0064  0.6795 -1.2487
  185DOPC     N22693   4.869   7.059   2.969 -0.0069 -0.3360 -0.5843
  185DOPC   C1222694   4.903   6.972   3.084 -0.6785  0.2850 -0.2261
  185DOPC  H12A22695   4.859   6.874   3.068  0.3964 -0.5848  1.8040
  185DOPC  H12B22696   4.857   7.006   3.176 -3.0997 -1.0118 -0.8591
  185DOPC   C1322697   4.723   7.057   2.948  0.6033  0.0929  0.2174
  185DOPC  H13A22698   4.699   6.965   2.897  0.5292  0.3537 -0.2215
  185DOPC  H13B22699   4.666   7.077   3.038  0.8146  0.5646  0.2486
  185DOPC  H13C22700   4.695   7.139   2.884 -1.0224 -1.1321 -0.7201
  185DOPC   C1422701   4.925   7.003   2.842  0.0880  0.5517 -0.0168
  185DOPC  H14A22702   5.015   6.953   2.875  0.0335  0.2725 -0.2881
  185DOPC  H14B22703   4.857   6.934   2.795  1.6606 -0.6118 -0.6844
  185DOPC  H14C22704   4.944   7.079   2.767  2.7543  0.0788  0.0729
  185DOPC   C1522705   4.899   7.202   3.003 -0.4868 -0.1555  0.4587
  185DOPC  H15A22706   4.874   7.261   2.916 -0.4564  0.3867  0.8189
  185DOPC  H15B22707   5.002   7.229   3.015 -0.6229  0.1507  0.9330
  185DOPC  H15C22708   4.849   7.239   3.091  0.5865  0.3930  0.8419
  185DOPC   C1122709   5.060   6.958   3.107 -0.1875  0.4120  0.8794
  185DOPC  H11A22710   5.122   7.043   3.075  1.2822 -1.1312 -0.5428
  185DOPC  H11B22711   5.078   6.942   3.216 -0.6627 -2.2396  0.6493
  185DOPC     P22712   5.076   6.688   3.063  0.3894 -0.1133 -0.1526
  185DOPC   O1322713   5.173   6.614   2.984 -0.1416 -0.4582  0.3562
  185DOPC   O1422714   4.934   6.665   3.046  0.4119 -0.0948 -0.2480
  185DOPC   O1222715   5.097   6.843   3.028  0.1463 -0.1139  0.1204
  185DOPC   O1122716   5.124   6.680   3.215  0.3117  0.5300 -0.0447
  185DOPC    C122717   5.257   6.730   3.248 -0.3084  0.8401  0.1087
  185DOPC    HA22718   5.256   6.799   3.335 -0.5890  0.5465  0.3393
  185DOPC    HB22719   5.304   6.778   3.160  1.3641 -4.5104 -2.3821
  185DOPC    C222720   5.351   6.617   3.294 -0.5463  0.0602  0.1343
  185DOPC    HS22721   5.348   6.539   3.214 -1.1631 -2.3993  2.4351
  185DOPC   O2122722   5.317   6.554   3.417 -0.3408 -0.7733 -0.0897
  185DOPC   C2122723   5.218   6.468   3.416  0.5701 -0.1611 -0.8112
  185DOPC   O2222724   5.179   6.414   3.319 -0.1381  0.3000 -0.2233
  185DOPC   C2222725   5.162   6.456   3.561  0.0752 -0.0382  0.7846
  185DOPC   H2R22726   5.066   6.512   3.562  0.0196 -0.0654 -0.6657
  185DOPC   H2S22727   5.236   6.498   3.632  2.5901 -2.0477 -0.4842
  185DOPC    C322728   5.505   6.653   3.304  0.5078  0.3530  0.6418
  185DOPC    HX22729   5.540   6.677   3.201  2.2141  2.0291  1.5502
  185DOPC    HY22730   5.556   6.561   3.340  1.0610  0.1710 -0.5531
  185DOPC   O3122731   5.521   6.770   3.391 -0.6739  0.8213 -0.1503
  185DOPC   C3122732   5.649   6.794   3.412  0.4117 -0.3256 -0.5629
  185DOPC   O3222733   5.740   6.714   3.388  1.0866 -0.6916 -0.5889
  185DOPC   C3222734   5.663   6.931   3.471  0.0897  0.5762 -0.0319
  185DOPC   H2X22735   5.648   7.004   3.388  2.9854  0.4756 -0.7469
  185DOPC   H2Y22736   5.594   6.947   3.557  0.8897  1.2414  0.5013
  185DOPC   C2322737   5.149   6.310   3.571 -0.0422 -0.0189  0.0382
  185DOPC   H3R22738   5.247   6.259   3.582 -0.8356 -1.3957  1.0985
  185DOPC   H3S22739   5.090   6.256   3.495 -1.2741  1.6391 -0.2257
  185DOPC   C2422740   5.078   6.261   3.697  0.6948  0.2622  0.1160
  185DOPC   H4R22741   5.078   6.150   3.702 -0.1564  0.1260 -2.0727
  185DOPC   H4S22742   4.970   6.289   3.691  0.3298 -1.0911 -0.0454
  185DOPC   C2522743   5.148   6.304   3.832 -0.5889 -0.6255 -0.8701
  185DOPC   H5R22744   5.165   6.414   3.829  1.3733 -0.9082 -1.6316
  185DOPC   H5S22745   5.250   6.262   3.843 -0.5165 -1.0031 -2.6087
  185DOPC   C2622746   5.075   6.261   3.958 -0.3498  0.0433 -0.3542
  185DOPC   H6R22747   5.143   6.261   4.046 -1.6597 -0.6649  0.7040
  185DOPC   H6S22748   5.049   6.153   3.960  3.2667 -0.9971  2.3224
  185DOPC   C2722749   4.948   6.337   3.997  0.1149 -0.2043  1.0329
  185DOPC   H7R22750   4.882   6.328   3.908  1.0066  2.2900  0.0159
  185DOPC   H7S22751   4.980   6.444   3.990  1.5056 -0.6586  0.0741
  185DOPC   C2822752   4.881   6.303   4.130 -0.8113  0.4983  0.3989
  185DOPC   H8R22753   4.854   6.196   4.143 -1.0940  0.4103 -0.7530
  185DOPC   H8S22754   4.792   6.369   4.136 -2.2002 -1.2404 -0.1584
  185DOPC   C2922755   4.972   6.338   4.250 -0.0060 -0.7738 -0.3484
  185DOPC   H9R22756   5.026   6.433   4.241  0.1116 -0.8105 -0.0600
  185DOPC  C21022757   4.996   6.260   4.364  0.2087 -0.0162  0.4804
  185DOPC  H10R22758   5.063   6.303   4.440  1.9803  1.0640 -1.5741
  185DOPC  C21122759   4.938   6.122   4.388 -0.1343 -0.2934 -0.0863
  185DOPC  H11R22760   5.026   6.055   4.398  1.4918  1.5605 -1.2613
  185DOPC  H11S22761   4.877   6.078   4.306 -0.5542  3.6189 -2.1100
  185DOPC  C21222762   4.850   6.119   4.507  0.3692  0.3812 -0.4515
  185DOPC  H12R22763   4.809   6.016   4.507  3.0658 -0.7815 -1.0545
  185DOPC  H12S22764   4.761   6.186   4.505 -0.0089 -0.0823  0.4140
  185DOPC  C21322765   4.925   6.120   4.641 -0.6266 -0.0576  0.0355
  185DOPC  H13R22766   4.964   6.224   4.638 -0.6283 -0.0724 -2.6779
  185DOPC  H13S22767   5.013   6.051   4.638  0.2664  1.0717 -0.1918
  185DOPC  C21422768   4.834   6.083   4.750  0.7849  0.4203  0.0740
  185DOPC  H14R22769   4.730   6.114   4.728 -0.8113 -2.7384  2.4167
  185DOPC  H14S22770   4.853   6.136   4.846 -0.8426  2.6029 -0.7062
  185DOPC  C21522771   4.835   5.934   4.767 -0.0735  0.4923 -0.3536
  185DOPC  H15R22772   4.938   5.918   4.805  0.1990  2.1296 -0.3190
  185DOPC  H15S22773   4.822   5.875   4.675  0.3203  0.2477 -0.2560
  185DOPC  C21622774   4.727   5.898   4.872 -0.0811  0.1147  0.6374
  185DOPC  H16R22775   4.625   5.923   4.835  1.0305 -0.3732 -3.1512
  185DOPC  H16S22776   4.761   5.954   4.961 -1.8973  1.4811  0.5182
  185DOPC  C21722777   4.734   5.750   4.915  0.4796  0.0547 -0.6264
  185DOPC  H17R22778   4.831   5.738   4.968  1.0879  2.5100 -1.0715
  185DOPC  H17S22779   4.739   5.695   4.819 -0.8142 -1.1145 -0.0809
  185DOPC  C21822780   4.616   5.698   5.003 -0.2827 -0.5587  0.1976
  185DOPC  H18R22781   4.526   5.747   4.960  0.7006  1.4267  0.2566
  185DOPC  H18S22782   4.626   5.746   5.103 -0.3648 -0.5102  0.1827
  185DOPC  H18T22783   4.628   5.589   5.020  0.1022 -0.2238  2.3220
  185DOPC   C3322784   5.807   6.974   3.517  0.4118  0.5775  0.5102
  185DOPC   H3X22785   5.806   7.081   3.547 -1.6922  1.3993 -2.1322
  185DOPC   H3Y22786   5.874   6.968   3.429 -1.2064 -0.8303 -0.6863
  185DOPC   C3422787   5.851   6.873   3.623 -0.5302 -0.1596 -0.1149
  185DOPC   H4X22788   5.889   6.780   3.574  1.2801  0.7617 -0.5515
  185DOPC   H4Y22789   5.774   6.854   3.700  0.7648  0.0865  1.2877
  185DOPC   C3522790   5.972   6.918   3.707 -0.1737  0.0089 -0.0740
  185DOPC   H5X22791   5.948   7.018   3.749 -1.6431  0.4376 -1.8082
  185DOPC   H5Y22792   6.065   6.928   3.647  0.9860  0.5726  1.7356
  185DOPC   C3622793   5.995   6.820   3.816 -0.4274 -0.4242 -0.6919
  185DOPC   H6X22794   5.896   6.808   3.866  0.3776 -0.4395  0.9581
  185DOPC   H6Y22795   6.025   6.728   3.762  1.3492  0.1462 -0.7490
  185DOPC   C3722796   6.112   6.865   3.910  0.4162  0.1778 -1.1134
  185DOPC   H7X22797   6.188   6.900   3.836 -1.3962  1.2788 -2.5490
  185DOPC   H7Y22798   6.081   6.949   3.976  0.9123  0.0723 -0.7376
  185DOPC   C3822799   6.172   6.750   3.995 -0.1568  0.3228 -0.3043
  185DOPC   H8X22800   6.255   6.787   4.059 -0.4352 -0.2675  0.4203
  185DOPC   H8Y22801   6.213   6.676   3.922  3.0475  0.4542  1.1955
  185DOPC   C3922802   6.069   6.674   4.080 -0.2736 -0.2588 -0.0592
  185DOPC   H9X22803   5.994   6.616   4.025  0.5155 -0.5169 -0.8963
  185DOPC  C31022804   6.076   6.649   4.207  0.2304 -0.8134 -0.2162
  185DOPC  H10X22805   5.996   6.586   4.249  0.5770  0.3958  2.4751
  185DOPC  C31122806   6.177   6.702   4.304 -0.5768 -0.2032  0.1736
  185DOPC  H11X22807   6.213   6.803   4.275  1.8019 -1.2950 -0.9364
  185DOPC  H11Y22808   6.259   6.628   4.298  0.3121  0.4685  2.8202
  185DOPC  C31222809   6.138   6.696   4.451  0.1754 -0.4725 -0.1720
  185DOPC  H12X22810   6.113   6.594   4.488 -1.0285 -0.3105 -0.4790
  185DOPC  H12Y22811   6.046   6.757   4.466  1.9375  1.9624  1.3754
  185DOPC  C31322812   6.252   6.756   4.541  0.2873  0.0394  0.2434
  185DOPC  H13X22813   6.342   6.692   4.527 -0.9097 -1.8399  0.8213
  185DOPC  H13Y22814   6.293   6.857   4.517  0.9894  0.1498  1.8196
  185DOPC  C31422815   6.222   6.746   4.693  0.9582  0.0099 -0.4551
  185DOPC  H14X22816   6.144   6.819   4.725  1.3423 -0.0348  0.6072
  185DOPC  H14Y22817   6.189   6.644   4.722  0.5519  0.8161  2.1310
  185DOPC  C31522818   6.347   6.774   4.787  0.6212 -0.5058 -0.2911
  185DOPC  H15X22819   6.414   6.838   4.725  0.1980  1.6587  1.3731
  185DOPC  H15Y22820   6.404   6.681   4.812  2.2124  0.5400  0.1271
  185DOPC  C31622821   6.316   6.862   4.909 -0.2831  0.4835 -0.2666
  185DOPC  H16X22822   6.407   6.874   4.972 -0.8666  0.1681  0.6510
  185DOPC  H16Y22823   6.283   6.965   4.884 -0.0072  0.3805 -1.0997
  185DOPC  C31722824   6.209   6.805   5.006  0.0726 -0.1081  0.3445
  185DOPC  H17X22825   6.194   6.880   5.087  2.1379  0.0329  0.6500
  185DOPC  H17Y22826   6.111   6.811   4.954 -0.7280  2.4598  1.9712
  185DOPC  C31822827   6.250   6.667   5.067  0.6670 -0.1224  0.2363
  185DOPC  H18X22828   6.261   6.587   4.990  3.1280  0.0024  0.3958
  185DOPC  H18Y22829   6.355   6.682   5.099  0.9917 -2.1761  0.3156
  185DOPC  H18Z22830   6.185   6.642   5.154  0.0241 -0.7919 -0.4248
  186DOPC     N22831   1.013   2.109   2.624  0.1357  0.5193 -0.4581
  186DOPC   C1222832   0.990   2.034   2.755 -1.1374  0.1137 -0.3055
  186DOPC  H12A22833   1.079   1.979   2.780 -0.2269  0.8453 -1.8067
  186DOPC  H12B22834   0.909   1.963   2.740  0.0180 -1.4174  0.4778
  186DOPC   C1322835   0.876   2.154   2.567 -0.3567  0.2143 -0.1273
  186DOPC  H13A22836   0.819   2.221   2.628 -0.2848  0.2269 -0.0744
  186DOPC  H13B22837   0.898   2.190   2.468  0.1758  0.6511  0.1478
  186DOPC  H13C22838   0.813   2.066   2.558  0.2134 -0.5838  2.7221
  186DOPC   C1422839   1.068   2.022   2.519 -0.0155  0.0313  0.1544
  186DOPC  H14A22840   1.167   1.988   2.546  0.3465  1.9265  1.4743
  186DOPC  H14B22841   1.001   1.939   2.507  0.6086 -0.5347  0.4977
  186DOPC  H14C22842   1.070   2.070   2.423 -0.6357  2.7374  1.3951
  186DOPC   C1522843   1.096   2.235   2.636  0.2405  0.4399  0.2319
  186DOPC  H15A22844   1.053   2.315   2.694  2.0296 -0.8333  3.6090
  186DOPC  H15B22845   1.131   2.263   2.538  2.7758 -0.1554  0.9028
  186DOPC  H15C22846   1.186   2.215   2.693  0.3834  1.9720  0.5809
  186DOPC   C1122847   0.954   2.120   2.882 -0.0800 -0.7227  0.7388
  186DOPC  H11A22848   0.924   2.057   2.969 -0.4025  0.8870  1.8295
  186DOPC  H11B22849   1.033   2.191   2.913 -1.4501  1.8155 -1.2522
  186DOPC     P22850   0.824   2.340   2.924 -0.1000  0.0989  0.2127
  186DOPC   O1322851   0.690   2.401   2.914  0.1439 -0.4476 -0.3328
  186DOPC   O1422852   0.932   2.441   2.892 -0.1372 -0.0402  0.2644
  186DOPC   O1222853   0.836   2.201   2.856 -0.1312  0.4317 -0.9030
  186DOPC   O1122854   0.848   2.319   3.082  0.1184 -0.1463 -0.6827
  186DOPC    C122855   0.772   2.232   3.171 -0.8877 -0.1228 -0.1242
  186DOPC    HA22856   0.834   2.140   3.181  4.1131  2.6200 -2.4314
  186DOPC    HB22857   0.676   2.197   3.127 -0.3391 -1.3505 -0.3734
  186DOPC    C222858   0.755   2.279   3.320 -0.7355 -0.2929 -0.0534
  186DOPC    HS22859   0.695   2.200   3.370 -2.1486 -0.2239 -1.5635
  186DOPC   O2122860   0.695   2.410   3.322 -0.0048 -0.1472 -0.3520
  186DOPC   C2122861   0.567   2.409   3.295 -0.0978 -0.2564  0.1708
  186DOPC   O2222862   0.498   2.308   3.281 -0.0573  0.3372 -0.3346
  186DOPC   C2222863   0.521   2.556   3.293  0.1276 -0.6162 -0.3786
  186DOPC   H2R22864   0.450   2.578   3.210  0.8312  1.0473 -0.5650
  186DOPC   H2S22865   0.618   2.610   3.290 -0.3041  0.4972  2.2366
  186DOPC    C322866   0.891   2.290   3.386 -0.1483  0.5839  0.0003
  186DOPC    HX22867   0.961   2.359   3.334  0.2097  0.6986  0.6204
  186DOPC    HY22868   0.934   2.188   3.396 -1.3234  0.1875  1.3224
  186DOPC   O3122869   0.874   2.341   3.519  0.1424 -0.1367 -0.4108
  186DOPC   C3122870   0.987   2.390   3.570  0.2457 -0.2376  0.3564
  186DOPC   O3222871   1.096   2.353   3.524  0.1471 -0.4542 -0.1773
  186DOPC   C3222872   0.964   2.498   3.676  0.9002  0.4381  0.4185
  186DOPC   H2X22873   0.971   2.598   3.627  2.2886 -0.4320 -1.2754
  186DOPC   H2Y22874   0.860   2.486   3.711  0.9085  0.8563  0.5959
  186DOPC   C2322875   0.462   2.609   3.432 -0.1316 -0.2791 -0.0940
  186DOPC   H3R22876   0.380   2.537   3.450  1.0434 -1.2242  1.8283
  186DOPC   H3S22877   0.423   2.713   3.425  0.4549 -0.1080 -0.9835
  186DOPC   C2422878   0.568   2.608   3.541 -0.4930 -0.1737  0.2458
  186DOPC   H4R22879   0.630   2.516   3.532  0.4547  0.5644 -1.1021
  186DOPC   H4S22880   0.506   2.596   3.633 -0.2849  0.3876  0.4657
  186DOPC   C2522881   0.657   2.736   3.554  0.5936  0.2457  0.9116
  186DOPC   H5R22882   0.689   2.764   3.451 -1.3879 -0.3261  0.0977
  186DOPC   H5S22883   0.752   2.704   3.600  0.1519 -3.4388 -0.3907
  186DOPC   C2622884   0.591   2.840   3.629 -0.5438  0.3971  0.2248
  186DOPC   H6R22885   0.495   2.870   3.583  0.0425  1.1771 -0.5315
  186DOPC   H6S22886   0.649   2.935   3.631 -0.4211  0.3242  0.1038
  186DOPC   C2722887   0.567   2.803   3.779  0.2132 -0.1454 -0.0788
  186DOPC   H7R22888   0.667   2.780   3.823  0.7484  0.5212 -0.8946
  186DOPC   H7S22889   0.507   2.712   3.796 -0.7925  0.6714  0.8427
  186DOPC   C2822890   0.506   2.923   3.854  0.2922 -0.7368 -0.0222
  186DOPC   H8R22891   0.444   2.983   3.784 -1.1891 -0.5659  1.3602
  186DOPC   H8S22892   0.596   2.981   3.884  1.6432 -3.3566  1.3634
  186DOPC   C2922893   0.422   2.899   3.978 -0.6190 -0.0967  0.0374
  186DOPC   H9R22894   0.315   2.889   3.959 -0.3430 -0.8198 -1.2085
  186DOPC  C21022895   0.467   2.884   4.106  0.0839 -0.0552 -0.5104
  186DOPC  H10R22896   0.389   2.869   4.181  1.1171 -2.2911  0.2167
  186DOPC  C21122897   0.608   2.895   4.151 -0.3575  0.7670 -1.0800
  186DOPC  H11R22898   0.624   2.949   4.247  4.6264 -0.0870 -1.1429
  186DOPC  H11S22899   0.668   2.962   4.085  0.4754  0.9579 -0.1460
  186DOPC  C21222900   0.687   2.760   4.159 -0.0377  0.3321  0.1148
  186DOPC  H12R22901   0.794   2.786   4.171  0.4020 -0.3965 -1.9443
  186DOPC  H12S22902   0.682   2.709   4.061  1.7164 -1.3554  0.8308
  186DOPC  C21322903   0.652   2.668   4.284 -0.1370  0.0512  0.2513
  186DOPC  H13R22904   0.716   2.577   4.276 -0.3011  0.0414 -1.1819
  186DOPC  H13S22905   0.548   2.638   4.262 -0.0757  0.9584 -1.4012
  186DOPC  C21422906   0.676   2.721   4.423  0.3366  0.1739 -0.5343
  186DOPC  H14R22907   0.601   2.798   4.453  0.7329  0.2979  0.1697
  186DOPC  H14S22908   0.766   2.785   4.433 -0.4559  1.4351 -1.1559
  186DOPC  C21522909   0.649   2.624   4.544  0.9297 -0.1697 -0.0287
  186DOPC  H15R22910   0.723   2.542   4.550  0.9854 -0.0255  1.6838
  186DOPC  H15S22911   0.558   2.572   4.507 -0.8323  1.9870  1.0564
  186DOPC  C21622912   0.626   2.687   4.685 -0.5166  0.6897  0.5544
  186DOPC  H16R22913   0.542   2.760   4.687 -1.1831 -0.0007 -0.7501
  186DOPC  H16S22914   0.722   2.737   4.712 -1.1409  0.9591  2.4317
  186DOPC  C21722915   0.605   2.584   4.798 -1.0327 -0.3269  0.3584
  186DOPC  H17R22916   0.698   2.527   4.817 -0.3601  0.8614  0.7473
  186DOPC  H17S22917   0.523   2.512   4.773 -2.4895  1.9953 -2.1626
  186DOPC  C21822918   0.585   2.651   4.939 -0.1847 -0.7561 -0.3824
  186DOPC  H18R22919   0.502   2.725   4.929 -0.4974 -0.9326  0.7149
  186DOPC  H18S22920   0.676   2.706   4.970 -1.0745  1.2500 -1.1384
  186DOPC  H18T22921   0.546   2.570   5.004  1.0279 -1.0256  0.0296
  186DOPC   C3322922   1.071   2.486   3.788  0.8884  0.7541 -0.1702
  186DOPC   H3X22923   1.173   2.509   3.750  0.6104  1.9595 -0.2328
  186DOPC   H3Y22924   1.059   2.387   3.836 -0.0158  1.0730  0.2793
  186DOPC   C3422925   1.060   2.583   3.899  0.4400  0.0462  0.3979
  186DOPC   H4X22926   0.954   2.590   3.930  1.2110  0.1622  3.3408
  186DOPC   H4Y22927   1.089   2.683   3.861 -0.5554  0.6429  1.1633
  186DOPC   C3522928   1.149   2.539   4.018  0.1950  0.3102  0.2052
  186DOPC   H5X22929   1.254   2.557   3.987  0.1815  0.4197  0.2215
  186DOPC   H5Y22930   1.135   2.430   4.034 -0.3941  0.4449  0.6704
  186DOPC   C3622931   1.121   2.629   4.143  0.6569  0.6212  0.4647
  186DOPC   H6X22932   1.141   2.736   4.120  0.0372  0.7356  0.4443
  186DOPC   H6Y22933   1.015   2.614   4.171  0.9671 -1.1852  0.8004
  186DOPC   C3722934   1.206   2.592   4.261 -0.0959 -0.1157 -0.0091
  186DOPC   H7X22935   1.213   2.482   4.269 -0.6152 -0.2539 -1.1664
  186DOPC   H7Y22936   1.303   2.621   4.214  0.6368 -0.5003  1.2313
  186DOPC   C3822937   1.162   2.662   4.388  0.5372  0.8097 -0.2977
  186DOPC   H8X22938   1.077   2.602   4.426  1.4955 -0.5390 -0.2250
  186DOPC   H8Y22939   1.120   2.761   4.358 -0.7245  0.3905  0.0739
  186DOPC   C3922940   1.273   2.666   4.498  0.2328  0.4843  0.0053
  186DOPC   H9X22941   1.373   2.676   4.452  0.2105 -0.0044 -0.1583
  186DOPC  C31022942   1.254   2.661   4.631 -0.3044 -0.4191 -0.0197
  186DOPC  H10X22943   1.337   2.682   4.700  0.4122  1.0390 -1.2477
  186DOPC  C31122944   1.122   2.647   4.700 -0.3051 -0.2555 -0.4879
  186DOPC  H11X22945   1.136   2.568   4.776 -0.8039  1.6390  1.6736
  186DOPC  H11Y22946   1.033   2.625   4.638 -1.9525  0.8654  1.3746
  186DOPC  C31222947   1.099   2.772   4.786 -0.2455  0.4014  0.7119
  186DOPC  H12X22948   1.110   2.864   4.725 -0.3061  0.2099  0.4118
  186DOPC  H12Y22949   1.182   2.784   4.859  0.4986  2.1079 -0.3751
  186DOPC  C31322950   0.977   2.778   4.878 -0.3142 -0.2766 -1.0012
  186DOPC  H13X22951   0.889   2.816   4.822  0.9696  2.6565 -1.1974
  186DOPC  H13Y22952   0.969   2.676   4.921 -0.9111  0.8244  1.6706
  186DOPC  C31422953   0.992   2.870   4.998 -0.5564  0.0899  0.0475
  186DOPC  H14X22954   0.904   2.863   5.066  0.0344 -0.9013  0.7483
  186DOPC  H14Y22955   1.080   2.833   5.056  0.7272  2.1406 -0.4790
  186DOPC  C31522956   1.018   3.013   4.979  0.2266 -0.8546  0.3360
  186DOPC  H15X22957   0.918   3.057   4.957  1.1274  1.5467  0.7270
  186DOPC  H15Y22958   1.080   3.017   4.887  0.4620  2.0728  0.5339
  186DOPC  C31622959   1.080   3.087   5.100 -0.2394  0.8084  1.1631
  186DOPC  H16X22960   1.020   3.061   5.189 -1.9657 -0.9563 -0.4298
  186DOPC  H16Y22961   1.184   3.048   5.105 -0.4668 -0.0787 -0.4164
  186DOPC  C31722962   1.091   3.240   5.083 -0.6381 -0.1077 -0.3741
  186DOPC  H17X22963   1.155   3.248   4.993 -1.4034  0.4851 -0.8828
  186DOPC  H17Y22964   0.996   3.294   5.058 -0.9865 -0.9930 -1.0217
  186DOPC  C31822965   1.162   3.314   5.193  0.4615 -0.1955 -0.3004
  186DOPC  H18X22966   1.270   3.307   5.171  0.2587 -1.0137 -1.0994
  186DOPC  H18Y22967   1.125   3.418   5.195 -3.6346 -1.4384 -1.6086
  186DOPC  H18Z22968   1.128   3.264   5.287 -2.1462  1.5743 -0.1900
  187DOPC     N22969   5.560   1.747   3.160 -0.1104  0.4420  0.2774
  187DOPC   C1222970   5.639   1.780   3.286 -0.2138 -0.6718 -0.4278
  187DOPC  H12A22971   5.588   1.733   3.369  1.3458 -0.4634  0.7005
  187DOPC  H12B22972   5.645   1.887   3.293  1.2727 -0.7877  0.3044
  187DOPC   C1322973   5.619   1.819   3.045 -0.2547  0.8821 -0.0441
  187DOPC  H13A22974   5.553   1.812   2.960  0.7864 -1.9865 -0.7234
  187DOPC  H13B22975   5.621   1.923   3.075  2.4921  0.4244  1.7143
  187DOPC  H13C22976   5.717   1.788   3.014 -1.6068 -0.4134 -3.4208
  187DOPC   C1422977   5.412   1.794   3.169 -0.0390  0.1906 -0.5863
  187DOPC  H14A22978   5.367   1.738   3.249  0.7211 -0.5735 -0.6697
  187DOPC  H14B22979   5.409   1.902   3.171  0.1524  0.1927 -0.4245
  187DOPC  H14C22980   5.352   1.770   3.082  1.2372  0.5942 -1.6075
  187DOPC   C1522981   5.558   1.600   3.125 -0.8191  0.0104 -0.3358
  187DOPC  H15A22982   5.649   1.552   3.092 -0.4774  0.7051 -0.4157
  187DOPC  H15B22983   5.476   1.580   3.058 -0.6833  0.0662 -0.5178
  187DOPC  H15C22984   5.530   1.548   3.216  0.0314  0.8592  0.4301
  187DOPC   C1122985   5.781   1.727   3.294  0.4871  0.0407  0.2728
  187DOPC  H11A22986   5.828   1.757   3.390  0.7923 -2.4847  1.0028
  187DOPC  H11B22987   5.778   1.616   3.306 -0.6241  0.1683  1.3243
  187DOPC     P22988   5.938   1.910   3.178 -0.1030  0.1040  0.1797
  187DOPC   O1322989   5.846   2.010   3.243  0.1747  0.3777  0.3071
  187DOPC   O1422990   5.972   1.938   3.039  0.1639  0.5078 -0.2348
  187DOPC   O1222991   5.867   1.767   3.188 -0.3813  0.9066  0.5518
  187DOPC   O1122992   6.065   1.882   3.277 -0.7311 -0.1362 -0.5039
  187DOPC    C122993   6.139   1.766   3.254 -0.3015  0.4693 -0.0621
  187DOPC    HA22994   6.208   1.772   3.167  3.4572  3.5064  2.7287
  187DOPC    HB22995   6.078   1.674   3.253 -0.6127  0.6068  1.8911
  187DOPC    C222996   6.225   1.739   3.377 -0.2883 -0.5166 -0.7985
  187DOPC    HS22997   6.298   1.656   3.367  0.6140 -0.5953  4.0784
  187DOPC   O2122998   6.137   1.718   3.490  0.0467  0.2471 -0.1743
  187DOPC   C2122999   6.097   1.590   3.516 -0.7195 -0.6564 -0.5355
  187DOPC   O2223000   6.118   1.483   3.463  0.2062  0.0171 -0.3343
  187DOPC   C2223001   6.011   1.599   3.642  0.5470  0.5467  0.3622
  187DOPC   H2R23002   5.997   1.706   3.668 -0.9482  0.1849  1.1354
  187DOPC   H2S23003   6.074   1.550   3.719 -1.0386 -2.1428  0.0867
  187DOPC    C323004   6.317   1.865   3.408 -0.1917  0.1845 -0.0185
  187DOPC    HX23005   6.250   1.953   3.423 -0.3660 -0.1120  0.9822
  187DOPC    HY23006   6.385   1.886   3.322  0.4346 -0.8698  0.2103
  187DOPC   O3123007   6.393   1.849   3.531  0.5975  0.1310  0.0883
  187DOPC   C3123008   6.516   1.898   3.536  0.1250 -0.0306  0.5259
  187DOPC   O3223009   6.575   1.951   3.445 -0.4332 -0.3160 -0.0446
  187DOPC   C3223010   6.571   1.862   3.676 -0.1951  0.2119  0.1407
  187DOPC   H2X23011   6.613   1.761   3.656  1.5823  0.7070  1.1691
  187DOPC   H2Y23012   6.653   1.934   3.696 -1.4442  1.5929  0.4489
  187DOPC   C2323013   5.879   1.522   3.626  0.7747 -0.1197 -0.0950
  187DOPC   H3R23014   5.904   1.422   3.583 -0.2216 -0.5808  0.3549
  187DOPC   H3S23015   5.817   1.579   3.554  1.6826 -1.1719 -1.7751
  187DOPC   C2423016   5.797   1.507   3.757  0.3357  0.3910  0.2587
  187DOPC   H4R23017   5.859   1.443   3.822  2.3838 -0.1472 -2.0580
  187DOPC   H4S23018   5.702   1.460   3.725 -0.5460  2.3139 -0.1282
  187DOPC   C2523019   5.782   1.636   3.825 -0.2085 -0.2228 -0.3807
  187DOPC   H5R23020   5.741   1.708   3.750 -0.4381  0.6495  0.5511
  187DOPC   H5S23021   5.881   1.670   3.862  0.0259 -1.1302 -0.1576
  187DOPC   C2623022   5.701   1.634   3.957  0.5723  0.0493  0.0875
  187DOPC   H6R23023   5.729   1.548   4.022  0.6564  1.7997  2.5034
  187DOPC   H6S23024   5.597   1.609   3.927  0.3685 -0.8587  1.4482
  187DOPC   C2723025   5.708   1.761   4.051  0.3362  0.2742 -0.2471
  187DOPC   H7R23026   5.658   1.737   4.147 -1.1400  1.9829 -0.5405
  187DOPC   H7S23027   5.647   1.837   3.997  1.2909  0.9623 -0.3807
  187DOPC   C2823028   5.853   1.814   4.084 -0.1828  0.0477 -0.4191
  187DOPC   H8R23029   5.840   1.902   4.150 -2.0057  0.9981 -1.9501
  187DOPC   H8S23030   5.894   1.852   3.988 -1.2270  1.6926 -0.2623
  187DOPC   C2923031   5.934   1.708   4.144  0.0080 -0.0881 -0.5064
  187DOPC   H9R23032   5.940   1.622   4.076 -0.7492  1.2702 -2.3514
  187DOPC  C21023033   6.009   1.711   4.255 -0.0144 -0.6651 -0.4770
  187DOPC  H10R23034   6.063   1.619   4.281 -0.4143 -0.5945  0.7007
  187DOPC  C21123035   6.028   1.817   4.358  0.3471 -0.3972  0.3839
  187DOPC  H11R23036   5.927   1.855   4.383 -0.3889 -1.5141 -0.8241
  187DOPC  H11S23037   6.066   1.908   4.307 -1.1991 -2.3116 -4.7164
  187DOPC  C21223038   6.107   1.795   4.486  0.0873  0.1409 -0.0263
  187DOPC  H12R23039   6.056   1.732   4.562 -0.6248 -0.1342 -0.7126
  187DOPC  H12S23040   6.113   1.889   4.544  0.6332  1.0063 -1.4321
  187DOPC  C21323041   6.249   1.745   4.448  0.3540 -0.9248  0.7844
  187DOPC  H13R23042   6.289   1.802   4.361  0.0584 -4.1317 -1.6415
  187DOPC  H13S23043   6.236   1.642   4.409 -0.9070 -0.5328  0.1309
  187DOPC  C21423044   6.342   1.742   4.578 -0.0149 -0.5000 -0.3006
  187DOPC  H14R23045   6.411   1.659   4.551  1.9330  0.9009  0.1341
  187DOPC  H14S23046   6.279   1.716   4.665 -0.6544 -1.6065 -1.0690
  187DOPC  C21523047   6.418   1.874   4.605  0.3555  0.2999 -0.5685
  187DOPC  H15R23048   6.334   1.947   4.599  1.3187  1.3343 -5.3239
  187DOPC  H15S23049   6.486   1.900   4.521  1.3701  0.5808  0.3209
  187DOPC  C21623050   6.496   1.867   4.733 -0.7077  0.3802  0.2508
  187DOPC  H16R23051   6.575   1.789   4.729 -0.1773  0.7001  2.7355
  187DOPC  H16S23052   6.433   1.835   4.819 -0.2573  0.1330  0.4939
  187DOPC  C21723053   6.555   2.006   4.756  0.3223  0.0537 -0.1530
  187DOPC  H17R23054   6.478   2.085   4.743  0.2341  0.3128  1.6370
  187DOPC  H17S23055   6.639   2.019   4.685  2.7884 -2.2398  2.1447
  187DOPC  C21823056   6.608   2.019   4.898  0.0643  0.0418 -0.7494
  187DOPC  H18R23057   6.536   2.022   4.983  2.0979  0.4760  1.0490
  187DOPC  H18S23058   6.654   2.119   4.893  0.1039  0.0363 -0.4912
  187DOPC  H18T23059   6.685   1.942   4.920 -0.5695 -1.2019 -2.5659
  187DOPC   C3323060   6.479   1.878   3.801 -0.0371  0.2213  0.0582
  187DOPC   H3X23061   6.396   1.947   3.775  1.2306  2.6127  1.9495
  187DOPC   H3Y23062   6.538   1.943   3.868  1.1652  0.5162 -1.2303
  187DOPC   C3423063   6.420   1.751   3.855  0.4459 -0.9468 -0.0030
  187DOPC   H4X23064   6.503   1.678   3.862  2.6937  1.5426  1.1413
  187DOPC   H4Y23065   6.338   1.725   3.784  0.7646  0.7401 -1.0497
  187DOPC   C3523066   6.359   1.775   3.994  0.5163 -0.1534  0.9064
  187DOPC   H5X23067   6.256   1.815   3.990  0.4571 -0.1322  2.1885
  187DOPC   H5Y23068   6.418   1.847   4.056  1.9619 -0.2312 -0.3381
  187DOPC   C3623069   6.360   1.650   4.075 -0.0387 -0.5280  0.9122
  187DOPC   H6X23070   6.462   1.605   4.068 -0.5484 -1.5605 -0.2796
  187DOPC   H6Y23071   6.335   1.680   4.179 -1.0110 -0.1244  0.5769
  187DOPC   C3723072   6.249   1.549   4.029  0.4941 -0.3671  0.3895
  187DOPC   H7X23073   6.142   1.578   4.043 -0.0977 -1.3303 -1.7530
  187DOPC   H7Y23074   6.266   1.537   3.920  2.4153 -1.5634  0.7782
  187DOPC   C3823075   6.273   1.427   4.114 -0.1680 -0.0691 -0.2926
  187DOPC   H8X23076   6.266   1.454   4.221 -0.8130 -0.3718 -0.2579
  187DOPC   H8Y23077   6.376   1.384   4.107  0.3394  0.4470  2.7972
  187DOPC   C3923078   6.178   1.315   4.098 -0.1840 -0.5881 -0.5065
  187DOPC   H9X23079   6.092   1.339   4.035 -0.3846 -1.3264 -0.5279
  187DOPC  C31023080   6.184   1.195   4.160 -0.4872 -0.0593 -0.3207
  187DOPC  H10X23081   6.136   1.113   4.104  1.2560 -0.2754 -1.5778
  187DOPC  C31123082   6.306   1.144   4.248  0.2003  0.2236  0.3515
  187DOPC  H11X23083   6.389   1.218   4.242 -0.8840  1.4204 -0.4245
  187DOPC  H11Y23084   6.344   1.053   4.197 -1.0710 -1.0500  1.5616
  187DOPC  C31223085   6.258   1.118   4.390  0.1251 -0.3256 -0.6531
  187DOPC  H12X23086   6.328   1.046   4.437 -0.0131  0.0093  0.0832
  187DOPC  H12Y23087   6.152   1.085   4.387  0.2619 -0.8784 -4.7011
  187DOPC  C31323088   6.273   1.247   4.463 -0.6081 -0.4782 -0.5865
  187DOPC  H13X23089   6.377   1.283   4.478 -0.6219 -0.6484 -0.0706
  187DOPC  H13Y23090   6.220   1.332   4.414 -2.4702 -1.5197 -0.4792
  187DOPC  C31423091   6.213   1.250   4.595 -0.5278  0.2861 -0.8902
  187DOPC  H14X23092   6.108   1.217   4.581  0.0662 -0.8675 -2.9544
  187DOPC  H14Y23093   6.261   1.185   4.671  2.1181  0.8024 -1.9981
  187DOPC  C31523094   6.224   1.397   4.659 -0.0109 -0.2616  0.0836
  187DOPC  H15X23095   6.172   1.476   4.600  1.0078  0.7246  0.4745
  187DOPC  H15Y23096   6.330   1.430   4.654 -0.0137  0.0351  1.5322
  187DOPC  C31623097   6.166   1.418   4.803 -0.1546 -0.0160  0.2565
  187DOPC  H16X23098   6.056   1.399   4.807 -0.6934  2.2651 -1.3225
  187DOPC  H16Y23099   6.218   1.338   4.859  1.0441  0.1274 -0.6292
  187DOPC  C31723100   6.185   1.562   4.862 -0.5440  0.0501 -0.2821
  187DOPC  H17X23101   6.288   1.589   4.831 -0.0132 -1.3510  0.1840
  187DOPC  H17Y23102   6.113   1.629   4.808 -1.9711 -0.6796  0.6500
  187DOPC  C31823103   6.180   1.575   5.011  0.2422  0.4342  0.1221
  187DOPC  H18X23104   6.203   1.674   5.054  1.2820 -0.9051  2.8738
  187DOPC  H18Y23105   6.082   1.544   5.055 -0.5925  1.7777 -0.7346
  187DOPC  H18Z23106   6.263   1.515   5.055  0.8746  0.1759 -1.3701
  188DOPC     N23107   1.735   1.585   2.463 -0.0250 -0.1588  0.6293
  188DOPC   C1223108   1.601   1.528   2.500  0.2333 -0.2508  0.1766
  188DOPC  H12A23109   1.562   1.573   2.590  0.5664 -0.5182  0.4599
  188DOPC  H12B23110   1.614   1.424   2.528  0.0014  0.1843  2.0653
  188DOPC   C1323111   1.714   1.717   2.407 -0.1464  0.4930 -0.6239
  188DOPC  H13A23112   1.633   1.728   2.336  1.1769  0.5259 -2.1634
  188DOPC  H13B23113   1.709   1.793   2.484 -0.9774 -0.7927  0.6532
  188DOPC  H13C23114   1.790   1.754   2.340  1.5828  0.6986  1.3706
  188DOPC   C1423115   1.812   1.500   2.362 -0.0888  0.3518  0.5407
  188DOPC  H14A23116   1.839   1.406   2.408  1.9552 -0.1242 -1.4665
  188DOPC  H14B23117   1.751   1.471   2.278  2.6920 -1.3454 -1.0538
  188DOPC  H14C23118   1.904   1.538   2.321  0.3210 -1.1495  0.0008
  188DOPC   C1523119   1.825   1.596   2.587  0.3504 -0.6681 -0.1327
  188DOPC  H15A23120   1.790   1.666   2.661 -1.8377 -4.2494  2.5684
  188DOPC  H15B23121   1.927   1.606   2.555 -0.2778  0.5214 -1.9080
  188DOPC  H15C23122   1.826   1.502   2.642  2.1711 -1.1072 -0.8604
  188DOPC   C1123123   1.499   1.529   2.393  0.5828 -0.7764 -0.8246
  188DOPC  H11A23124   1.486   1.632   2.352  1.0174 -0.3677  0.0585
  188DOPC  H11B23125   1.534   1.466   2.308  3.0649 -0.8846  0.1918
  188DOPC     P23126   1.331   1.337   2.449  0.1517 -0.4706 -0.0773
  188DOPC   O1323127   1.424   1.247   2.515 -0.0227  0.0664 -0.0660
  188DOPC   O1423128   1.311   1.319   2.302  0.2511 -0.2182 -0.7158
  188DOPC   O1223129   1.378   1.488   2.454 -0.6655  0.1506  0.2330
  188DOPC   O1123130   1.195   1.340   2.525 -0.2484  0.8188  0.1969
  188DOPC    C123131   1.176   1.394   2.653  0.1493 -0.4398  0.2186
  188DOPC    HA23132   1.087   1.459   2.640  0.0016 -0.5729  0.5734
  188DOPC    HB23133   1.265   1.456   2.677 -0.4706  2.6406 -4.1881
  188DOPC    C223134   1.143   1.299   2.775 -0.6045 -0.1253 -0.2112
  188DOPC    HS23135   1.051   1.241   2.752 -1.3947  2.5567 -5.1528
  188DOPC   O2123136   1.131   1.380   2.896 -1.0758  0.0416 -0.4369
  188DOPC   C2123137   1.012   1.425   2.931  0.4496  0.1330  0.3267
  188DOPC   O2223138   0.911   1.399   2.865  0.4117 -0.4094  0.2682
  188DOPC   C2223139   1.022   1.516   3.052  0.1119  0.1336  0.6584
  188DOPC   H2R23140   1.062   1.614   3.018  0.6864 -0.2173  0.3038
  188DOPC   H2S23141   1.090   1.481   3.133 -0.7844  1.7587  2.1892
  188DOPC    C323142   1.273   1.213   2.793  0.4474  0.1292 -0.6295
  188DOPC    HX23143   1.361   1.281   2.795  0.6603 -0.1507 -0.4280
  188DOPC    HY23144   1.274   1.149   2.702 -4.3321 -0.4561 -0.5427
  188DOPC   O3123145   1.268   1.136   2.921  0.5574 -0.1563  0.4154
  188DOPC   C3123146   1.201   1.024   2.914 -0.2599  0.2101 -0.4750
  188DOPC   O3223147   1.142   0.982   2.815  0.2275  0.2002  0.2290
  188DOPC   C3223148   1.218   0.951   3.051  0.4021 -0.3635  0.1474
  188DOPC   H2X23149   1.171   0.851   3.046  1.5996 -0.9328 -0.0150
  188DOPC   H2Y23150   1.322   0.938   3.085  0.3828  1.2470  0.9032
  188DOPC   C2323151   0.882   1.525   3.120  1.4784 -0.3255 -0.2375
  188DOPC   H3R23152   0.794   1.555   3.059 -0.0474 -1.7345  1.1876
  188DOPC   H3S23153   0.888   1.604   3.198 -0.8874 -1.2359  0.9462
  188DOPC   C2423154   0.845   1.403   3.209  0.4318 -0.0942 -0.4569
  188DOPC   H4R23155   0.828   1.317   3.141  2.3398 -0.9452  0.0789
  188DOPC   H4S23156   0.751   1.434   3.258  1.8051  0.5109  1.9292
  188DOPC   C2523157   0.947   1.375   3.327  0.2475 -0.2486  0.6509
  188DOPC   H5R23158   0.950   1.472   3.380  3.8583 -0.0699  0.4026
  188DOPC   H5S23159   1.045   1.348   3.281 -0.8087 -0.9374 -1.3487
  188DOPC   C2623160   0.914   1.261   3.426 -0.5744  1.0873 -0.4944
  188DOPC   H6R23161   0.983   1.264   3.514 -0.4905  1.6361 -0.5733
  188DOPC   H6S23162   0.932   1.163   3.377 -0.7557 -0.9094  3.0897
  188DOPC   C2723163   0.773   1.262   3.471  0.3639  0.2892 -0.4904
  188DOPC   H7R23164   0.703   1.277   3.386  0.0505  1.9686  0.0153
  188DOPC   H7S23165   0.743   1.353   3.527  0.4466  0.0095  0.0145
  188DOPC   C2823166   0.740   1.129   3.540  0.1010 -0.6067 -0.1278
  188DOPC   H8R23167   0.670   1.145   3.626  1.8856  2.4875  0.9239
  188DOPC   H8S23168   0.829   1.095   3.597 -0.3939  1.1259  1.7917
  188DOPC   C2923169   0.682   1.027   3.442 -0.1934  0.6159 -0.2872
  188DOPC   H9R23170   0.583   1.055   3.402 -0.8444 -0.0376  0.8213
  188DOPC  C21023171   0.738   0.909   3.411  0.0455  0.2127  0.2946
  188DOPC  H10R23172   0.686   0.857   3.329  1.5635 -0.5619 -0.2237
  188DOPC  C21123173   0.869   0.850   3.452 -0.2877 -0.6325 -0.3051
  188DOPC  H11R23174   0.928   0.919   3.515 -1.7311  1.3109 -1.0058
  188DOPC  H11S23175   0.925   0.843   3.357  0.4233  0.3471  0.0281
  188DOPC  C21223176   0.842   0.719   3.524  0.1409 -0.0901  0.1569
  188DOPC  H12R23177   0.808   0.641   3.453 -1.2941  2.0713 -1.6620
  188DOPC  H12S23178   0.768   0.726   3.607  0.1754  3.2099  0.0278
  188DOPC  C21323179   0.968   0.675   3.599 -0.3907  0.1411  0.8173
  188DOPC  H13R23180   1.000   0.757   3.666 -0.7601  1.6841 -0.8196
  188DOPC  H13S23181   1.053   0.674   3.527 -1.0110 -2.1427  0.0278
  188DOPC  C21423182   0.961   0.536   3.666  0.2003 -0.6379 -0.1019
  188DOPC  H14R23183   1.057   0.481   3.664 -0.1983 -1.3930  0.6337
  188DOPC  H14S23184   0.891   0.463   3.620 -3.1731  1.2378  1.6752
  188DOPC  C21523185   0.928   0.551   3.813 -0.0922 -1.1161  0.0722
  188DOPC  H15R23186   0.822   0.581   3.825 -0.6875 -2.6847 -1.0219
  188DOPC  H15S23187   1.001   0.617   3.865 -1.6140  0.2832  0.5223
  188DOPC  C21623188   0.943   0.414   3.876 -0.5191 -0.6396 -0.2968
  188DOPC  H16R23189   1.027   0.360   3.828  0.3687  1.9642 -1.9027
  188DOPC  H16S23190   0.847   0.360   3.863 -0.7973 -0.9171  2.3579
  188DOPC  C21723191   0.954   0.433   4.028  0.0329  0.3218  0.1938
  188DOPC  H17R23192   0.860   0.484   4.058 -0.6072 -0.2865 -0.7150
  188DOPC  H17S23193   1.043   0.494   4.055  0.3445  1.2322 -2.5556
  188DOPC  C21823194   0.959   0.296   4.100  0.0032 -0.0488  0.2848
  188DOPC  H18R23195   1.062   0.256   4.097 -0.7955 -2.3865  1.5154
  188DOPC  H18S23196   0.890   0.224   4.051  0.9345 -0.3032 -0.6805
  188DOPC  H18T23197   0.938   0.313   4.208 -1.5032 -0.1756  0.0307
  188DOPC   C3323198   1.139   1.020   3.165 -0.2059  0.0079 -0.6644
  188DOPC   H3X23199   1.028   1.017   3.158 -0.4160 -1.3651  2.1570
  188DOPC   H3Y23200   1.170   1.127   3.173 -1.6271  0.3024  2.0301
  188DOPC   C3423201   1.179   0.968   3.302  0.4109 -0.4287 -0.3647
  188DOPC   H4X23202   1.190   0.858   3.295 -0.6191 -0.5129 -0.8842
  188DOPC   H4Y23203   1.097   0.988   3.375  1.1010 -2.3089  1.0110
  188DOPC   C3523204   1.308   1.037   3.353  0.6393 -0.0994 -0.6517
  188DOPC   H5X23205   1.287   1.141   3.388  1.1207 -0.9129  2.3145
  188DOPC   H5Y23206   1.379   1.050   3.268  1.5253 -0.1807  0.0610
  188DOPC   C3623207   1.378   0.952   3.461  1.1522 -0.5736 -0.0744
  188DOPC   H6X23208   1.312   0.942   3.549  0.4560  0.8835 -0.4041
  188DOPC   H6Y23209   1.385   0.850   3.415  1.8884 -0.8718  0.6596
  188DOPC   C3723210   1.515   1.009   3.489 -0.2012  0.0525  0.3492
  188DOPC   H7X23211   1.573   1.031   3.397  0.0879 -1.7287  0.0653
  188DOPC   H7Y23212   1.496   1.106   3.539 -1.8586  0.4011 -0.8481
  188DOPC   C3823213   1.590   0.924   3.596  0.1861  0.2917  0.3752
  188DOPC   H8X23214   1.593   0.815   3.575 -1.5013  0.0910  0.9982
  188DOPC   H8Y23215   1.521   0.915   3.683  1.5258 -1.1252  1.3369
  188DOPC   C3923216   1.723   0.978   3.628 -0.2423  0.0253  0.1719
  188DOPC   H9X23217   1.789   1.005   3.545  0.3091 -1.0484  0.2387
  188DOPC  C31023218   1.771   1.007   3.750  0.6698  0.3049  0.3499
  188DOPC  H10X23219   1.873   1.049   3.752  0.7729  0.0366  0.8837
  188DOPC  C31123220   1.703   0.997   3.890  0.5370 -0.9755 -0.0939
  188DOPC  H11X23221   1.732   0.898   3.930 -1.1294 -1.7491 -0.6761
  188DOPC  H11Y23222   1.592   1.000   3.888  0.4621 -0.2583  2.2839
  188DOPC  C31223223   1.738   1.106   3.994  0.3626 -0.1374 -0.0862
  188DOPC  H12X23224   1.675   1.194   3.969 -0.3569 -0.9317 -1.1635
  188DOPC  H12Y23225   1.843   1.140   3.980  0.1772  0.3767 -0.2606
  188DOPC  C31323226   1.710   1.068   4.140 -0.3467 -0.2486  0.9507
  188DOPC  H13X23227   1.608   1.028   4.156 -0.6934 -0.4480 -1.4102
  188DOPC  H13Y23228   1.772   0.983   4.175 -1.1738 -0.7426  1.2428
  188DOPC  C31423229   1.732   1.181   4.245 -0.0971 -0.0327  0.1863
  188DOPC  H14X23230   1.842   1.197   4.235  0.0478 -1.6138 -1.2761
  188DOPC  H14Y23231   1.678   1.271   4.208  0.3034 -0.3455 -1.2103
  188DOPC  C31523232   1.659   1.161   4.383 -0.8798 -0.8993  0.9051
  188DOPC  H15X23233   1.559   1.117   4.360 -0.2023 -2.3220  0.5786
  188DOPC  H15Y23234   1.633   1.253   4.439 -2.3174 -1.1721  0.7213
  188DOPC  C31623235   1.734   1.066   4.475  0.3301  0.8586  0.0755
  188DOPC  H16X23236   1.752   0.974   4.415  0.1706  0.0235  1.2503
  188DOPC  H16Y23237   1.830   1.111   4.507  0.8255  0.8200 -1.3104
  188DOPC  C31723238   1.643   1.027   4.593 -0.2377  0.2812  0.5887
  188DOPC  H17X23239   1.540   1.048   4.556  0.4186  0.9323 -0.9487
  188DOPC  H17Y23240   1.652   0.917   4.609 -0.0820 -0.1638 -2.0553
  188DOPC  C31823241   1.664   1.108   4.722  0.2125 -0.4906  0.2699
  188DOPC  H18X23242   1.771   1.111   4.752  0.3854  0.8951 -0.3997
  188DOPC  H18Y23243   1.616   1.205   4.696  1.5436  0.1209  0.0029
  188DOPC  H18Z23244   1.609   1.065   4.808  2.9424  0.0154  2.3899
  189DOPC     N23245   1.673   7.510   2.511  0.0936 -0.2489 -0.0118
  189DOPC   C1223246   1.568   7.520   2.617  0.0667  0.1068 -0.4694
  189DOPC  H12A23247   1.504   7.434   2.621  0.5744 -0.3294 -1.3941
  189DOPC  H12B23248   1.494   7.595   2.593 -0.8614 -0.7946 -0.4745
  189DOPC   C1323249   1.793   7.429   2.550  0.2553  1.1094 -0.2514
  189DOPC  H13A23250   1.757   7.340   2.598  2.6920  1.6158  2.9276
  189DOPC  H13B23251   1.857   7.410   2.465  0.0099 -0.9753 -0.0082
  189DOPC  H13C23252   1.854   7.475   2.627 -0.4772  0.5289  0.7045
  189DOPC   C1423253   1.721   7.649   2.493  0.0796 -0.1475  0.4641
  189DOPC  H14A23254   1.798   7.659   2.419 -0.8010  0.3354 -0.4090
  189DOPC  H14B23255   1.645   7.717   2.457  0.6016 -1.0283 -2.5940
  189DOPC  H14C23256   1.753   7.688   2.589 -0.0511  1.5487 -0.1467
  189DOPC   C1523257   1.606   7.452   2.389 -0.1925 -0.1176 -0.3834
  189DOPC  H15A23258   1.511   7.500   2.373  0.4431  2.5021  2.7089
  189DOPC  H15B23259   1.590   7.349   2.419  0.4667  0.0294  0.5138
  189DOPC  H15C23260   1.666   7.445   2.299 -0.6277 -2.3731 -0.5635
  189DOPC   C1123261   1.617   7.547   2.759 -0.3541 -0.1644 -0.9664
  189DOPC  H11A23262   1.529   7.556   2.826 -1.3898  3.3640 -2.5555
  189DOPC  H11B23263   1.675   7.456   2.786 -0.8445 -0.4464 -0.8589
  189DOPC     P23264   1.825   7.676   2.861  0.1498 -0.0050  0.2341
  189DOPC   O1323265   1.864   7.819   2.860 -0.0557 -0.2391 -0.1255
  189DOPC   O1423266   1.914   7.585   2.786 -0.0985  0.1695  0.1469
  189DOPC   O1223267   1.686   7.676   2.783  0.1938 -0.0978 -0.5332
  189DOPC   O1123268   1.781   7.618   2.993  0.2605  0.2192  0.4880
  189DOPC    C123269   1.841   7.503   3.051 -0.1127 -0.5958  0.1903
  189DOPC    HA23270   1.866   7.419   2.983  2.4219  0.5002 -0.3394
  189DOPC    HB23271   1.770   7.465   3.129  1.7195  0.2561  2.3937
  189DOPC    C223272   1.980   7.533   3.115  0.3537 -0.2965  0.0771
  189DOPC    HS23273   2.055   7.546   3.035 -1.0463  2.1778 -0.9405
  189DOPC   O2123274   2.010   7.429   3.207 -0.3601  0.1840  0.0288
  189DOPC   C2123275   2.137   7.393   3.209  0.8285  0.8818 -0.0867
  189DOPC   O2223276   2.226   7.442   3.142 -0.1046  0.0374 -0.1880
  189DOPC   C2223277   2.154   7.295   3.323  0.1521 -0.1926  0.8191
  189DOPC   H2R23278   2.216   7.212   3.284 -1.5095 -0.3285 -1.7594
  189DOPC   H2S23279   2.059   7.250   3.358 -0.0292  0.5482  1.2923
  189DOPC    C323280   1.983   7.670   3.198 -0.0052 -0.0306  0.3094
  189DOPC    HX23281   1.904   7.669   3.276 -0.0001 -2.2309  0.3328
  189DOPC    HY23282   1.956   7.757   3.134 -0.5216 -0.7405 -0.4674
  189DOPC   O3123283   2.112   7.690   3.260  0.2993 -0.4599 -0.7687
  189DOPC   C3123284   2.123   7.806   3.324 -0.0067 -0.8047  0.1063
  189DOPC   O3223285   2.039   7.896   3.329  0.0051  0.6663  0.2582
  189DOPC   C3223286   2.261   7.819   3.402  1.1381 -0.5086  0.1351
  189DOPC   H2X23287   2.275   7.715   3.440 -2.0205 -1.1802 -0.2338
  189DOPC   H2Y23288   2.343   7.848   3.334  0.6720  1.1848  0.2402
  189DOPC   C2323289   2.204   7.376   3.443 -0.0769 -0.3120 -0.8159
  189DOPC   H3R23290   2.127   7.450   3.473 -0.8483 -1.2820 -0.3273
  189DOPC   H3S23291   2.295   7.436   3.419  0.8316 -0.2458  2.3126
  189DOPC   C2423292   2.241   7.295   3.567  0.7379 -0.4442 -0.2985
  189DOPC   H4R23293   2.275   7.375   3.636  0.0553  2.4107 -3.0517
  189DOPC   H4S23294   2.325   7.228   3.543  2.4447  1.2279  0.7286
  189DOPC   C2523295   2.116   7.224   3.638 -0.0584 -1.0313  0.4126
  189DOPC   H5R23296   2.089   7.135   3.577  0.4501  0.0636 -1.4959
  189DOPC   H5S23297   2.029   7.287   3.610  1.6887  1.3751  0.0416
  189DOPC   C2623298   2.144   7.191   3.786  0.5216  0.5575  0.3566
  189DOPC   H6R23299   2.188   7.277   3.841 -1.8859  1.8235  0.4459
  189DOPC   H6S23300   2.223   7.112   3.781  0.8390  0.9191 -0.5251
  189DOPC   C2723301   2.017   7.146   3.851  0.4824  0.3266 -0.0887
  189DOPC   H7R23302   2.034   7.098   3.949  1.1700  0.0470 -0.3405
  189DOPC   H7S23303   1.963   7.070   3.789  0.1892  0.2613  0.2432
  189DOPC   C2823304   1.914   7.263   3.848 -0.3448  0.2377 -0.9646
  189DOPC   H8R23305   1.821   7.236   3.901  0.2157  2.1744  1.1317
  189DOPC   H8S23306   1.883   7.285   3.744 -0.1335  0.1877 -1.0397
  189DOPC   C2923307   1.957   7.380   3.934 -0.7136 -0.5924 -0.0063
  189DOPC   H9R23308   2.001   7.470   3.889  1.7343 -0.3434  2.5860
  189DOPC  C21023309   1.979   7.371   4.065 -0.1710 -0.4649 -0.7424
  189DOPC  H10R23310   2.011   7.465   4.112 -1.7020  0.6489 -1.8439
  189DOPC  C21123311   1.951   7.258   4.158  0.0387  0.6297  0.2954
  189DOPC  H11R23312   2.042   7.213   4.202 -0.6318  1.5178  2.7534
  189DOPC  H11S23313   1.887   7.181   4.110  0.8308  0.6908 -0.9109
  189DOPC  C21223314   1.861   7.303   4.275  0.1472  0.3914  0.3894
  189DOPC  H12R23315   1.773   7.360   4.237 -1.0566  0.1156  2.6209
  189DOPC  H12S23316   1.916   7.373   4.341  1.5226  0.7586 -1.0803
  189DOPC  C21323317   1.809   7.179   4.353  0.3274 -0.7755 -0.2453
  189DOPC  H13R23318   1.885   7.124   4.413 -0.9320  0.2054  2.4016
  189DOPC  H13S23319   1.780   7.102   4.278  0.1935 -0.7898 -0.1795
  189DOPC  C21423320   1.703   7.224   4.455  0.0119  0.0748 -0.2281
  189DOPC  H14R23321   1.624   7.276   4.397  0.5519  0.3663 -0.7091
  189DOPC  H14S23322   1.742   7.308   4.516 -3.5079  0.4004  1.8069
  189DOPC  C21523323   1.639   7.099   4.524  0.2103 -0.1477 -0.0676
  189DOPC  H15R23324   1.725   7.034   4.554  0.5516  0.4764  0.3101
  189DOPC  H15S23325   1.584   7.039   4.448 -0.4720 -0.2581  0.5003
  189DOPC  C21623326   1.546   7.136   4.637  0.1418 -0.1393 -0.1936
  189DOPC  H16R23327   1.489   7.227   4.609 -2.1193 -0.9776  1.3359
  189DOPC  H16S23328   1.595   7.147   4.736 -1.3575  0.1582  0.5341
  189DOPC  C21723329   1.433   7.035   4.643 -0.0477  0.5450 -0.2051
  189DOPC  H17R23330   1.487   6.938   4.635  1.9551  1.5510  0.4222
  189DOPC  H17S23331   1.372   7.052   4.552 -1.1725 -2.4722 -0.1347
  189DOPC  C21823332   1.339   7.068   4.754 -0.0237  1.2883  0.2205
  189DOPC  H18R23333   1.385   7.066   4.855  0.9505  1.6334 -0.2049
  189DOPC  H18S23334   1.256   6.995   4.763  0.0607  1.3123  1.2916
  189DOPC  H18T23335   1.291   7.168   4.754 -2.0801  0.3537  1.0860
  189DOPC   C3323336   2.244   7.916   3.521 -0.9127 -0.4589  0.0340
  189DOPC   H3X23337   2.214   8.017   3.485  1.8068  0.3245 -0.2263
  189DOPC   H3Y23338   2.347   7.934   3.558 -0.5275  0.8810 -1.5411
  189DOPC   C3423339   2.158   7.874   3.640 -0.1061 -0.1712 -0.1473
  189DOPC   H4X23340   2.060   7.860   3.588  1.0608  0.7985 -2.7891
  189DOPC   H4Y23341   2.148   7.965   3.702 -3.2646  0.9477 -2.0679
  189DOPC   C3523342   2.211   7.755   3.717 -0.0693  0.6516  0.0696
  189DOPC   H5X23343   2.315   7.768   3.754  0.1753 -2.4546  0.7357
  189DOPC   H5Y23344   2.223   7.660   3.661 -0.9047 -0.2795  1.3870
  189DOPC   C3623345   2.136   7.730   3.851 -0.0252 -0.6042 -0.4681
  189DOPC   H6X23346   2.028   7.712   3.831 -0.5781 -0.2296  1.8542
  189DOPC   H6Y23347   2.162   7.632   3.898  0.1636 -0.2275  0.2321
  189DOPC   C3723348   2.142   7.842   3.956  0.0727  0.1857 -0.2335
  189DOPC   H7X23349   2.247   7.878   3.967 -0.6850  2.4381  0.2707
  189DOPC   H7Y23350   2.100   7.937   3.917  0.0134  0.4064  0.3488
  189DOPC   C3823351   2.074   7.796   4.084  0.2238  0.8381  0.5758
  189DOPC   H8X23352   2.130   7.706   4.118 -1.4306 -0.2856  0.4166
  189DOPC   H8Y23353   1.973   7.773   4.045  0.6570  2.8827 -2.0379
  189DOPC   C3923354   2.077   7.903   4.189 -0.1381 -0.5180  0.4235
  189DOPC   H9X23355   2.086   8.007   4.156 -3.5943  0.6155  2.4965
  189DOPC  C31023356   2.058   7.871   4.318  0.1105 -0.0814  0.8399
  189DOPC  H10X23357   2.063   7.951   4.394  0.4359  0.9686 -0.2557
  189DOPC  C31123358   2.034   7.733   4.377  0.3904  1.3030  0.6582
  189DOPC  H11X23359   2.137   7.698   4.399  1.0013  2.7400  0.2006
  189DOPC  H11Y23360   2.000   7.651   4.311  1.3337  0.0795  1.6450
  189DOPC  C31223361   1.943   7.722   4.506 -0.3369 -0.0336 -0.2589
  189DOPC  H12X23362   1.969   7.804   4.577  2.4840 -1.4601  0.4802
  189DOPC  H12Y23363   1.984   7.628   4.548  1.6370 -0.1985 -2.3527
  189DOPC  C31323364   1.793   7.712   4.471 -0.2357  0.2352 -0.0669
  189DOPC  H13X23365   1.763   7.798   4.408 -2.1399  0.1912  0.7068
  189DOPC  H13Y23366   1.791   7.619   4.409  2.1425  1.6198 -2.4037
  189DOPC  C31423367   1.700   7.703   4.597 -0.2228  0.4292  0.2068
  189DOPC  H14X23368   1.747   7.634   4.670 -2.2997 -0.4007  0.8280
  189DOPC  H14Y23369   1.688   7.805   4.639  0.8777  0.7394 -0.1997
  189DOPC  C31523370   1.566   7.646   4.562  0.5792  0.5272  0.5152
  189DOPC  H15X23371   1.579   7.566   4.485 -0.6376  0.0441  0.7948
  189DOPC  H15Y23372   1.515   7.729   4.509 -1.7451 -1.3087 -0.2720
  189DOPC  C31623373   1.478   7.588   4.672  0.0203 -0.2042 -0.0064
  189DOPC  H16X23374   1.436   7.489   4.642 -0.8066  0.1748 -0.1457
  189DOPC  H16Y23375   1.543   7.564   4.759 -0.3859 -1.2008  0.0394
  189DOPC  C31723376   1.369   7.695   4.730 -0.2628  0.1311 -0.3121
  189DOPC  H17X23377   1.338   7.658   4.830  3.7909 -0.6819  0.7963
  189DOPC  H17Y23378   1.425   7.789   4.747 -0.1389 -0.0424  0.2825
  189DOPC  C31823379   1.256   7.715   4.641 -0.2548 -1.1363  0.2871
  189DOPC  H18X23380   1.179   7.637   4.663 -1.0312 -0.6003 -0.4524
  189DOPC  H18Y23381   1.216   7.815   4.668  3.1369  0.4809 -0.2536
  189DOPC  H18Z23382   1.283   7.723   4.534  0.0665  0.9647  0.4979
  190DOPC     N23383   1.043   7.019   2.700 -0.6120  0.0551  0.5283
  190DOPC   C1223384   1.145   7.060   2.810  0.2516  0.8061 -0.8748
  190DOPC  H12A23385   1.100   7.030   2.904 -0.3468 -1.5864 -1.8366
  190DOPC  H12B23386   1.161   7.167   2.810 -2.3552  1.3498  2.4604
  190DOPC   C1323387   1.094   7.093   2.579 -0.6191  1.0881  0.2226
  190DOPC  H13A23388   1.199   7.079   2.559 -0.8409 -0.1876 -0.0821
  190DOPC  H13B23389   1.038   7.063   2.492  0.4069  0.2182 -0.1576
  190DOPC  H13C23390   1.080   7.200   2.574  0.1671  1.2868  1.6420
  190DOPC   C1423391   0.910   7.076   2.735 -0.5831  0.2249  0.0346
  190DOPC  H14A23392   0.827   7.043   2.675 -0.2709 -2.1268  0.7725
  190DOPC  H14B23393   0.876   7.057   2.836 -3.3741 -0.7156 -0.9892
  190DOPC  H14C23394   0.909   7.184   2.739 -0.9685  0.1993  1.0492
  190DOPC   C1523395   1.035   6.870   2.671  0.3376  0.1595  0.1982
  190DOPC  H15A23396   0.968   6.836   2.594  1.3614 -1.2548 -0.1105
  190DOPC  H15B23397   0.994   6.821   2.758 -0.2340  2.0547  1.0640
  190DOPC  H15C23398   1.135   6.835   2.648  0.2310  0.0815 -0.1442
  190DOPC   C1123399   1.279   6.992   2.792 -0.0787  0.6008 -0.2148
  190DOPC  H11A23400   1.335   6.981   2.888 -1.8954 -2.2999  0.6142
  190DOPC  H11B23401   1.266   6.885   2.765  3.3723  0.2727 -1.0252
  190DOPC     P23402   1.445   7.184   2.723  0.0566  0.0538  0.1792
  190DOPC   O1323403   1.381   7.295   2.647 -0.1395 -0.1661  0.1904
  190DOPC   O1423404   1.590   7.152   2.696  0.4860 -1.1839 -0.2044
  190DOPC   O1223405   1.358   7.051   2.689 -1.1195  0.6137 -0.3866
  190DOPC   O1123406   1.412   7.213   2.870 -0.5465  0.8129 -0.3432
  190DOPC    C123407   1.521   7.230   2.970  0.3929  0.1580  0.3959
  190DOPC    HA23408   1.492   7.304   3.047  1.7356  0.6918  0.4162
  190DOPC    HB23409   1.620   7.261   2.929  0.0572 -1.8742 -2.2267
  190DOPC    C223410   1.550   7.088   3.044 -0.1065 -0.1658 -0.2681
  190DOPC    HS23411   1.580   7.014   2.967  0.3037  1.1131 -1.3916
  190DOPC   O2123412   1.429   7.042   3.104 -0.1154 -0.3065 -0.0142
  190DOPC   C2123413   1.434   6.921   3.153 -0.7982  0.5356  0.2149
  190DOPC   O2223414   1.524   6.841   3.141 -0.3058  0.8003  0.0355
  190DOPC   C2223415   1.301   6.882   3.226  0.0133 -0.2369  0.3116
  190DOPC   H2R23416   1.244   6.806   3.168 -2.5988  0.6919  1.5055
  190DOPC   H2S23417   1.233   6.969   3.237 -0.7450 -0.5546 -1.4726
  190DOPC    C323418   1.668   7.106   3.146 -0.8633  1.3834 -0.2907
  190DOPC    HX23419   1.742   7.154   3.078  0.4151 -0.8391 -0.5886
  190DOPC    HY23420   1.725   7.015   3.175  0.5055  2.1689 -0.4185
  190DOPC   O3123421   1.625   7.184   3.263 -0.2722  0.1274  0.2343
  190DOPC   C3123422   1.728   7.205   3.343  1.1576  0.4233  0.1669
  190DOPC   O3223423   1.843   7.162   3.328 -0.1991  0.1838  0.4286
  190DOPC   C3223424   1.680   7.290   3.465 -0.2017  0.3925 -0.6763
  190DOPC   H2X23425   1.569   7.302   3.459 -0.1777  0.7946 -0.3584
  190DOPC   H2Y23426   1.694   7.231   3.558 -0.8752  0.4771 -0.5095
  190DOPC   C2323427   1.318   6.828   3.364 -0.2727 -0.1946  0.4815
  190DOPC   H3R23428   1.366   6.728   3.362 -1.7595 -0.9240  0.0140
  190DOPC   H3S23429   1.220   6.818   3.414  0.6358 -1.5122  2.0820
  190DOPC   C2423430   1.411   6.916   3.451  0.0943  0.0801 -0.3681
  190DOPC   H4R23431   1.362   7.010   3.486  0.5118  0.2295 -0.1656
  190DOPC   H4S23432   1.505   6.939   3.396 -0.3883  0.5047 -1.0319
  190DOPC   C2523433   1.449   6.837   3.581 -0.1858 -0.4615 -0.7660
  190DOPC   H5R23434   1.511   6.750   3.552  3.3284  1.3687  0.5729
  190DOPC   H5S23435   1.353   6.806   3.626 -1.4126  1.0435 -2.1966
  190DOPC   C2623436   1.531   6.921   3.680 -0.1597  0.3437 -0.1745
  190DOPC   H6R23437   1.488   7.023   3.686 -1.1415 -0.0377 -0.6066
  190DOPC   H6S23438   1.639   6.917   3.651  0.1223 -1.1319  0.9483
  190DOPC   C2723439   1.541   6.854   3.822 -0.1897 -0.3745  0.8640
  190DOPC   H7R23440   1.438   6.816   3.842 -0.4907  0.6768  1.3429
  190DOPC   H7S23441   1.566   6.935   3.894  1.3313  1.9708 -2.1006
  190DOPC   C2823442   1.639   6.730   3.838 -0.3249  0.0884  0.9848
  190DOPC   H8R23443   1.625   6.661   3.752  0.9822  0.8751  0.0917
  190DOPC   H8S23444   1.604   6.687   3.934  0.9407 -1.6751  0.7066
  190DOPC   C2923445   1.786   6.767   3.847  0.8977 -0.2812  0.1888
  190DOPC   H9R23446   1.827   6.781   3.746  0.1257  1.2506  0.0578
  190DOPC  C21023447   1.862   6.778   3.961  0.3600 -1.0870  0.1652
  190DOPC  H10R23448   1.967   6.812   3.956  0.2150 -0.3696  1.4363
  190DOPC  C21123449   1.819   6.734   4.100  0.7237  0.0893  0.1448
  190DOPC  H11R23450   1.818   6.626   4.126  1.5572  0.5483  2.2376
  190DOPC  H11S23451   1.722   6.786   4.117 -0.7341 -1.9391 -1.4876
  190DOPC  C21223452   1.909   6.786   4.208 -0.7019  0.0763 -0.3777
  190DOPC  H12R23453   1.921   6.896   4.209 -0.4861  0.0520 -0.2712
  190DOPC  H12S23454   2.003   6.726   4.208 -0.4251  0.4833  1.0490
  190DOPC  C21323455   1.833   6.753   4.342  0.3309 -0.5233 -0.4163
  190DOPC  H13R23456   1.804   6.646   4.344  1.0820 -0.7744 -1.7547
  190DOPC  H13S23457   1.738   6.811   4.335  0.1491 -0.5572  1.3076
  190DOPC  C21423458   1.917   6.795   4.465  0.1744  0.0285 -0.1217
  190DOPC  H14R23459   1.964   6.894   4.451 -3.1530  1.4470 -2.6237
  190DOPC  H14S23460   1.993   6.715   4.452  0.8572  1.0066 -2.5661
  190DOPC  C21523461   1.842   6.787   4.594 -0.2046 -0.5395  0.6008
  190DOPC  H15R23462   1.741   6.744   4.577 -0.4160 -0.4850  1.6469
  190DOPC  H15S23463   1.810   6.882   4.642 -1.5272 -1.7742  2.2715
  190DOPC  C21623464   1.912   6.716   4.718  0.1542  0.1123  0.1974
  190DOPC  H16R23465   1.837   6.728   4.799 -0.7535  0.5020 -0.6821
  190DOPC  H16S23466   2.005   6.771   4.745  0.1979  0.6431 -0.9835
  190DOPC  C21723467   1.945   6.566   4.696 -0.6457  0.2810  0.0985
  190DOPC  H17R23468   2.034   6.565   4.629  0.9956 -0.2054  2.1666
  190DOPC  H17S23469   1.859   6.508   4.658 -0.1229 -0.8395  0.5713
  190DOPC  C21823470   2.000   6.501   4.825  0.0183  0.2450  0.1139
  190DOPC  H18R23471   2.044   6.400   4.813 -0.4879 -0.1373  1.2983
  190DOPC  H18S23472   1.932   6.506   4.913 -0.4708  2.2488 -0.3385
  190DOPC  H18T23473   2.079   6.573   4.857 -2.4760  3.1323  0.2326
  190DOPC   C3323474   1.750   7.429   3.470  0.0781 -0.6185  0.0881
  190DOPC   H3X23475   1.724   7.470   3.370  0.4964 -2.2455 -0.7231
  190DOPC   H3Y23476   1.860   7.409   3.470  0.3023  0.5243  1.2167
  190DOPC   C3423477   1.720   7.511   3.598 -0.4345 -0.5216 -0.1201
  190DOPC   H4X23478   1.737   7.457   3.693  0.4875  0.6998  0.4481
  190DOPC   H4Y23479   1.611   7.532   3.607 -0.5557 -0.9796 -0.5183
  190DOPC   C3523480   1.803   7.638   3.610 -0.3998 -0.6326  0.4491
  190DOPC   H5X23481   1.816   7.688   3.512  0.3218 -1.5862  0.0488
  190DOPC   H5Y23482   1.905   7.608   3.643  1.1589 -0.1488 -3.4478
  190DOPC   C3623483   1.749   7.751   3.705 -0.0612 -0.0662 -0.2673
  190DOPC   H6X23484   1.838   7.816   3.720 -0.7648  1.1636 -1.2974
  190DOPC   H6Y23485   1.672   7.819   3.665 -1.0928  0.3695  2.2669
  190DOPC   C3723486   1.697   7.696   3.841  0.3290 -0.0826 -0.2857
  190DOPC   H7X23487   1.613   7.625   3.826 -0.9409  1.2710  0.1693
  190DOPC   H7Y23488   1.777   7.642   3.894 -0.1163  0.1127  0.6088
  190DOPC   C3823489   1.646   7.812   3.924  0.0926 -0.4383 -0.3192
  190DOPC   H8X23490   1.561   7.861   3.873  0.3749 -0.3528 -0.7185
  190DOPC   H8Y23491   1.725   7.891   3.929  1.3983 -1.7397  0.6998
  190DOPC   C3923492   1.621   7.765   4.064 -0.3039 -0.4765  0.5408
  190DOPC   H9X23493   1.706   7.712   4.109  0.2419  0.0094  0.1122
  190DOPC  C31023494   1.516   7.784   4.145 -0.7648 -0.2265 -0.1766
  190DOPC  H10X23495   1.526   7.723   4.236  0.2878 -0.9382 -0.7396
  190DOPC  C31123496   1.381   7.840   4.110 -0.2273 -0.3092 -0.2669
  190DOPC  H11X23497   1.314   7.752   4.114  0.1761 -0.7159 -1.7767
  190DOPC  H11Y23498   1.388   7.873   4.004 -0.0166 -0.4632 -0.3013
  190DOPC  C31223499   1.335   7.960   4.195 -0.0723 -0.8597  0.5728
  190DOPC  H12X23500   1.250   7.998   4.134 -0.1054 -3.0121 -0.8297
  190DOPC  H12Y23501   1.414   8.038   4.189 -0.6896 -0.3291 -2.2612
  190DOPC  C31323502   1.289   7.915   4.328 -0.4632  0.0783  0.9360
  190DOPC  H13X23503   1.181   7.888   4.323 -0.3898 -0.0501 -0.0650
  190DOPC  H13Y23504   1.358   7.843   4.375 -0.5424  0.5837  1.8534
  190DOPC  C31423505   1.286   8.036   4.431 -0.2590  0.4689  0.0366
  190DOPC  H14X23506   1.278   7.979   4.526 -1.3256 -1.7914 -1.3506
  190DOPC  H14Y23507   1.383   8.090   4.429 -0.1118  0.2042 -0.0224
  190DOPC  C31523508   1.161   8.128   4.412 -0.9234 -0.2097 -0.2373
  190DOPC  H15X23509   1.139   8.169   4.513  0.9193  0.3426 -0.0203
  190DOPC  H15Y23510   1.072   8.065   4.389  0.2922 -1.8725 -0.6183
  190DOPC  C31623511   1.170   8.253   4.325 -0.0769  0.9577 -0.1658
  190DOPC  H16X23512   1.252   8.325   4.349  1.7005 -0.3797 -1.8846
  190DOPC  H16Y23513   1.196   8.217   4.223 -1.7118  2.3636 -1.1279
  190DOPC  C31723514   1.038   8.324   4.312 -0.4121 -0.4923 -0.3869
  190DOPC  H17X23515   1.034   8.400   4.230 -0.9721  0.6312  0.6513
  190DOPC  H17Y23516   0.962   8.245   4.298  1.2840 -2.1673 -0.4594
  190DOPC  C31823517   1.015   8.412   4.442  0.1550  0.3265  0.1319
  190DOPC  H18X23518   0.916   8.462   4.430  0.4138  0.9659  0.6789
  190DOPC  H18Y23519   1.017   8.350   4.534 -2.4331 -0.4714 -0.2431
  190DOPC  H18Z23520   1.091   8.492   4.448  0.6448 -0.1434  0.2959
  191DOPC     N23521   3.779   0.777   2.739  0.6330  0.0439  0.1231
  191DOPC   C1223522   3.844   0.815   2.873 -0.2436  0.1360  0.1471
  191DOPC  H12A23523   3.948   0.821   2.847 -0.3899 -1.6066 -0.9944
  191DOPC  H12B23524   3.846   0.728   2.936 -2.2435  1.0977  1.6829
  191DOPC   C1323525   3.639   0.724   2.766 -0.4218  0.4565  0.6438
  191DOPC  H13A23526   3.579   0.802   2.811 -1.4952 -0.2868  0.5457
  191DOPC  H13B23527   3.583   0.707   2.675  0.8839  0.5291 -0.1957
  191DOPC  H13C23528   3.649   0.644   2.839  0.4929 -1.3613 -1.3621
  191DOPC   C1423529   3.868   0.676   2.670 -0.4402 -0.3316  0.5348
  191DOPC  H14A23530   3.843   0.675   2.565 -1.4166 -0.9143  0.7632
  191DOPC  H14B23531   3.971   0.707   2.661 -0.6436 -0.1432 -1.5670
  191DOPC  H14C23532   3.858   0.575   2.707  3.4572 -1.0556  0.0678
  191DOPC   C1523533   3.760   0.900   2.649  0.6438  0.1526  0.4538
  191DOPC  H15A23534   3.710   0.872   2.558  1.2721 -0.1256  0.1883
  191DOPC  H15B23535   3.855   0.947   2.625 -0.3554  1.2190 -1.6917
  191DOPC  H15C23536   3.701   0.975   2.699  0.9183  0.8459 -0.2403
  191DOPC   C1123537   3.799   0.937   2.953 -0.2295 -0.0556  0.1809
  191DOPC  H11A23538   3.688   0.942   2.945 -0.1999 -0.3526 -0.5024
  191DOPC  H11B23539   3.808   0.916   3.061 -3.1087 -1.7364  0.1938
  191DOPC     P23540   3.999   1.093   2.942 -0.1852 -0.2489  0.2653
  191DOPC   O1323541   4.016   1.236   2.911 -0.1335  0.8081  0.0363
  191DOPC   O1423542   4.093   0.997   2.871  0.2936 -0.4748  0.4133
  191DOPC   O1223543   3.851   1.061   2.906 -0.2967  0.2334  0.0787
  191DOPC   O1123544   4.000   1.060   3.099 -0.1676 -0.5513 -0.4405
  191DOPC    C123545   3.961   1.166   3.195  0.0856  0.4160  0.4197
  191DOPC    HA23546   3.854   1.190   3.182 -0.0050 -0.3768 -0.3907
  191DOPC    HB23547   4.030   1.253   3.181 -0.5829  1.1036  1.2827
  191DOPC    C223548   3.980   1.120   3.340 -0.0860  0.5135  0.7330
  191DOPC    HS23549   4.088   1.104   3.363 -0.6295 -2.4027  1.7770
  191DOPC   O2123550   3.903   1.001   3.360  0.2693  0.4344  0.1079
  191DOPC   C2123551   3.965   0.881   3.375  0.0402  0.0673 -0.5037
  191DOPC   O2223552   4.083   0.867   3.383 -0.4458  0.1257 -0.4721
  191DOPC   C2223553   3.863   0.778   3.399  0.2887  0.6176  0.0609
  191DOPC   H2R23554   3.897   0.676   3.369 -1.6979  0.0013 -0.2068
  191DOPC   H2S23555   3.788   0.810   3.324  0.5575 -0.3226 -0.6215
  191DOPC    C323556   3.931   1.226   3.432 -0.1147 -0.6455  0.2932
  191DOPC    HX23557   3.931   1.192   3.538 -0.3718  0.1065  0.5385
  191DOPC    HY23558   3.824   1.237   3.404 -0.8792 -1.6345  2.6562
  191DOPC   O3123559   4.011   1.345   3.421  0.1350  0.1099 -0.1618
  191DOPC   C3123560   3.939   1.457   3.431 -0.5263  0.3303 -0.3450
  191DOPC   O3223561   3.820   1.465   3.415 -0.1412 -0.3932  0.2959
  191DOPC   C3223562   4.032   1.577   3.450 -0.4300 -0.8200  0.1854
  191DOPC   H2X23563   4.139   1.552   3.434 -0.7550 -1.3826 -1.3409
  191DOPC   H2Y23564   4.014   1.658   3.376  1.3422  1.4933  2.1079
  191DOPC   C2323565   3.793   0.782   3.536 -0.6987  0.5582  0.0259
  191DOPC   H3R23566   3.711   0.707   3.542 -0.3982  0.2775  0.7862
  191DOPC   H3S23567   3.742   0.880   3.526 -1.1842  0.3323  0.2733
  191DOPC   C2423568   3.896   0.761   3.644 -0.2186  0.4617  0.2525
  191DOPC   H4R23569   3.954   0.853   3.667  0.7851  0.2696 -1.2924
  191DOPC   H4S23570   3.972   0.688   3.606 -1.3354 -0.9538  0.6573
  191DOPC   C2523571   3.841   0.726   3.778 -0.7330 -0.6405 -0.1076
  191DOPC   H5R23572   3.776   0.636   3.773 -0.1025 -1.0971 -0.3371
  191DOPC   H5S23573   3.780   0.814   3.806 -0.7339 -0.9210  0.8161
  191DOPC   C2623574   3.949   0.702   3.887 -0.2498 -0.1329  0.5625
  191DOPC   H6R23575   4.032   0.775   3.871  0.5311 -0.8422  1.2585
  191DOPC   H6S23576   4.004   0.606   3.883 -1.7770 -1.1011  1.8448
  191DOPC   C2723577   3.883   0.728   4.018  0.4578  0.9737  0.9482
  191DOPC   H7R23578   3.786   0.672   4.018  1.0442 -0.1403 -0.9065
  191DOPC   H7S23579   3.849   0.834   4.028  2.8184  1.9356 -0.4541
  191DOPC   C2823580   3.982   0.700   4.130 -0.0265  0.4769 -0.2060
  191DOPC   H8R23581   4.014   0.594   4.135 -0.2650  0.4575  2.7168
  191DOPC   H8S23582   3.922   0.709   4.224 -0.0786 -0.7442 -0.0994
  191DOPC   C2923583   4.099   0.795   4.128  0.5536 -0.0200 -0.0030
  191DOPC   H9R23584   4.068   0.898   4.107 -1.9943 -0.7639 -0.3126
  191DOPC  C21023585   4.227   0.756   4.138  0.5458  0.0779  0.4728
  191DOPC  H10R23586   4.298   0.839   4.140  0.6302  0.0002  0.9175
  191DOPC  C21123587   4.285   0.616   4.157  0.3288 -0.8310  0.2365
  191DOPC  H11R23588   4.210   0.535   4.164  0.1427 -0.6716  0.0846
  191DOPC  H11S23589   4.350   0.619   4.247 -0.9098 -0.1519  1.1326
  191DOPC  C21223590   4.380   0.582   4.036 -0.1953 -0.0417 -0.6942
  191DOPC  H12R23591   4.460   0.657   4.028 -0.7428  0.8519  1.5575
  191DOPC  H12S23592   4.327   0.604   3.940 -2.1297 -1.4646 -0.0169
  191DOPC  C21323593   4.432   0.440   4.050 -0.5837 -0.7660 -0.6401
  191DOPC  H13R23594   4.341   0.378   4.067 -1.4032  0.9624  1.6828
  191DOPC  H13S23595   4.491   0.443   4.144 -0.7170 -2.9828 -0.4337
  191DOPC  C21423596   4.510   0.398   3.920  0.6444 -0.6223  0.4733
  191DOPC  H14R23597   4.605   0.454   3.903 -0.2899  0.8692 -0.0458
  191DOPC  H14S23598   4.456   0.446   3.836  0.3663 -1.8711 -0.0859
  191DOPC  C21523599   4.536   0.244   3.892 -0.4250  0.3470  0.0874
  191DOPC  H15R23600   4.522   0.214   3.786 -0.0716 -0.2268  0.1972
  191DOPC  H15S23601   4.447   0.190   3.931  0.2753 -0.5020  0.5505
  191DOPC  C21623602   4.672   0.183   3.941  0.1699 -0.6028 -0.0684
  191DOPC  H16R23603   4.669   0.196   4.051  0.2273 -0.1685 -0.1156
  191DOPC  H16S23604   4.750   0.249   3.896 -1.3805  1.1314 -0.3284
  191DOPC  C21723605   4.692   0.031   3.929  0.4487  0.3192 -0.5847
  191DOPC  H17R23606   4.786  -0.004   3.977 -0.9151 -0.3934  1.7003
  191DOPC  H17S23607   4.706   0.011   3.820  0.6132  2.0032 -0.8945
  191DOPC  C21823608   4.572  -0.063   3.978 -0.6114 -0.3585  1.0660
  191DOPC  H18R23609   4.609  -0.165   3.954  2.8569  0.7553  1.1445
  191DOPC  H18S23610   4.480  -0.039   3.921 -0.1664  1.7861  1.1623
  191DOPC  H18T23611   4.554  -0.062   4.088  1.2788  1.5094  1.4017
  191DOPC   C3323612   4.010   1.637   3.586  0.0623  0.1063 -0.0323
  191DOPC   H3X23613   3.907   1.679   3.590 -0.1986 -0.5919  2.1795
  191DOPC   H3Y23614   4.080   1.723   3.596  0.7723 -0.6173  1.6677
  191DOPC   C3423615   4.044   1.540   3.701  0.2455 -0.7276  0.4690
  191DOPC   H4X23616   4.132   1.475   3.678 -0.1687 -0.2622 -2.9677
  191DOPC   H4Y23617   3.953   1.479   3.717  0.4448 -0.8644  1.1229
  191DOPC   C3523618   4.052   1.605   3.840 -1.0244 -0.1021  0.3705
  191DOPC   H5X23619   3.965   1.667   3.870 -1.5193 -0.6735  0.1364
  191DOPC   H5Y23620   4.148   1.660   3.835  0.1664 -2.0077  0.9953
  191DOPC   C3623621   4.058   1.497   3.950 -1.1134  0.3483 -0.5837
  191DOPC   H6X23622   3.960   1.445   3.961 -1.5966  0.9086 -1.9185
  191DOPC   H6Y23623   4.134   1.421   3.920  0.3452  2.0293 -1.3644
  191DOPC   C3723624   4.108   1.560   4.077 -0.0567 -0.1540 -0.1587
  191DOPC   H7X23625   4.200   1.618   4.057  0.0416 -0.4371 -0.5417
  191DOPC   H7Y23626   4.026   1.627   4.109 -1.8278 -2.5017  0.5320
  191DOPC   C3823627   4.121   1.480   4.201  0.5894 -0.2661  0.0986
  191DOPC   H8X23628   4.024   1.432   4.227  0.0744  0.9369  0.4942
  191DOPC   H8Y23629   4.139   1.540   4.293 -1.2157  1.3348 -0.5111
  191DOPC   C3923630   4.235   1.383   4.195 -0.0809 -0.4489  0.5829
  191DOPC   H9X23631   4.214   1.302   4.123  0.7539  0.3974 -0.6492
  191DOPC  C31023632   4.361   1.412   4.236 -0.3170  0.2639 -0.6001
  191DOPC  H10X23633   4.440   1.336   4.250  1.2152  1.8968  0.0086
  191DOPC  C31123634   4.403   1.545   4.287  0.4754 -0.1303  0.7205
  191DOPC  H11X23635   4.322   1.616   4.314 -0.6523 -1.1177  0.0050
  191DOPC  H11Y23636   4.462   1.590   4.205 -0.1888  0.5674  0.6127
  191DOPC  C31223637   4.490   1.536   4.413  0.0811 -0.4805  0.4276
  191DOPC  H12X23638   4.514   1.637   4.452  2.2075 -0.6404 -0.3617
  191DOPC  H12Y23639   4.588   1.489   4.394  0.3531  0.3016 -0.1406
  191DOPC  C31323640   4.427   1.448   4.526  0.3262  0.3062 -0.4323
  191DOPC  H13X23641   4.326   1.490   4.545  1.2324  2.0643  0.7917
  191DOPC  H13Y23642   4.430   1.339   4.502 -1.1326 -0.4351  2.2812
  191DOPC  C31423643   4.491   1.469   4.655 -0.0030 -0.2536  0.0422
  191DOPC  H14X23644   4.497   1.574   4.691  1.3532 -0.4764  0.5387
  191DOPC  H14Y23645   4.431   1.413   4.730  2.6622 -0.6177  2.0660
  191DOPC  C31523646   4.637   1.411   4.666  0.1078  0.4783 -0.6471
  191DOPC  H15X23647   4.701   1.435   4.578  0.2278 -1.6456 -1.1949
  191DOPC  H15Y23648   4.624   1.301   4.656 -0.1560  0.2348  1.9094
  191DOPC  C31623649   4.695   1.443   4.801 -0.9815 -0.5577  0.0604
  191DOPC  H16X23650   4.708   1.553   4.795  2.0331 -0.8193  0.2716
  191DOPC  H16Y23651   4.624   1.426   4.885 -0.2189 -0.9129  0.6457
  191DOPC  C31723652   4.817   1.356   4.830 -0.4374  0.3159  0.2314
  191DOPC  H17X23653   4.867   1.384   4.925 -0.2870  4.8998 -0.9965
  191DOPC  H17Y23654   4.798   1.247   4.815  4.1600 -0.5901 -0.6592
  191DOPC  C31823655   4.934   1.385   4.730 -0.0424  0.2317  0.1098
  191DOPC  H18X23656   5.024   1.326   4.754 -0.1231 -0.0339 -0.2327
  191DOPC  H18Y23657   4.909   1.359   4.625  0.4091 -0.9375  0.2845
  191DOPC  H18Z23658   4.963   1.492   4.735  1.9725 -0.3516  2.1304
  192DOPC     N23659   6.201   6.694   2.820 -0.0662  0.2928  0.0296
  192DOPC   C1223660   6.223   6.565   2.898  0.3787  0.1549 -0.6480
  192DOPC  H12A23661   6.169   6.490   2.842 -0.5424 -1.1273  1.8418
  192DOPC  H12B23662   6.169   6.576   2.991  1.2887 -2.8520  0.3638
  192DOPC   C1323663   6.260   6.805   2.903  0.0321  0.0583  0.6326
  192DOPC  H13A23664   6.195   6.836   2.983  0.8616  1.5573  0.7596
  192DOPC  H13B23665   6.351   6.776   2.953 -0.0891 -0.3524  0.6198
  192DOPC  H13C23666   6.265   6.897   2.846  1.5398  0.3316  1.1710
  192DOPC   C1423667   6.059   6.718   2.793  0.3687 -0.5856  0.7927
  192DOPC  H14A23668   6.004   6.712   2.887 -0.6718 -2.4231  0.1168
  192DOPC  H14B23669   6.038   6.813   2.747 -1.1532 -1.1809  0.1897
  192DOPC  H14C23670   6.013   6.648   2.725 -0.4689 -0.3746  1.1287
  192DOPC   C1523671   6.273   6.690   2.686 -0.3461 -0.9117 -0.3867
  192DOPC  H15A23672   6.364   6.632   2.676 -0.0882 -0.1937 -2.9460
  192DOPC  H15B23673   6.312   6.786   2.655 -0.8359 -0.4603  0.3556
  192DOPC  H15C23674   6.217   6.645   2.605  1.0909 -2.4757 -0.5487
  192DOPC   C1123675   6.362   6.512   2.924  0.7229 -0.1137  0.0029
  192DOPC  H11A23676   6.436   6.579   2.971  0.0689 -0.4267  1.5517
  192DOPC  H11B23677   6.367   6.433   3.002  2.6505 -2.0910 -1.9791
  192DOPC     P23678   6.565   6.451   2.777 -0.1298  0.6810  0.1470
  192DOPC   O1323679   6.604   6.588   2.745  0.0805 -0.8100  0.8120
  192DOPC   O1423680   6.579   6.349   2.669  0.2703  1.1973 -0.5656
  192DOPC   O1223681   6.403   6.456   2.803 -0.4779  0.4563 -0.1289
  192DOPC   O1123682   6.633   6.407   2.916 -0.2924  0.4955  0.2735
  192DOPC    C123683   6.770   6.405   2.924 -1.1774 -0.3024 -0.5702
  192DOPC    HA23684   6.811   6.499   2.881  0.0894 -0.5036  0.1570
  192DOPC    HB23685   6.803   6.318   2.863 -4.3747 -2.2778  0.2152
  192DOPC    C223686   6.831   6.379   3.063  0.2217  0.0449 -0.4166
  192DOPC    HS23687   6.941   6.389   3.051  0.2197  1.0332  0.2734
  192DOPC   O2123688   6.791   6.252   3.120  0.4617 -0.0661  0.4173
  192DOPC   C2123689   6.859   6.148   3.074 -0.3490 -0.0771 -1.0555
  192DOPC   O2223690   6.960   6.163   3.009 -0.4204  0.3198  0.0529
  192DOPC   C2223691   6.817   6.028   3.154 -0.1870 -0.3429 -0.2447
  192DOPC   H2R23692   6.886   5.944   3.131  1.8944  0.7484  1.6428
  192DOPC   H2S23693   6.725   5.983   3.111 -0.7100 -0.2739  0.7536
  192DOPC    C323694   6.786   6.494   3.147  0.2321  0.4435 -0.9991
  192DOPC    HX23695   6.679   6.495   3.178  0.2907 -3.3226 -0.3066
  192DOPC    HY23696   6.811   6.586   3.089 -0.9307  0.6913 -1.1475
  192DOPC   O3123697   6.864   6.502   3.265 -0.3652 -0.0540  0.7966
  192DOPC   C3123698   6.823   6.441   3.373  0.1973 -0.9358  0.3694
  192DOPC   O3223699   6.711   6.387   3.389 -0.0702 -0.2234 -0.0391
  192DOPC   C3223700   6.931   6.459   3.484  0.1196  0.1797 -0.2798
  192DOPC   H2X23701   7.009   6.384   3.460 -0.2503 -0.8194  1.4191
  192DOPC   H2Y23702   6.982   6.557   3.469  0.2505  0.3007  0.8579
  192DOPC   C2323703   6.816   6.046   3.304  0.6731 -0.1095  0.0786
  192DOPC   H3R23704   6.722   6.100   3.329  0.5753  0.2483 -1.0277
  192DOPC   H3S23705   6.914   6.091   3.329  0.7088  0.2311 -0.6537
  192DOPC   C2423706   6.794   5.916   3.380  0.1917 -0.3152  0.1585
  192DOPC   H4R23707   6.872   5.839   3.363 -0.0107 -0.1948 -1.5141
  192DOPC   H4S23708   6.704   5.872   3.331  0.2962  0.6593 -0.9391
  192DOPC   C2523709   6.767   5.943   3.534  0.4658  0.5629 -0.4616
  192DOPC   H5R23710   6.736   5.853   3.591 -1.4930  0.5323 -1.4733
  192DOPC   H5S23711   6.686   6.014   3.563 -1.5029 -1.8228  0.1715
  192DOPC   C2623712   6.890   5.994   3.611 -0.8352  0.5025  0.4363
  192DOPC   H6R23713   6.907   6.098   3.575  2.4495  0.6700  2.1806
  192DOPC   H6S23714   6.981   5.937   3.583  1.0128  3.1815  0.5617
  192DOPC   C2723715   6.869   5.980   3.762  0.0431 -0.0010  0.4756
  192DOPC   H7R23716   6.871   5.874   3.796 -1.2258 -0.3592 -0.4946
  192DOPC   H7S23717   6.770   6.021   3.788 -1.3070 -2.0245 -1.1300
  192DOPC   C2823718   6.981   6.053   3.835 -0.7971  0.0678 -0.0252
  192DOPC   H8R23719   6.984   6.154   3.788  1.6204 -0.0608 -0.2786
  192DOPC   H8S23720   7.081   6.005   3.825 -0.6073  0.2926  0.7626
  192DOPC   C2923721   6.947   6.070   3.989  0.4621  0.0579  0.8308
  192DOPC   H9R23722   6.841   6.095   4.004  0.4421  2.1364 -1.9762
  192DOPC  C21023723   7.036   6.058   4.086 -0.4042 -0.2609 -0.0712
  192DOPC  H10R23724   6.995   6.074   4.187 -0.5652  0.8181 -0.2880
  192DOPC  C21123725   7.191   6.040   4.082  0.6506  0.1304 -0.1998
  192DOPC  H11R23726   7.238   6.129   4.034  0.6395  0.6165  0.6713
  192DOPC  H11S23727   7.221   5.946   4.031 -0.9189 -1.0406  0.9713
  192DOPC  C21223728   7.248   6.023   4.223  0.8364  0.1200 -0.0500
  192DOPC  H12R23729   7.210   5.926   4.262  1.1591  0.3717  0.9153
  192DOPC  H12S23730   7.209   6.104   4.288 -0.5990 -1.0846  0.6673
  192DOPC  C21323731   7.401   6.015   4.230  0.2620  0.5204  0.2281
  192DOPC  H13R23732   7.440   6.111   4.188 -0.7171  0.2539 -1.4163
  192DOPC  H13S23733   7.419   5.934   4.156 -1.2149 -0.7844  1.2254
  192DOPC  C21423734   7.470   5.974   4.359  0.3352  0.9221  0.1237
  192DOPC  H14R23735   7.444   5.869   4.383 -2.1216  1.1490 -1.2398
  192DOPC  H14S23736   7.421   6.036   4.438 -0.2099 -0.8609  1.2647
  192DOPC  C21523737   7.617   6.005   4.374  0.6358 -0.0371  0.8084
  192DOPC  H15R23738   7.645   5.973   4.477 -0.6162  0.8434  1.4650
  192DOPC  H15S23739   7.631   6.115   4.361  0.0606  0.0876  1.1780
  192DOPC  C21623740   7.696   5.929   4.262  0.2631  0.2227  0.4370
  192DOPC  H16R23741   7.655   5.922   4.159  1.1581 -1.0163  0.1528
  192DOPC  H16S23742   7.692   5.825   4.299 -1.1246  0.4763  1.0657
  192DOPC  C21723743   7.832   5.991   4.243 -0.1301 -0.5492 -0.0954
  192DOPC  H17R23744   7.879   6.008   4.342 -0.7060  1.0778 -0.0828
  192DOPC  H17S23745   7.823   6.098   4.214 -2.0786 -0.6019  0.2004
  192DOPC  C21823746   7.921   5.914   4.147 -0.5552  0.2625  0.7705
  192DOPC  H18R23747   7.927   5.806   4.168 -0.4053  0.0563 -0.2744
  192DOPC  H18S23748   8.024   5.953   4.162 -0.2091  0.0250 -0.8720
  192DOPC  H18T23749   7.891   5.928   4.041  0.9860 -1.5357  0.0581
  192DOPC   C3323750   6.878   6.438   3.629  0.1245 -0.2888  0.2757
  192DOPC   H3X23751   6.814   6.348   3.642  0.5325 -0.4652  1.1554
  192DOPC   H3Y23752   6.823   6.529   3.660  1.8032  0.6996  0.4546
  192DOPC   C3423753   6.993   6.444   3.730 -0.1562  0.4877 -0.0163
  192DOPC   H4X23754   7.038   6.545   3.729 -0.2687  0.5326 -1.0019
  192DOPC   H4Y23755   7.058   6.359   3.700  0.6780  1.0711  0.1100
  192DOPC   C3523756   6.944   6.423   3.877 -0.1201 -0.4594  0.0634
  192DOPC   H5X23757   6.890   6.327   3.886  0.7525 -0.8058  2.3135
  192DOPC   H5Y23758   6.865   6.500   3.892 -0.8313 -0.7489 -1.9450
  192DOPC   C3623759   7.043   6.423   3.988 -0.8313 -0.6195  0.0061
  192DOPC   H6X23760   7.106   6.332   3.994 -3.2366 -2.4274 -0.7881
  192DOPC   H6Y23761   7.111   6.511   3.989  0.7685 -1.4547 -5.1139
  192DOPC   C3723762   6.985   6.441   4.128 -0.4602 -0.2586  0.0456
  192DOPC   H7X23763   6.901   6.512   4.116 -0.8114 -0.7673 -0.5347
  192DOPC   H7Y23764   6.952   6.344   4.171 -1.9131 -1.3023 -3.1839
  192DOPC   C3823765   7.080   6.525   4.227 -0.1620 -0.4691 -0.3458
  192DOPC   H8X23766   7.019   6.544   4.318 -1.6685 -0.1222 -1.3885
  192DOPC   H8Y23767   7.081   6.627   4.182 -2.6793 -0.9698 -1.7465
  192DOPC   C3923768   7.212   6.449   4.241 -0.5887  0.6297 -0.3278
  192DOPC   H9X23769   7.289   6.467   4.163  0.1498  0.7608  0.4116
  192DOPC  C31023770   7.257   6.384   4.346  0.7952  0.0836  0.4567
  192DOPC  H10X23771   7.359   6.344   4.337  1.0634  0.8542 -0.0382
  192DOPC  C31123772   7.177   6.344   4.470  0.2654  1.4339  0.6470
  192DOPC  H11X23773   7.168   6.234   4.479 -3.3666  1.5044 -0.6752
  192DOPC  H11Y23774   7.078   6.395   4.466  0.2833  1.4282 -0.0990
  192DOPC  C31223775   7.254   6.391   4.595  0.8970 -0.1752 -0.1521
  192DOPC  H12X23776   7.270   6.501   4.595 -0.6897  0.0742 -0.0890
  192DOPC  H12Y23777   7.352   6.338   4.595  1.1311  0.0688 -3.7439
  192DOPC  C31323778   7.175   6.350   4.723 -0.1238  0.4155  0.2290
  192DOPC  H13X23779   7.088   6.418   4.728  1.5579  2.6658  0.3955
  192DOPC  H13Y23780   7.136   6.249   4.696 -0.8079  1.1562 -1.7248
  192DOPC  C31423781   7.245   6.362   4.859 -0.3484 -0.1134  0.2258
  192DOPC  H14X23782   7.343   6.313   4.840  0.2539  1.0295  0.2963
  192DOPC  H14Y23783   7.254   6.472   4.876  1.2588  0.2934 -2.6423
  192DOPC  C31523784   7.184   6.273   4.966  0.2243 -0.0154 -0.0115
  192DOPC  H15X23785   7.242   6.275   5.060 -2.4191 -0.3128  1.7251
  192DOPC  H15Y23786   7.174   6.168   4.933  0.1293 -0.4145  1.2671
  192DOPC  C31623787   7.040   6.327   4.994 -0.3567 -0.2977 -0.2895
  192DOPC  H16X23788   7.051   6.437   5.004  1.1799 -0.4550  0.0137
  192DOPC  H16Y23789   6.982   6.284   4.910 -0.2411 -0.5713 -0.2340
  192DOPC  C31723790   6.968   6.270   5.116 -0.2350  0.0605  0.2968
  192DOPC  H17X23791   6.859   6.293   5.116  0.2354  2.4831  0.8449
  192DOPC  H17Y23792   6.979   6.159   5.112  0.6972  0.1605 -0.3560
  192DOPC  C31823793   7.007   6.323   5.255  0.1528  0.8579 -0.3101
  192DOPC  H18X23794   7.116   6.315   5.272  0.2226  0.5534 -0.8964
  192DOPC  H18Y23795   6.967   6.426   5.266  0.5780  0.9272  0.6865
  192DOPC  H18Z23796   6.968   6.256   5.335  1.6183 -0.2466 -0.4806
  193DOPC     N23797   0.196   1.775   2.759 -0.3396  0.1947 -0.6086
  193DOPC   C1223798   0.141   1.630   2.776  0.1586 -0.1730  0.6031
  193DOPC  H12A23799   0.226   1.564   2.773 -0.1135 -0.5000 -1.6643
  193DOPC  H12B23800   0.078   1.615   2.689  0.7499  3.3480 -0.6043
  193DOPC   C1323801   0.286   1.815   2.879 -0.3139 -0.7695  0.1035
  193DOPC  H13A23802   0.373   1.751   2.885  0.3980  0.2532  1.0314
  193DOPC  H13B23803   0.326   1.915   2.875  0.9829 -1.1888  1.7277
  193DOPC  H13C23804   0.247   1.794   2.977  0.4224 -0.8044  0.3981
  193DOPC   C1423805   0.077   1.861   2.742  0.1381  0.0361 -0.6860
  193DOPC  H14A23806   0.035   1.850   2.643 -0.3905  0.5499 -0.5261
  193DOPC  H14B23807   0.004   1.813   2.805  1.8758 -2.8154 -0.6842
  193DOPC  H14C23808   0.097   1.964   2.767  1.6517 -0.8686  2.3344
  193DOPC   C1523809   0.275   1.785   2.634 -0.3633 -0.1089  0.1692
  193DOPC  H15A23810   0.238   1.735   2.546 -0.9823  0.3877  0.1414
  193DOPC  H15B23811   0.366   1.727   2.645 -1.8370 -2.3157  1.2791
  193DOPC  H15C23812   0.298   1.887   2.606  2.8488 -1.1172 -1.3650
  193DOPC   C1123813   0.049   1.603   2.899 -0.7246  0.2178 -0.2227
  193DOPC  H11A23814   0.046   1.492   2.900  0.2518  0.1460 -1.4993
  193DOPC  H11B23815   0.097   1.634   2.994 -1.1289 -0.9908  0.3953
  193DOPC     P23816  -0.186   1.567   2.790 -0.1433 -0.2100  0.2595
  193DOPC   O1323817  -0.130   1.522   2.661 -0.3216 -0.3688  0.5870
  193DOPC   O1423818  -0.327   1.624   2.797  0.0895 -0.2245 -0.1392
  193DOPC   O1223819  -0.081   1.655   2.879 -0.1988 -0.0289  0.0775
  193DOPC   O1123820  -0.188   1.436   2.883  0.3413 -0.6143  0.1305
  193DOPC    C123821  -0.260   1.439   3.006  0.3521  0.5811 -0.4873
  193DOPC    HA23822  -0.318   1.346   3.018 -1.0278  1.2373 -1.7462
  193DOPC    HB23823  -0.337   1.520   3.006  1.9932  2.2412 -1.5396
  193DOPC    C223824  -0.163   1.466   3.121  0.7748  0.1383 -0.1675
  193DOPC    HS23825  -0.102   1.555   3.095 -1.1266  0.5539 -4.0511
  193DOPC   O2123826  -0.095   1.346   3.143 -0.0843  0.4271  0.2640
  193DOPC   C2123827   0.027   1.362   3.198  0.0775  0.1724  0.4318
  193DOPC   O2223828   0.086   1.470   3.212  0.6651  0.6083 -0.2708
  193DOPC   C2223829   0.077   1.221   3.227 -0.0442  0.1079  0.3262
  193DOPC   H2R23830   0.097   1.180   3.125  1.4507 -0.4422  0.8166
  193DOPC   H2S23831  -0.013   1.169   3.266 -0.3445 -0.4397 -1.0381
  193DOPC    C323832  -0.259   1.515   3.239 -0.0138  0.4653  0.0816
  193DOPC    HX23833  -0.319   1.429   3.276  1.8843 -0.6012  0.8258
  193DOPC    HY23834  -0.315   1.604   3.203 -0.7943 -0.1251 -0.1858
  193DOPC   O3123835  -0.175   1.546   3.351 -0.8256  0.1565 -0.0572
  193DOPC   C3123836  -0.125   1.666   3.362  0.6100 -0.2195 -0.3440
  193DOPC   O3223837  -0.131   1.752   3.278  0.3261 -0.7019 -0.0154
  193DOPC   C3223838  -0.054   1.682   3.499 -0.2358 -0.4888  0.0391
  193DOPC   H2X23839  -0.124   1.676   3.586 -0.0273 -0.4295  0.2106
  193DOPC   H2Y23840   0.021   1.601   3.511 -0.0828 -0.3452  0.0517
  193DOPC   C2323841   0.204   1.236   3.312 -0.5055  0.0587 -0.3070
  193DOPC   H3R23842   0.283   1.302   3.270  1.7320  0.1511  3.5448
  193DOPC   H3S23843   0.236   1.131   3.327 -0.7555  0.0172 -0.0564
  193DOPC   C2423844   0.192   1.289   3.456  0.1210  0.2815  0.1503
  193DOPC   H4R23845   0.095   1.251   3.493 -0.2632  1.7685  0.7611
  193DOPC   H4S23846   0.180   1.400   3.454 -0.3067  0.2191 -1.3743
  193DOPC   C2523847   0.310   1.248   3.544 -0.6043 -0.4358  0.4935
  193DOPC   H5R23848   0.403   1.296   3.507 -0.2883 -0.9874  0.5571
  193DOPC   H5S23849   0.322   1.138   3.535 -0.8324 -0.4096 -0.2045
  193DOPC   C2623850   0.280   1.300   3.687  0.4572  0.5078  1.0714
  193DOPC   H6R23851   0.189   1.252   3.729  1.6928 -2.3248  0.7260
  193DOPC   H6S23852   0.270   1.410   3.689 -1.8905  0.3603  0.1969
  193DOPC   C2723853   0.398   1.258   3.781  0.3083  0.6501  0.3550
  193DOPC   H7R23854   0.488   1.256   3.716 -0.9910  0.1372 -1.5478
  193DOPC   H7S23855   0.389   1.150   3.805  1.2374 -0.5660 -3.9245
  193DOPC   C2823856   0.442   1.358   3.891 -0.3281  0.0988 -0.2321
  193DOPC   H8R23857   0.489   1.303   3.975  1.5508  1.6748 -0.1959
  193DOPC   H8S23858   0.357   1.410   3.940 -0.2306 -0.8275  0.9559
  193DOPC   C2923859   0.551   1.443   3.837  0.2261  0.1032  0.4382
  193DOPC   H9R23860   0.542   1.473   3.732  1.0644  0.2458  0.4002
  193DOPC  C21023861   0.674   1.473   3.893  0.2351  0.5242  0.8083
  193DOPC  H10R23862   0.749   1.531   3.838  2.3555 -2.0334  0.7761
  193DOPC  C21123863   0.723   1.442   4.035  0.5530 -0.2973  0.2146
  193DOPC  H11R23864   0.813   1.377   4.035  0.6187 -0.2240 -1.2914
  193DOPC  H11S23865   0.638   1.397   4.091 -0.0593 -3.4426 -2.8750
  193DOPC  C21223866   0.750   1.573   4.105  0.7326 -0.6357  0.1790
  193DOPC  H12R23867   0.650   1.621   4.102 -0.1964 -2.5071 -0.7973
  193DOPC  H12S23868   0.826   1.630   4.048 -0.4257  0.2862 -0.4970
  193DOPC  C21323869   0.813   1.555   4.241  0.1290  0.4001 -0.3649
  193DOPC  H13R23870   0.917   1.515   4.239  0.6575  0.8042  5.1167
  193DOPC  H13S23871   0.767   1.476   4.305  1.4739  0.2980  0.5073
  193DOPC  C21423872   0.815   1.685   4.313 -0.1613  0.0946 -0.6931
  193DOPC  H14R23873   0.708   1.711   4.332  0.3946  0.5039  2.4828
  193DOPC  H14S23874   0.851   1.766   4.247 -1.3995 -0.0629 -1.5992
  193DOPC  C21523875   0.885   1.667   4.443  0.6396 -0.5209 -0.4151
  193DOPC  H15R23876   0.992   1.642   4.422  1.4617  3.2202 -1.5323
  193DOPC  H15S23877   0.839   1.586   4.503 -2.0768  0.7143 -0.6982
  193DOPC  C21623878   0.877   1.805   4.530 -0.4415  0.2341  0.7863
  193DOPC  H16R23879   0.784   1.812   4.590 -0.1591 -1.2255  1.4384
  193DOPC  H16S23880   0.889   1.889   4.458  0.3813 -1.1537 -0.7539
  193DOPC  C21723881   0.996   1.816   4.625  0.4940 -0.2563 -0.1838
  193DOPC  H17R23882   1.005   1.720   4.680 -0.4773  0.0287  0.5044
  193DOPC  H17S23883   0.968   1.879   4.712  1.8529 -1.2663  1.0434
  193DOPC  C21823884   1.125   1.862   4.558  0.2142  0.3069 -0.3301
  193DOPC  H18R23885   1.121   1.970   4.533 -0.6166  0.2817 -0.3149
  193DOPC  H18S23886   1.149   1.803   4.468  0.9409  0.4769 -0.2548
  193DOPC  H18T23887   1.214   1.865   4.626  0.9398 -1.7114 -1.1240
  193DOPC   C3323888   0.022   1.813   3.521 -0.0702  0.0231  0.5896
  193DOPC   H3X23889  -0.047   1.898   3.500 -1.3943 -0.2507  3.3791
  193DOPC   H3Y23890   0.095   1.819   3.437  3.6039  1.0218  3.6286
  193DOPC   C3423891   0.092   1.830   3.652  0.1104 -0.5886 -0.3226
  193DOPC   H4X23892   0.023   1.821   3.739  1.2764  0.9220  0.7927
  193DOPC   H4Y23893   0.136   1.932   3.647  0.6033 -0.8342 -1.1604
  193DOPC   C3523894   0.207   1.731   3.672 -0.2903 -0.0387  0.3922
  193DOPC   H5X23895   0.256   1.743   3.573 -2.4261  4.7626 -0.3561
  193DOPC   H5Y23896   0.172   1.626   3.683  1.9188 -0.7361  1.1753
  193DOPC   C3623897   0.305   1.748   3.787 -0.4018 -0.5175  0.2190
  193DOPC   H6X23898   0.395   1.685   3.770 -0.3920  0.0282 -2.2118
  193DOPC   H6Y23899   0.345   1.851   3.776 -0.6197 -0.3503  0.9520
  193DOPC   C3723900   0.258   1.730   3.932 -0.4009 -0.5267  0.0753
  193DOPC   H7X23901   0.174   1.801   3.947 -0.5847 -0.8906  0.7989
  193DOPC   H7Y23902   0.219   1.626   3.927 -0.8839 -0.2927 -1.8319
  193DOPC   C3823903   0.360   1.740   4.046 -0.7234  0.6346 -0.0745
  193DOPC   H8X23904   0.454   1.688   4.016 -1.5479 -0.8780 -0.1260
  193DOPC   H8Y23905   0.325   1.679   4.132 -1.6103 -1.2888 -1.7309
  193DOPC   C3923906   0.390   1.881   4.082  0.0901 -0.5987  0.4603
  193DOPC   H9X23907   0.435   1.946   4.005 -0.2815 -0.0526  0.6916
  193DOPC  C31023908   0.370   1.940   4.205  0.0317  0.5589  0.7080
  193DOPC  H10X23909   0.385   2.048   4.220 -1.7231  1.6415 -3.6560
  193DOPC  C31123910   0.312   1.868   4.326  0.2478  0.1780 -0.2851
  193DOPC  H11X23911   0.240   1.794   4.288  2.7945 -1.4560 -2.2817
  193DOPC  H11Y23912   0.261   1.943   4.390 -0.6495  1.9201 -2.8636
  193DOPC  C31223913   0.424   1.795   4.402  0.4306 -0.2794 -0.1661
  193DOPC  H12X23914   0.498   1.874   4.425 -0.8899  1.5117 -1.7580
  193DOPC  H12Y23915   0.490   1.733   4.337  0.1914  2.4082 -3.2359
  193DOPC  C31323916   0.381   1.721   4.521  0.2515  0.1315 -0.2662
  193DOPC  H13X23917   0.358   1.794   4.601  2.6855  0.9038 -0.1773
  193DOPC  H13Y23918   0.285   1.666   4.515  1.1932 -1.4183 -2.4118
  193DOPC  C31423919   0.485   1.616   4.556 -0.0281  0.3619 -0.2449
  193DOPC  H14X23920   0.517   1.555   4.468 -0.2222 -1.0259  0.6087
  193DOPC  H14Y23921   0.580   1.661   4.592 -1.4828  2.9247  0.6693
  193DOPC  C31523922   0.431   1.520   4.661 -0.7587  0.3298 -0.0500
  193DOPC  H15X23923   0.323   1.498   4.648 -0.4566 -0.3907 -1.5598
  193DOPC  H15Y23924   0.456   1.570   4.757  0.2699 -0.4816  0.1154
  193DOPC  C31623925   0.502   1.376   4.648 -0.0619  0.3788  0.2818
  193DOPC  H16X23926   0.487   1.340   4.544 -1.6100 -0.1074  0.6502
  193DOPC  H16Y23927   0.611   1.391   4.659 -0.0699  1.1396 -0.5489
  193DOPC  C31723928   0.437   1.271   4.736 -0.4083  0.1050 -0.1992
  193DOPC  H17X23929   0.422   1.324   4.833 -3.0873 -0.1240 -0.4152
  193DOPC  H17Y23930   0.337   1.246   4.695  0.6133 -2.7955 -1.1846
  193DOPC  C31823931   0.522   1.145   4.753 -0.2157 -0.9961 -1.2311
  193DOPC  H18X23932   0.535   1.098   4.653  1.7035 -1.4748 -0.7898
  193DOPC  H18Y23933   0.622   1.163   4.797 -1.6765 -0.0986  2.0962
  193DOPC  H18Z23934   0.468   1.074   4.820  0.6126 -1.0672 -0.6177
  194DOPC     N23935   0.488   6.567   2.561 -0.3121 -0.3770  0.5002
  194DOPC   C1223936   0.410   6.566   2.690  0.1835  0.1401  0.5123
  194DOPC  H12A23937   0.477   6.596   2.769 -1.7255  1.1847  1.8030
  194DOPC  H12B23938   0.392   6.462   2.713  1.6185  0.1184  1.6761
  194DOPC   C1323939   0.522   6.704   2.522 -0.8737 -0.0365 -0.1387
  194DOPC  H13A23940   0.604   6.741   2.582 -0.9274 -0.2649  0.0772
  194DOPC  H13B23941   0.560   6.715   2.421  0.5679  0.2672  0.4148
  194DOPC  H13C23942   0.445   6.776   2.543 -0.5169  0.3257 -0.0616
  194DOPC   C1423943   0.422   6.502   2.444  0.4847 -0.2968 -0.0013
  194DOPC  H14A23944   0.497   6.498   2.366  0.4496  1.4376 -0.1576
  194DOPC  H14B23945   0.381   6.405   2.467 -0.4670  0.4401  1.6204
  194DOPC  H14C23946   0.341   6.566   2.411 -1.7602 -3.0368 -0.2654
  194DOPC   C1523947   0.615   6.486   2.573 -0.8675  0.1330 -0.2461
  194DOPC  H15A23948   0.697   6.524   2.515  1.3516 -1.7199  1.4847
  194DOPC  H15B23949   0.608   6.380   2.553  0.6961  0.4126 -2.5718
  194DOPC  H15C23950   0.656   6.493   2.673  0.6096  0.7693 -0.8778
  194DOPC   C1123951   0.274   6.637   2.705 -0.5022 -0.3265 -0.0820
  194DOPC  H11A23952   0.203   6.595   2.631 -0.1589  0.3860 -0.8315
  194DOPC  H11B23953   0.232   6.616   2.806 -0.9627 -0.4811 -0.3019
  194DOPC     P23954   0.317   6.882   2.802  0.1149 -0.0575  0.2561
  194DOPC   O1323955   0.194   6.915   2.874  0.5247 -0.3369 -0.3483
  194DOPC   O1423956   0.387   6.994   2.739 -1.0167 -0.6229 -0.3153
  194DOPC   O1223957   0.286   6.778   2.684 -0.8900 -0.0285 -0.2636
  194DOPC   O1123958   0.412   6.804   2.892 -0.3320 -0.1757  0.0005
  194DOPC    C123959   0.375   6.748   3.021 -0.3105  0.1603  0.4149
  194DOPC    HA23960   0.440   6.661   3.043 -0.4848 -0.1172 -0.1595
  194DOPC    HB23961   0.272   6.706   3.015 -1.5002  2.6406  1.7351
  194DOPC    C223962   0.366   6.844   3.148 -0.1171 -0.2490  0.2068
  194DOPC    HS23963   0.287   6.916   3.121  1.0849  1.0589  0.0601
  194DOPC   O2123964   0.500   6.900   3.170 -0.4495 -0.3532 -0.1433
  194DOPC   C2123965   0.491   7.021   3.222 -0.3054  0.4132  0.7167
  194DOPC   O2223966   0.390   7.094   3.221  0.1876  0.1673  0.6057
  194DOPC   C2223967   0.636   7.066   3.266 -0.4080  0.2670 -0.4493
  194DOPC   H2R23968   0.693   7.081   3.171 -0.7527 -2.0144 -1.0810
  194DOPC   H2S23969   0.688   6.979   3.311  2.3073  1.1868 -1.5303
  194DOPC    C323970   0.338   6.759   3.272 -0.5923  0.6099 -0.2433
  194DOPC    HX23971   0.428   6.701   3.303 -2.2131 -1.4480  0.8630
  194DOPC    HY23972   0.266   6.676   3.256 -0.2761  0.4374 -0.8298
  194DOPC   O3123973   0.300   6.835   3.387  0.2818 -0.1606 -0.4366
  194DOPC   C3123974   0.172   6.876   3.386  0.0797 -0.1729 -0.1859
  194DOPC   O3223975   0.079   6.837   3.316 -0.0218  0.4811 -0.0597
  194DOPC   C3223976   0.149   6.963   3.511 -0.1402  0.3522 -0.2973
  194DOPC   H2X23977   0.171   7.071   3.494  1.5729  0.5019  2.3871
  194DOPC   H2Y23978   0.042   6.952   3.538 -0.4707 -0.1081 -1.6781
  194DOPC   C2323979   0.635   7.203   3.348  0.1952  0.6421  0.0147
  194DOPC   H3R23980   0.557   7.272   3.309 -3.7939 -3.1953  0.3912
  194DOPC   H3S23981   0.736   7.248   3.342  0.6562 -0.5084 -1.4748
  194DOPC   C2423982   0.607   7.178   3.497 -0.0856  0.2613  0.7482
  194DOPC   H4R23983   0.689   7.115   3.536 -0.1558 -0.2106  0.1496
  194DOPC   H4S23984   0.507   7.132   3.514  0.5587 -0.9124  1.4735
  194DOPC   C2523985   0.630   7.309   3.570  0.2446  0.0533 -1.0270
  194DOPC   H5R23986   0.575   7.396   3.529  1.3335  0.6162 -1.3554
  194DOPC   H5S23987   0.740   7.327   3.571 -0.1028  2.8320  1.2369
  194DOPC   C2623988   0.591   7.303   3.724 -0.5262 -0.3263 -0.0361
  194DOPC   H6R23989   0.604   7.396   3.783 -0.0514  0.3226 -1.1277
  194DOPC   H6S23990   0.662   7.227   3.763  1.9967  2.3758  1.0336
  194DOPC   C2723991   0.444   7.265   3.754 -0.1802  0.2586  0.2449
  194DOPC   H7R23992   0.433   7.222   3.856 -0.5900 -3.5576 -1.2485
  194DOPC   H7S23993   0.397   7.181   3.699  0.5349 -0.7870  1.1888
  194DOPC   C2823994   0.344   7.381   3.732  0.2252 -0.4457 -0.4744
  194DOPC   H8R23995   0.337   7.405   3.624 -2.0659 -0.5653 -0.3819
  194DOPC   H8S23996   0.389   7.466   3.789  3.1544 -2.0111 -0.2528
  194DOPC   C2923997   0.203   7.342   3.768 -0.6849 -0.0772 -0.0380
  194DOPC   H9R23998   0.169   7.247   3.725 -2.3512  0.2061  0.5729
  194DOPC  C21023999   0.134   7.379   3.872 -0.4215  1.0437  0.8594
  194DOPC  H10R24000   0.029   7.349   3.869 -0.3014  0.6854 -0.1985
  194DOPC  C21124001   0.162   7.480   3.974  0.2469 -0.5793 -0.2510
  194DOPC  H11R24002   0.099   7.572   3.978  0.7018 -0.2593 -0.2754
  194DOPC  H11S24003   0.262   7.522   3.950 -0.0281  1.0484  1.2552
  194DOPC  C21224004   0.168   7.436   4.113  0.0465  0.9519 -0.4198
  194DOPC  H12R24005   0.245   7.357   4.120 -1.8190 -0.8694  0.5274
  194DOPC  H12S24006   0.078   7.381   4.148  0.9087 -0.0114  0.3581
  194DOPC  C21324007   0.200   7.547   4.213  0.8387  0.4349 -0.1580
  194DOPC  H13R24008   0.111   7.614   4.216  0.4137  0.0223 -2.0298
  194DOPC  H13S24009   0.280   7.611   4.169  0.8488  0.1992 -0.4864
  194DOPC  C21424010   0.237   7.495   4.355  0.6339 -0.6533 -0.6827
  194DOPC  H14R24011   0.335   7.445   4.338  0.1107 -0.6379 -4.6856
  194DOPC  H14S24012   0.169   7.413   4.385  1.7919 -1.8455 -1.1877
  194DOPC  C21524013   0.252   7.600   4.469  0.0057  0.1356  0.3734
  194DOPC  H15R24014   0.343   7.655   4.439 -0.5428 -0.2614 -2.2458
  194DOPC  H15S24015   0.279   7.546   4.562 -0.4690  1.0731  1.0756
  194DOPC  C21624016   0.136   7.697   4.490 -0.2157 -0.3978  0.1470
  194DOPC  H16R24017   0.051   7.641   4.536  0.1199  0.8420  2.4323
  194DOPC  H16S24018   0.108   7.746   4.395 -1.6021 -0.7804  0.3311
  194DOPC  C21724019   0.165   7.809   4.589  0.1811  0.7184  0.3297
  194DOPC  H17R24020   0.256   7.859   4.547  0.0217  0.2869 -0.5386
  194DOPC  H17S24021   0.189   7.769   4.690 -0.2781  0.0346  0.1714
  194DOPC  C21824022   0.046   7.896   4.602 -0.0118 -0.2040 -0.6016
  194DOPC  H18R24023   0.075   7.992   4.649  0.0016  0.0967 -1.2092
  194DOPC  H18S24024  -0.017   7.852   4.682  1.4050  2.0093  1.9000
  194DOPC  H18T24025  -0.017   7.926   4.515 -0.2661  1.2430  0.0505
  194DOPC   C3324026   0.219   6.903   3.628  0.3997  0.1962  0.0673
  194DOPC   H3X24027   0.213   6.979   3.709 -1.4684  0.6190 -0.4057
  194DOPC   H3Y24028   0.329   6.893   3.615  0.2048 -0.6371 -1.1087
  194DOPC   C3424029   0.159   6.775   3.699  0.0326 -0.0960 -0.4700
  194DOPC   H4X24030   0.167   6.695   3.623 -1.0047  0.0036 -0.6918
  194DOPC   H4Y24031   0.049   6.786   3.711 -0.0760 -1.4466 -0.1022
  194DOPC   C3524032   0.223   6.719   3.828 -0.6035 -0.0172 -0.2986
  194DOPC   H5X24033   0.328   6.719   3.792 -1.8607 -2.5107 -4.6419
  194DOPC   H5Y24034   0.190   6.614   3.847  0.7667 -0.2818  0.7761
  194DOPC   C3624035   0.215   6.813   3.949 -0.3305 -0.1020  0.5231
  194DOPC   H6X24036   0.251   6.909   3.905  1.0983 -0.7413  0.2297
  194DOPC   H6Y24037   0.115   6.823   3.996  0.5466 -2.2236  3.0918
  194DOPC   C3724038   0.304   6.766   4.067 -0.3176  0.1681 -0.5871
  194DOPC   H7X24039   0.276   6.664   4.100  1.1425 -0.7583 -2.0619
  194DOPC   H7Y24040   0.404   6.756   4.021 -0.5196 -2.9161 -0.5456
  194DOPC   C3824041   0.287   6.863   4.183 -0.1505  0.2348  0.0528
  194DOPC   H8X24042   0.353   6.838   4.269 -0.9869  1.1702  1.0034
  194DOPC   H8Y24043   0.181   6.855   4.217 -0.0310  0.4312  0.4852
  194DOPC   C3924044   0.323   7.001   4.124 -0.2989  0.3933  0.0534
  194DOPC   H9X24045   0.251   7.038   4.048 -1.2189  0.4543  0.9309
  194DOPC  C31024046   0.420   7.078   4.174  0.0308  0.3857  0.4977
  194DOPC  H10X24047   0.437   7.168   4.113 -1.3839 -0.6758 -1.5524
  194DOPC  C31124048   0.526   7.050   4.278  0.1108  0.2391  0.1041
  194DOPC  H11X24049   0.627   7.074   4.240  1.5750 -1.1698  2.7950
  194DOPC  H11Y24050   0.538   6.943   4.304 -0.9887  0.2407  0.6876
  194DOPC  C31224051   0.496   7.124   4.413 -0.3999  0.3057 -0.1451
  194DOPC  H12X24052   0.395   7.088   4.442  0.9059 -2.5370  1.2492
  194DOPC  H12Y24053   0.497   7.233   4.394  1.0732  0.0136 -2.1453
  194DOPC  C31324054   0.593   7.079   4.526 -0.3200  0.3582  0.7452
  194DOPC  H13X24055   0.588   6.969   4.537 -1.1525  0.4547  1.4855
  194DOPC  H13Y24056   0.699   7.105   4.506 -0.5029 -0.4192 -1.5958
  194DOPC  C31424057   0.527   7.137   4.655 -0.5853 -0.4367  0.0591
  194DOPC  H14X24058   0.518   7.248   4.652 -1.9368 -0.5525 -1.4204
  194DOPC  H14Y24059   0.426   7.092   4.664 -0.2918 -1.1583 -0.1780
  194DOPC  C31524060   0.609   7.084   4.776 -0.0102  0.0748  0.7040
  194DOPC  H15X24061   0.720   7.098   4.775 -0.1814  1.9506 -2.3046
  194DOPC  H15Y24062   0.596   6.973   4.770  0.9352  0.0309 -2.6209
  194DOPC  C31624063   0.566   7.151   4.897  0.0553 -0.2937 -0.1821
  194DOPC  H16X24064   0.598   7.258   4.893 -1.9325  0.3827  0.6576
  194DOPC  H16Y24065   0.457   7.157   4.915  0.2645 -0.4425  1.2582
  194DOPC  C31724066   0.632   7.103   5.035  0.2659 -0.1241  0.0977
  194DOPC  H17X24067   0.734   7.146   5.041  0.3544 -0.0658 -1.4152
  194DOPC  H17Y24068   0.568   7.152   5.112 -1.3011  0.0393 -1.2605
  194DOPC  C31824069   0.626   6.952   5.061 -0.3963  0.4618  0.5264
  194DOPC  H18X24070   0.663   6.915   5.159 -0.5977 -0.4763  0.2617
  194DOPC  H18Y24071   0.524   6.907   5.057  0.7181 -2.3764  1.3915
  194DOPC  H18Z24072   0.688   6.905   4.981 -2.8326  1.3286 -2.0231
  195DOPC     N24073   4.182   0.340   2.835  0.2195 -0.1611  0.6487
  195DOPC   C1224074   4.292   0.312   2.939 -0.0522  0.4423 -0.0203
  195DOPC  H12A24075   4.245   0.265   3.024 -1.7177 -1.6456 -1.9521
  195DOPC  H12B24076   4.317   0.413   2.967  0.4853  0.8263 -1.7370
  195DOPC   C1324077   4.138   0.218   2.769  0.5408  0.1548  0.3051
  195DOPC  H13A24078   4.063   0.231   2.692 -0.6963 -1.1924  1.2349
  195DOPC  H13B24079   4.226   0.190   2.712 -0.5604 -1.1534 -0.8312
  195DOPC  H13C24080   4.113   0.142   2.841  0.6902  0.2672  0.4769
  195DOPC   C1424081   4.234   0.433   2.732 -0.5753 -0.0719 -0.6190
  195DOPC  H14A24082   4.150   0.450   2.666 -0.6715 -0.4553 -0.6002
  195DOPC  H14B24083   4.258   0.527   2.779  0.7612 -0.1361 -1.1179
  195DOPC  H14C24084   4.324   0.402   2.680  0.7397  0.0965  1.4364
  195DOPC   C1524085   4.061   0.399   2.910 -0.0298 -0.1886 -0.3454
  195DOPC  H15A24086   4.078   0.502   2.939  1.4015 -0.5001  0.0056
  195DOPC  H15B24087   4.019   0.344   2.993  0.1052  1.2904  0.7453
  195DOPC  H15C24088   3.983   0.400   2.835 -1.1227 -0.9127  0.7410
  195DOPC   C1124089   4.400   0.213   2.891  0.0790 -0.4020  0.0342
  195DOPC  H11A24090   4.414   0.235   2.783 -1.4525  2.6571  0.3383
  195DOPC  H11B24091   4.494   0.228   2.948  0.2877  1.5177 -0.7480
  195DOPC     P24092   4.359  -0.001   3.023 -0.3398  0.1087 -0.2442
  195DOPC   O1324093   4.466  -0.101   3.000  0.0853  0.3367  0.3738
  195DOPC   O1424094   4.218  -0.044   3.043  0.4329  0.1430 -0.2820
  195DOPC   O1224095   4.351   0.084   2.891  0.2198 -0.4618 -0.1749
  195DOPC   O1124096   4.394   0.104   3.139  0.0384 -0.0106  0.8456
  195DOPC    C124097   4.499   0.079   3.231 -0.1644 -0.0893  0.0321
  195DOPC    HA24098   4.598   0.099   3.185 -1.1782  1.1100 -1.7201
  195DOPC    HB24099   4.500  -0.030   3.253 -1.6607 -0.2057 -0.3775
  195DOPC    C224100   4.490   0.163   3.357  0.6138 -0.4304 -0.0414
  195DOPC    HS24101   4.574   0.135   3.424 -1.2318 -1.8202  1.8449
  195DOPC   O2124102   4.376   0.129   3.443 -0.1896 -1.1769  0.0654
  195DOPC   C2124103   4.392   0.018   3.519  0.4198  0.0137  0.1652
  195DOPC   O2224104   4.492  -0.051   3.524 -0.1962 -0.4624  0.4546
  195DOPC   C2224105   4.260  -0.019   3.588  0.0300 -0.0643 -0.1388
  195DOPC   H2R24106   4.288  -0.090   3.669  2.1919 -0.9739 -1.5804
  195DOPC   H2S24107   4.183  -0.062   3.520 -1.0257  0.0539  0.9621
  195DOPC    C324108   4.498   0.308   3.313 -0.6565  0.0298  0.1813
  195DOPC    HX24109   4.427   0.319   3.228  1.1632 -0.3922 -1.4608
  195DOPC    HY24110   4.599   0.323   3.271 -1.1165  0.3162 -0.8590
  195DOPC   O3124111   4.471   0.399   3.427 -0.0258 -0.4162 -0.3559
  195DOPC   C3124112   4.345   0.447   3.430  0.0243  0.1710  0.4353
  195DOPC   O3224113   4.255   0.421   3.355 -0.1246 -0.4754  0.1950
  195DOPC   C3224114   4.334   0.547   3.544 -0.4670  0.2538 -0.2220
  195DOPC   H2X24115   4.243   0.608   3.526 -1.6370 -1.6831 -1.1543
  195DOPC   H2Y24116   4.310   0.476   3.626 -0.0572  0.4012  0.0285
  195DOPC   C2324117   4.194   0.098   3.657 -1.0608 -0.0780 -0.3849
  195DOPC   H3R24118   4.147   0.162   3.580 -2.0530 -2.2569 -1.6974
  195DOPC   H3S24119   4.262   0.160   3.718  0.4892 -1.9871 -0.0753
  195DOPC   C2424120   4.082   0.047   3.758 -0.2454  0.8578 -0.6168
  195DOPC   H4R24121   4.137  -0.019   3.827 -0.3885  1.4121  0.0394
  195DOPC   H4S24122   4.004  -0.002   3.696  0.6199 -0.3403 -0.7889
  195DOPC   C2524123   4.010   0.147   3.849 -0.2324 -0.1875  0.3992
  195DOPC   H5R24124   4.083   0.200   3.914  0.3952 -0.1520 -0.3226
  195DOPC   H5S24125   3.935   0.100   3.916 -0.5777 -0.7228 -0.3426
  195DOPC   C2624126   3.939   0.261   3.774 -0.1523  0.4270 -0.6049
  195DOPC   H6R24127   4.012   0.320   3.715  1.5170 -0.8039  0.1432
  195DOPC   H6S24128   3.890   0.331   3.844 -0.8469 -0.6354  0.0102
  195DOPC   C2724129   3.831   0.222   3.673 -0.3227 -0.5529  0.7907
  195DOPC   H7R24130   3.867   0.144   3.603 -0.1273  1.9691 -2.1566
  195DOPC   H7S24131   3.807   0.304   3.602  0.6727 -1.3417 -0.4950
  195DOPC   C2824132   3.696   0.175   3.727 -0.0026 -0.1146  0.4407
  195DOPC   H8R24133   3.637   0.185   3.633 -1.3659 -0.0286  1.2725
  195DOPC   H8S24134   3.673   0.249   3.807  1.2271  1.3447 -0.4841
  195DOPC   C2924135   3.702   0.029   3.770 -0.1625 -0.3744 -0.6600
  195DOPC   H9R24136   3.756  -0.035   3.697 -1.0290 -2.6514  0.5981
  195DOPC  C21024137   3.648  -0.030   3.880 -0.6333  0.0136  0.1270
  195DOPC  H10R24138   3.663  -0.138   3.888  1.0138  0.2289  0.4442
  195DOPC  C21124139   3.565   0.037   3.978  0.8131  0.1592 -0.1320
  195DOPC  H11R24140   3.461   0.017   3.944  1.0165 -0.0665 -0.6283
  195DOPC  H11S24141   3.583   0.146   3.974  1.7563  0.1613  2.1486
  195DOPC  C21224142   3.593  -0.000   4.125 -0.1574  0.3515 -0.0255
  195DOPC  H12R24143   3.532   0.066   4.190 -0.5031  1.7481 -1.6892
  195DOPC  H12S24144   3.696   0.032   4.150 -0.4522  1.3897 -0.1268
  195DOPC  C21324145   3.569  -0.153   4.144  0.7885  0.4103 -0.6934
  195DOPC  H13R24146   3.652  -0.217   4.107  2.2415  1.6050  0.3909
  195DOPC  H13S24147   3.480  -0.194   4.091  0.8596 -1.8407  0.7900
  195DOPC  C21424148   3.556  -0.185   4.292 -0.0333 -0.2631  0.1749
  195DOPC  H14R24149   3.476  -0.114   4.323  0.2796 -0.3961  1.3516
  195DOPC  H14S24150   3.649  -0.155   4.345  0.6262 -0.0272 -1.0870
  195DOPC  C21524151   3.535  -0.334   4.330 -0.1913  0.1447 -0.2109
  195DOPC  H15R24152   3.614  -0.401   4.291 -0.1692 -1.4278  2.2395
  195DOPC  H15S24153   3.443  -0.377   4.284  0.0675 -1.7834  0.9543
  195DOPC  C21624154   3.507  -0.354   4.477  0.3204  0.4460 -0.2408
  195DOPC  H16R24155   3.440  -0.275   4.518 -0.0707  0.2014 -0.4080
  195DOPC  H16S24156   3.604  -0.337   4.528 -0.0746 -1.3945  1.2137
  195DOPC  C21724157   3.457  -0.489   4.517 -0.0499  0.2780 -0.5474
  195DOPC  H17R24158   3.545  -0.558   4.513  0.1053  0.3966  0.4773
  195DOPC  H17S24159   3.379  -0.521   4.445  0.4073  0.1709 -1.0057
  195DOPC  C21824160   3.407  -0.494   4.663  0.3626 -0.6456 -0.0493
  195DOPC  H18R24161   3.296  -0.492   4.664  0.3089 -2.4773  0.0645
  195DOPC  H18S24162   3.451  -0.415   4.729 -0.1290 -1.1656  0.9240
  195DOPC  H18T24163   3.432  -0.589   4.714  3.4624  1.2309  2.3185
  195DOPC   C3324164   4.467   0.614   3.580 -0.1144  0.2664  1.0297
  195DOPC   H3X24165   4.494   0.659   3.482 -0.6582 -2.7481 -0.6306
  195DOPC   H3Y24166   4.537   0.533   3.611 -0.0519 -0.6610 -1.3037
  195DOPC   C3424167   4.460   0.731   3.679  0.7108  0.3112 -0.7601
  195DOPC   H4X24168   4.561   0.773   3.694  0.8809 -0.4328  0.2514
  195DOPC   H4Y24169   4.428   0.680   3.772  0.4971 -0.9809 -1.5090
  195DOPC   C3524170   4.362   0.841   3.636  0.2162 -0.0829 -0.3544
  195DOPC   H5X24171   4.276   0.786   3.593  0.1711 -1.3774  1.3056
  195DOPC   H5Y24172   4.398   0.910   3.555 -2.4605 -1.2283 -2.6762
  195DOPC   C3624173   4.317   0.920   3.764  0.0533 -0.3688  0.0233
  195DOPC   H6X24174   4.261   0.856   3.835 -1.9432 -0.9953 -2.0009
  195DOPC   H6Y24175   4.407   0.958   3.818 -0.0181  1.2321 -0.9088
  195DOPC   C3724176   4.209   1.011   3.706 -0.3700 -1.1531 -0.3202
  195DOPC   H7X24177   4.266   1.065   3.627  1.2784 -0.0007  1.5549
  195DOPC   H7Y24178   4.132   0.960   3.644 -1.4261  0.6210 -0.5633
  195DOPC   C3824179   4.158   1.107   3.820  0.4569  0.1930 -0.4350
  195DOPC   H8X24180   4.244   1.151   3.874 -0.4597 -0.6419  1.7972
  195DOPC   H8Y24181   4.117   1.029   3.887  1.2608 -1.6371 -1.9775
  195DOPC   C3924182   4.047   1.203   3.782 -0.4569 -0.3464  0.1474
  195DOPC   H9X24183   4.083   1.270   3.702 -0.0282  0.2906  0.8567
  195DOPC  C31024184   3.927   1.207   3.832  0.4802  0.3982 -0.5504
  195DOPC  H10X24185   3.857   1.275   3.781 -0.7728 -0.7745 -0.4745
  195DOPC  C31124186   3.860   1.117   3.933 -0.1822 -0.1917 -0.1144
  195DOPC  H11X24187   3.888   1.010   3.922  1.9110  0.1812  1.0782
  195DOPC  H11Y24188   3.749   1.123   3.922 -0.1875  0.2687  0.1606
  195DOPC  C31224189   3.890   1.162   4.080  0.2032  0.0004  0.4225
  195DOPC  H12X24190   3.866   1.270   4.084  2.4571  0.5215  2.2516
  195DOPC  H12Y24191   4.000   1.153   4.099  0.3275  0.1895 -0.1831
  195DOPC  C31324192   3.821   1.068   4.180  0.3217 -0.2589  0.4206
  195DOPC  H13X24193   3.712   1.083   4.166  0.6838  2.0411 -0.4843
  195DOPC  H13Y24194   3.848   0.961   4.168 -0.4863 -0.3688 -0.5996
  195DOPC  C31424195   3.848   1.125   4.319  0.5561 -0.5678 -0.2822
  195DOPC  H14X24196   3.870   1.234   4.327  1.3728 -0.5915 -1.9001
  195DOPC  H14Y24197   3.769   1.099   4.392  0.7336  1.7988  0.8717
  195DOPC  C31524198   3.973   1.067   4.381 -0.3733 -0.2448 -0.5299
  195DOPC  H15X24199   4.069   1.090   4.331  0.7182  0.8822  1.9202
  195DOPC  H15Y24200   3.970   0.956   4.378  1.0899 -0.3716  1.0197
  195DOPC  C31624201   3.987   1.093   4.530  0.2445 -0.1650 -0.3459
  195DOPC  H16X24202   3.895   1.094   4.592  0.2303  1.4374 -0.3327
  195DOPC  H16Y24203   4.067   1.028   4.569  2.1955  2.6731  0.6823
  195DOPC  C31724204   4.048   1.230   4.565 -0.2144  0.2855 -0.1728
  195DOPC  H17X24205   4.141   1.244   4.505 -1.3140  0.2254 -1.9604
  195DOPC  H17Y24206   3.980   1.314   4.535 -0.8211 -0.3777 -0.6867
  195DOPC  C31824207   4.085   1.230   4.717 -0.3390  0.3793  0.7368
  195DOPC  H18X24208   4.000   1.217   4.786 -1.0415 -0.1612 -0.2049
  195DOPC  H18Y24209   4.154   1.145   4.733  0.4456  0.5248 -1.4662
  195DOPC  H18Z24210   4.140   1.322   4.747 -0.7208  0.5691  0.8616
  196DOPC     N24211   6.226   0.457   2.718  0.2662 -0.4205  0.2320
  196DOPC   C1224212   6.146   0.333   2.727 -0.1376  0.2155  0.2377
  196DOPC  H12A24213   6.215   0.251   2.721  1.5009  1.5989 -0.8958
  196DOPC  H12B24214   6.091   0.320   2.635  0.1000  0.3692  0.0745
  196DOPC   C1324215   6.338   0.460   2.814 -0.4048 -0.0355  0.3865
  196DOPC  H13A24216   6.412   0.388   2.784  1.1319  1.7259 -0.2586
  196DOPC  H13B24217   6.382   0.559   2.807  0.3662 -0.4063 -0.1342
  196DOPC  H13C24218   6.309   0.429   2.914  1.0125 -0.8955  0.5539
  196DOPC   C1424219   6.135   0.571   2.746 -0.2382  0.6970  0.3932
  196DOPC  H14A24220   6.049   0.564   2.681  0.4265 -1.9667 -0.3085
  196DOPC  H14B24221   6.099   0.573   2.848 -2.3076 -0.0649 -0.2540
  196DOPC  H14C24222   6.184   0.663   2.719  0.2990  0.8431  1.8002
  196DOPC   C1524223   6.273   0.469   2.578  0.0880 -0.2335  0.2597
  196DOPC  H15A24224   6.311   0.570   2.568  0.4000 -0.2268  1.3919
  196DOPC  H15B24225   6.198   0.459   2.501  0.9496  1.3551 -0.8443
  196DOPC  H15C24226   6.356   0.402   2.561 -0.4175 -0.6271 -0.7248
  196DOPC   C1124227   6.063   0.315   2.860  0.2978  0.8584  0.5388
  196DOPC  H11A24228   5.985   0.393   2.871 -1.5875 -0.9440  0.5455
  196DOPC  H11B24229   5.993   0.230   2.847 -1.0347  2.1028 -0.7778
  196DOPC     P24230   6.219   0.171   3.013 -0.3536 -0.3654 -0.1561
  196DOPC   O1324231   6.276   0.128   2.884 -0.0189 -0.4761 -0.0485
  196DOPC   O1424232   6.127   0.084   3.086  0.2695 -0.4151 -0.0331
  196DOPC   O1224233   6.147   0.303   2.975 -0.1526  0.3048  0.1599
  196DOPC   O1124234   6.342   0.207   3.115  0.4385 -0.2057 -0.5222
  196DOPC    C124235   6.337   0.338   3.176  0.2326  0.7402 -0.7611
  196DOPC    HA24236   6.235   0.381   3.185  0.3264  0.4324  2.9674
  196DOPC    HB24237   6.393   0.416   3.120  2.0044  0.3834  0.4607
  196DOPC    C224238   6.396   0.322   3.319 -0.3754 -0.4126  0.2195
  196DOPC    HS24239   6.489   0.262   3.325 -0.9830 -1.2496  2.5589
  196DOPC   O2124240   6.293   0.264   3.402  0.3715 -0.3265 -0.1804
  196DOPC   C2124241   6.339   0.187   3.503 -0.1586  0.0807  0.2294
  196DOPC   O2224242   6.459   0.167   3.520 -0.3111  0.0459 -0.1239
  196DOPC   C2224243   6.227   0.112   3.582 -0.4710 -0.1715  0.1687
  196DOPC   H2R24244   6.159   0.053   3.518 -0.7052 -1.8917  1.8946
  196DOPC   H2S24245   6.176   0.201   3.625 -1.2816  0.6029 -2.2746
  196DOPC    C324246   6.424   0.466   3.376  1.2391 -0.3867 -0.5435
  196DOPC    HX24247   6.330   0.526   3.369  0.9873 -0.6622  0.3754
  196DOPC    HY24248   6.500   0.501   3.303 -0.4750  1.4988 -1.5241
  196DOPC   O3124249   6.472   0.475   3.513 -0.2883 -0.8614 -0.1629
  196DOPC   C3124250   6.603   0.473   3.528 -0.6677 -0.3600  0.0645
  196DOPC   O3224251   6.681   0.484   3.436  0.0852 -0.2224  0.0655
  196DOPC   C3224252   6.642   0.464   3.674 -0.0403  0.4873 -0.4410
  196DOPC   H2X24253   6.582   0.539   3.728 -1.0531 -0.3647 -0.3519
  196DOPC   H2Y24254   6.601   0.363   3.696  1.7866 -0.4075 -0.9063
  196DOPC   C2324255   6.284   0.020   3.693  0.3102 -0.4937 -0.2791
  196DOPC   H3R24256   6.360  -0.055   3.661 -1.5744 -1.9587 -1.5304
  196DOPC   H3S24257   6.192  -0.040   3.710  1.3875 -2.4221 -0.9360
  196DOPC   C2424258   6.316   0.081   3.830  0.2935  0.2494  0.0650
  196DOPC   H4R24259   6.229   0.132   3.876  1.2048  1.2476  0.7363
  196DOPC   H4S24260   6.394   0.159   3.819  0.1526  0.4266  0.3311
  196DOPC   C2524261   6.376  -0.019   3.927  0.6049  0.5689  0.2485
  196DOPC   H5R24262   6.475  -0.052   3.889 -0.4592 -0.4897 -1.7744
  196DOPC   H5S24263   6.315  -0.112   3.934 -0.8653  1.6175  2.4736
  196DOPC   C2624264   6.390   0.039   4.076 -0.0524  0.6630  0.8391
  196DOPC   H6R24265   6.288   0.057   4.115 -0.2250 -0.0920  0.7523
  196DOPC   H6S24266   6.435   0.140   4.083 -0.4074  0.7172  2.7946
  196DOPC   C2724267   6.458  -0.057   4.180  0.8396  0.1136  0.2611
  196DOPC   H7R24268   6.415  -0.158   4.162  2.4095 -0.4424 -0.5806
  196DOPC   H7S24269   6.435  -0.033   4.286  2.1187 -2.9209  1.3411
  196DOPC   C2824270   6.613  -0.061   4.164  0.1580 -0.1061 -0.0170
  196DOPC   H8R24271   6.645   0.041   4.194  3.3096 -0.3174 -2.1415
  196DOPC   H8S24272   6.631  -0.076   4.055  0.7181 -1.1328  0.1997
  196DOPC   C2924273   6.677  -0.168   4.241 -0.9746 -0.7863  0.5468
  196DOPC   H9R24274   6.639  -0.269   4.222 -0.6801 -1.4201  3.0000
  196DOPC  C21024275   6.734  -0.147   4.360  0.7516  0.0220 -0.2177
  196DOPC  H10R24276   6.780  -0.232   4.412 -1.0266 -0.4548  0.6422
  196DOPC  C21124277   6.784  -0.009   4.405  0.0503  0.8163 -0.3272
  196DOPC  H11R24278   6.693   0.051   4.426 -0.7865 -0.0258 -1.3987
  196DOPC  H11S24279   6.840   0.041   4.323  1.7083  0.5251  0.5750
  196DOPC  C21224280   6.885  -0.027   4.528  0.0151 -0.2571  0.1998
  196DOPC  H12R24281   6.928   0.075   4.537 -0.7604  0.0311  0.8033
  196DOPC  H12S24282   6.965  -0.101   4.511  0.3275 -0.4114  2.1001
  196DOPC  C21324283   6.825  -0.074   4.667  0.1201  0.4796  0.1165
  196DOPC  H13R24284   6.750  -0.154   4.649 -0.0165  0.3148  1.2960
  196DOPC  H13S24285   6.753  -0.002   4.712 -1.1080  0.1612 -1.2594
  196DOPC  C21424286   6.931  -0.128   4.767 -0.3064 -0.3716  0.4815
  196DOPC  H14R24287   7.003  -0.051   4.802  0.5994 -1.1230  0.3195
  196DOPC  H14S24288   6.995  -0.209   4.724 -0.1948  0.0041 -0.0707
  196DOPC  C21524289   6.867  -0.186   4.897 -0.2960  0.4491 -0.3058
  196DOPC  H15R24290   6.808  -0.279   4.877 -3.1052  1.7339  1.3935
  196DOPC  H15S24291   6.788  -0.118   4.934 -2.2498 -1.1269 -1.3507
  196DOPC  C21624292   6.969  -0.209   5.004  0.4020  0.0275 -0.1257
  196DOPC  H16R24293   7.016  -0.110   5.019 -1.0172  0.5207  1.4139
  196DOPC  H16S24294   7.042  -0.284   4.966  0.1290  0.2526 -1.1295
  196DOPC  C21724295   6.913  -0.252   5.142 -0.2487  0.6901  0.2369
  196DOPC  H17R24296   6.979  -0.335   5.176 -0.7729  0.9443  1.9591
  196DOPC  H17S24297   6.821  -0.312   5.122  0.4299 -0.9901  1.8863
  196DOPC  C21824298   6.898  -0.143   5.249  0.5969  0.1753 -0.1681
  196DOPC  H18R24299   6.998  -0.107   5.283 -0.8898  2.7902  1.8180
  196DOPC  H18S24300   6.830  -0.190   5.324  1.2247  0.6858  0.7531
  196DOPC  H18T24301   6.840  -0.060   5.204 -2.9423 -1.0357  1.7200
  196DOPC   C3324302   6.794   0.496   3.694  0.1295  0.1599 -0.6297
  196DOPC   H3X24303   6.812   0.602   3.667  0.8631 -0.3615 -2.2474
  196DOPC   H3Y24304   6.848   0.422   3.632 -1.8661  0.5134 -2.9331
  196DOPC   C3424305   6.847   0.466   3.838  0.0188  0.3496 -1.2900
  196DOPC   H4X24306   6.801   0.544   3.902  1.0425 -0.9817  1.1843
  196DOPC   H4Y24307   6.956   0.485   3.841  0.1190 -0.2530 -0.9867
  196DOPC   C3524308   6.806   0.328   3.896  0.1646  1.4132 -0.7051
  196DOPC   H5X24309   6.827   0.233   3.841  0.0120  0.1686  1.2859
  196DOPC   H5Y24310   6.697   0.318   3.913  0.4802 -1.8364  0.1863
  196DOPC   C3624311   6.879   0.327   4.035  0.3211  0.4250 -0.0455
  196DOPC   H6X24312   6.916   0.431   4.048  0.5988  0.3469 -0.2068
  196DOPC   H6Y24313   6.802   0.308   4.113 -0.4531  3.6016  0.1209
  196DOPC   C3724314   6.993   0.229   4.058  0.4674 -0.1439  0.2003
  196DOPC   H7X24315   7.023   0.233   4.165 -0.2468 -0.5707  0.4225
  196DOPC   H7Y24316   6.956   0.126   4.039 -0.3242  0.3184 -0.8947
  196DOPC   C3824317   7.125   0.269   3.986  0.0349 -0.1435  0.3837
  196DOPC   H8X24318   7.097   0.287   3.880 -0.4318 -3.1813 -0.0852
  196DOPC   H8Y24319   7.197   0.185   3.989 -0.2701 -0.3815  1.3333
  196DOPC   C3924320   7.175   0.401   4.042 -0.2401 -0.5798  1.0291
  196DOPC   H9X24321   7.145   0.493   3.991  1.3146 -0.6687 -0.1114
  196DOPC  C31024322   7.252   0.414   4.151 -0.4392 -0.9325 -0.1590
  196DOPC  H10X24323   7.299   0.511   4.173 -0.2526 -0.1573 -3.5004
  196DOPC  C31124324   7.282   0.308   4.254  0.0899  0.6053  0.2771
  196DOPC  H11X24325   7.389   0.301   4.284 -0.2736  0.4630  1.6418
  196DOPC  H11Y24326   7.262   0.210   4.206  1.0122  0.7114 -0.3562
  196DOPC  C31224327   7.212   0.311   4.390  0.4588  0.1061 -0.3689
  196DOPC  H12X24328   7.234   0.218   4.445  0.7378  0.8021  0.7276
  196DOPC  H12Y24329   7.102   0.308   4.372  0.4693 -1.5008 -0.2409
  196DOPC  C31324330   7.236   0.442   4.475  0.0709  0.1189  0.1704
  196DOPC  H13X24331   7.194   0.530   4.422  0.4429 -0.2457 -0.7501
  196DOPC  H13Y24332   7.168   0.438   4.562 -1.3988  3.8252 -0.6138
  196DOPC  C31424333   7.383   0.469   4.523  0.4178 -0.3419 -0.1586
  196DOPC  H14X24334   7.419   0.373   4.566  1.0480  0.3609  0.9263
  196DOPC  H14Y24335   7.456   0.504   4.447 -1.1094  0.6070 -1.2634
  196DOPC  C31524336   7.384   0.569   4.644  0.6116  0.4402  0.6329
  196DOPC  H15X24337   7.318   0.528   4.723 -1.6542 -0.7687 -1.7664
  196DOPC  H15Y24338   7.331   0.663   4.617  0.7057  0.2405 -0.2529
  196DOPC  C31624339   7.532   0.589   4.700  0.1963 -0.1325  0.3386
  196DOPC  H16X24340   7.573   0.497   4.746 -0.6249 -0.8763 -0.3672
  196DOPC  H16Y24341   7.595   0.596   4.608 -0.5109 -0.3937 -0.1742
  196DOPC  C31724342   7.547   0.705   4.803  0.2970  0.3392  0.5780
  196DOPC  H17X24343   7.446   0.751   4.812  0.0291 -0.2855  0.8180
  196DOPC  H17Y24344   7.568   0.667   4.905  1.5112  2.9442  1.3715
  196DOPC  C31824345   7.653   0.804   4.756 -0.7480  0.8176  0.0377
  196DOPC  H18X24346   7.648   0.896   4.818 -0.5414  0.1617  1.0577
  196DOPC  H18Y24347   7.751   0.751   4.761  0.4143  2.7930 -0.4857
  196DOPC  H18Z24348   7.630   0.841   4.654  1.1857  0.7927 -0.4529
  197DOPC     N24349   1.939   5.604   2.923 -0.3681 -0.2867  0.5453
  197DOPC   C1224350   2.008   5.602   3.059  0.5557 -0.0596  0.8929
  197DOPC  H12A24351   2.112   5.626   3.046  0.1154  1.9234  0.6848
  197DOPC  H12B24352   1.997   5.499   3.089 -1.0008  0.5472  2.6770
  197DOPC   C1324353   1.792   5.572   2.929 -0.1989 -0.6160 -0.4917
  197DOPC  H13A24354   1.783   5.467   2.951  0.4038 -0.1303  2.5207
  197DOPC  H13B24355   1.751   5.619   3.017  1.5362 -1.7142  0.9738
  197DOPC  H13C24356   1.740   5.601   2.839  0.1117 -1.7343 -1.0586
  197DOPC   C1424357   2.005   5.507   2.826  0.2889  0.6316  0.1490
  197DOPC  H14A24358   1.947   5.484   2.737  0.5523  0.1629  0.0949
  197DOPC  H14B24359   2.110   5.527   2.813  0.5705 -1.4118 -1.2970
  197DOPC  H14C24360   2.009   5.408   2.869 -1.1114 -0.5066 -2.1196
  197DOPC   C1524361   1.967   5.737   2.862 -0.0087 -0.1572 -0.1265
  197DOPC  H15A24362   2.070   5.766   2.855 -0.3018  1.2923  1.1487
  197DOPC  H15B24363   1.907   5.803   2.922 -1.0857 -1.6787  0.5630
  197DOPC  H15C24364   1.938   5.744   2.758  1.5671 -0.2571 -0.5966
  197DOPC   C1124365   1.956   5.692   3.169 -0.5843  0.5244 -0.1011
  197DOPC  H11A24366   2.014   5.678   3.263 -2.7711 -0.4826  1.1851
  197DOPC  H11B24367   1.978   5.793   3.130  1.0843 -0.3569 -1.5659
  197DOPC     P24368   1.776   5.549   3.305 -0.4141  0.4412  0.0214
  197DOPC   O1324369   1.896   5.476   3.363 -0.3737 -0.2790 -0.1406
  197DOPC   O1424370   1.670   5.462   3.247 -0.0660  0.2440 -0.8935
  197DOPC   O1224371   1.822   5.660   3.200  0.0466  0.2937 -0.5282
  197DOPC   O1124372   1.711   5.637   3.416  0.5282  0.0202  0.0034
  197DOPC    C124373   1.645   5.763   3.392 -0.2387 -0.2575 -0.4840
  197DOPC    HA24374   1.605   5.775   3.289 -0.5193  1.8605 -0.1587
  197DOPC    HB24375   1.716   5.847   3.406 -0.8160  0.6798 -2.7259
  197DOPC    C224376   1.536   5.794   3.492  0.2303 -0.5307 -0.0034
  197DOPC    HS24377   1.521   5.904   3.488 -1.4577 -0.7466 -0.2594
  197DOPC   O2124378   1.563   5.751   3.625 -0.6424 -0.5745 -0.1605
  197DOPC   C2124379   1.647   5.830   3.688  0.1399 -0.1243 -0.2234
  197DOPC   O2224380   1.698   5.935   3.655 -0.6432 -0.6239  0.6947
  197DOPC   C2224381   1.687   5.761   3.818  0.0010 -0.1220  0.0320
  197DOPC   H2R24382   1.784   5.804   3.850 -0.2650 -0.5728  1.5253
  197DOPC   H2S24383   1.712   5.659   3.783 -0.3916 -0.9580  2.0168
  197DOPC    C324384   1.398   5.733   3.444  0.7908 -0.1409 -0.2252
  197DOPC    HX24385   1.415   5.623   3.442 -0.6355 -0.4354  1.6325
  197DOPC    HY24386   1.370   5.770   3.343 -1.8718 -0.1064  0.4542
  197DOPC   O3124387   1.288   5.754   3.538  0.2454  0.4894 -0.7537
  197DOPC   C3124388   1.265   5.886   3.559 -0.6532  0.2661  0.0181
  197DOPC   O3224389   1.299   5.977   3.489 -0.2402 -0.2169 -0.3767
  197DOPC   C3224390   1.203   5.898   3.698  0.3627 -0.0998 -0.3328
  197DOPC   H2X24391   1.126   5.818   3.706  0.3434 -0.0012  0.4943
  197DOPC   H2Y24392   1.281   5.870   3.772  0.1733  1.1727  0.3617
  197DOPC   C2324393   1.585   5.774   3.929 -0.6242 -0.3146 -0.5537
  197DOPC   H3R24394   1.608   5.692   4.001 -0.0778 -0.2387 -0.6367
  197DOPC   H3S24395   1.481   5.767   3.890 -0.6928 -0.1158 -0.4087
  197DOPC   C2424396   1.572   5.917   3.995 -0.2788 -0.4737  0.6491
  197DOPC   H4R24397   1.576   5.992   3.913  1.9081 -0.5453  0.6374
  197DOPC   H4S24398   1.663   5.931   4.058  0.0530  0.0141  0.0719
  197DOPC   C2524399   1.449   5.921   4.088  0.4128  0.0317 -0.1280
  197DOPC   H5R24400   1.372   5.865   4.031  2.5180 -1.5727 -1.5587
  197DOPC   H5S24401   1.433   6.031   4.095 -0.9305 -0.0579 -1.3779
  197DOPC   C2624402   1.464   5.853   4.228  0.6564  0.1295 -0.1171
  197DOPC   H6R24403   1.573   5.848   4.249  0.4354  0.7201  1.2612
  197DOPC   H6S24404   1.438   5.746   4.215 -0.6652  0.3272  0.7674
  197DOPC   C2724405   1.386   5.923   4.338  0.2644  0.1635  0.1986
  197DOPC   H7R24406   1.285   5.880   4.320  1.7456 -2.8117 -1.9045
  197DOPC   H7S24407   1.400   6.033   4.332 -0.1051  0.5360  3.9174
  197DOPC   C2824408   1.417   5.886   4.483  0.7353 -0.1538 -0.1673
  197DOPC   H8R24409   1.527   5.880   4.495  0.4199 -1.2728  3.6017
  197DOPC   H8S24410   1.368   5.787   4.500 -2.0492  1.4182  1.9132
  197DOPC   C2924411   1.385   5.990   4.591  0.3073 -0.1862 -0.4857
  197DOPC   H9R24412   1.287   6.038   4.575 -0.1978 -1.1315 -0.3003
  197DOPC  C21024413   1.457   6.023   4.700 -0.3138  0.2922  0.5067
  197DOPC  H10R24414   1.435   6.110   4.764  1.2277  1.3635 -0.3441
  197DOPC  C21124415   1.592   5.960   4.733 -0.2555  0.3291  0.0717
  197DOPC  H11R24416   1.606   5.865   4.677  2.3400 -0.4068  1.7649
  197DOPC  H11S24417   1.609   5.951   4.842 -3.3296 -0.7271  0.5463
  197DOPC  C21224418   1.704   6.054   4.668  0.1428  0.0544  0.4957
  197DOPC  H12R24419   1.703   6.158   4.707  0.6815 -0.1131  0.9718
  197DOPC  H12S24420   1.693   6.077   4.560 -0.3180  0.5770  0.6513
  197DOPC  C21324421   1.845   5.991   4.670  0.4587 -0.2405  0.6611
  197DOPC  H13R24422   1.908   6.038   4.592 -1.1596  0.3436 -0.3420
  197DOPC  H13S24423   1.837   5.884   4.643 -0.7018  0.3691 -1.6495
  197DOPC  C21424424   1.908   6.009   4.809 -0.0268 -0.1192  1.0809
  197DOPC  H14R24425   1.853   5.946   4.881 -1.3421  1.4446  1.5135
  197DOPC  H14S24426   1.892   6.115   4.840  1.5104  0.0817  1.2982
  197DOPC  C21524427   2.052   5.988   4.818 -0.4896 -0.2800  0.2812
  197DOPC  H15R24428   2.085   6.011   4.922 -0.7357  0.0552  0.2881
  197DOPC  H15S24429   2.112   6.060   4.758  0.8104  0.6171  2.5091
  197DOPC  C21624430   2.093   5.842   4.791 -0.2706 -0.0447 -0.2046
  197DOPC  H16R24431   2.047   5.808   4.696  1.4050 -1.3068 -0.6235
  197DOPC  H16S24432   2.051   5.786   4.877  1.2809 -1.1229 -0.1073
  197DOPC  C21724433   2.245   5.819   4.774 -0.3405 -0.0650  0.0650
  197DOPC  H17R24434   2.292   5.836   4.873  0.4727  0.2016 -0.3550
  197DOPC  H17S24435   2.289   5.901   4.713  0.5384 -0.1659  0.5534
  197DOPC  C21824436   2.282   5.686   4.713 -1.0198 -0.1797 -0.5481
  197DOPC  H18R24437   2.300   5.694   4.604 -0.7906  0.4106 -0.4744
  197DOPC  H18S24438   2.202   5.610   4.721 -0.9385 -0.3803 -1.4943
  197DOPC  H18T24439   2.381   5.657   4.754 -1.0010 -0.2334 -0.6328
  197DOPC   C3324440   1.151   6.038   3.730  0.6206  0.0087  0.4944
  197DOPC   H3X24441   1.049   6.040   3.684  2.1518 -0.8340 -3.3775
  197DOPC   H3Y24442   1.207   6.124   3.687 -0.2513 -0.3294 -1.4341
  197DOPC   C3424443   1.153   6.062   3.881 -0.5514 -0.2104  0.2798
  197DOPC   H4X24444   1.122   6.168   3.892 -0.8956 -0.3920  1.1329
  197DOPC   H4Y24445   1.254   6.043   3.922 -0.9271  0.1801  1.4396
  197DOPC   C3524446   1.050   5.976   3.955 -0.4302  0.4558 -0.1067
  197DOPC   H5X24447   1.068   5.871   3.921  0.4136  0.9920 -1.4208
  197DOPC   H5Y24448   0.948   6.008   3.927 -0.9958  0.0397  1.3857
  197DOPC   C3624449   1.052   5.984   4.108  0.2443  0.2005  1.0061
  197DOPC   H6X24450   1.016   5.884   4.140  0.2590 -0.4243 -0.8187
  197DOPC   H6Y24451   1.154   5.988   4.151  1.8208  0.6256 -2.4373
  197DOPC   C3724452   0.972   6.099   4.166 -0.0370 -0.2667  0.0547
  197DOPC   H7X24453   1.013   6.195   4.128 -3.2304  1.0502 -0.3944
  197DOPC   H7Y24454   0.874   6.103   4.115 -0.4245  0.6172  0.8383
  197DOPC   C3824455   0.958   6.108   4.323  0.6517 -0.1204  0.3545
  197DOPC   H8X24456   1.058   6.127   4.366 -0.2656  0.1217  2.5657
  197DOPC   H8Y24457   0.903   6.022   4.366 -2.3508  2.5276  2.3015
  197DOPC   C3924458   0.868   6.231   4.346  0.2626  0.4128  0.0238
  197DOPC   H9X24459   0.773   6.218   4.293 -0.1419  1.5859  0.4224
  197DOPC  C31024460   0.894   6.341   4.418 -0.0404 -0.2815  0.0187
  197DOPC  H10X24461   0.808   6.408   4.428 -0.5157 -1.0309  1.3206
  197DOPC  C31124462   1.021   6.354   4.506 -0.9025 -0.0129 -0.7913
  197DOPC  H11X24463   1.064   6.456   4.503  1.6982 -1.0349 -3.3629
  197DOPC  H11Y24464   1.103   6.293   4.462 -0.9794  1.0281 -2.4564
  197DOPC  C31224465   1.000   6.297   4.647  0.3139 -0.1333 -0.7375
  197DOPC  H12X24466   0.934   6.208   4.648  0.3773 -0.1887  0.2277
  197DOPC  H12Y24467   0.932   6.365   4.702  0.0202 -1.2514  0.3511
  197DOPC  C31324468   1.130   6.275   4.735 -0.0961  0.8857  0.1997
  197DOPC  H13X24469   1.202   6.230   4.664  2.2226 -0.7089  3.2896
  197DOPC  H13Y24470   1.175   6.373   4.763 -1.2429  0.9772  1.9172
  197DOPC  C31424471   1.127   6.193   4.864  0.3138 -0.3528  0.7425
  197DOPC  H14X24472   1.026   6.151   4.879  0.4159 -0.6597  0.5819
  197DOPC  H14Y24473   1.195   6.108   4.841 -0.7126 -0.3308 -3.0415
  197DOPC  C31524474   1.178   6.275   4.985 -0.6826  0.3181 -0.6050
  197DOPC  H15X24475   1.090   6.326   5.031  1.4982  1.8676  2.1513
  197DOPC  H15Y24476   1.235   6.361   4.946 -1.4974  0.5888 -1.2281
  197DOPC  C31624477   1.262   6.178   5.082 -0.5247 -0.2164 -0.0697
  197DOPC  H16X24478   1.355   6.139   5.037  0.1964  1.2768  0.0848
  197DOPC  H16Y24479   1.300   6.248   5.160  0.3891  0.2747 -0.9373
  197DOPC  C31724480   1.172   6.064   5.147 -0.7860 -0.5698 -0.2726
  197DOPC  H17X24481   1.096   6.113   5.211 -1.0638 -0.6045 -0.5706
  197DOPC  H17Y24482   1.110   6.020   5.065  0.6130 -0.1085 -1.6331
  197DOPC  C31824483   1.260   5.962   5.229  0.8874  0.1105  0.3960
  197DOPC  H18X24484   1.340   5.923   5.163  1.7705  0.2607  1.3455
  197DOPC  H18Y24485   1.304   6.007   5.321 -3.2293  1.6388  1.8233
  197DOPC  H18Z24486   1.196   5.876   5.258 -1.1749  0.8477 -1.6686
  198DOPC     N24487   5.450   0.392   2.283  0.4211 -0.1181 -0.3524
  198DOPC   C1224488   5.424   0.440   2.425  0.4624 -0.4120  0.0849
  198DOPC  H12A24489   5.359   0.362   2.462  0.7529 -1.4395 -1.4592
  198DOPC  H12B24490   5.380   0.538   2.423  0.0691 -0.5329  1.5430
  198DOPC   C1324491   5.547   0.476   2.208 -0.2680  0.1703 -0.1988
  198DOPC  H13A24492   5.535   0.473   2.101 -3.7372  0.7829  0.0543
  198DOPC  H13B24493   5.517   0.578   2.228 -2.1862 -0.7207  1.9242
  198DOPC  H13C24494   5.646   0.464   2.249 -1.0546  1.2893  2.2168
  198DOPC   C1424495   5.332   0.414   2.204 -0.2163  0.0207  0.6210
  198DOPC  H14A24496   5.297   0.515   2.214 -0.4666  0.0315 -0.2217
  198DOPC  H14B24497   5.355   0.401   2.099  0.8824  0.3663  0.8104
  198DOPC  H14C24498   5.254   0.347   2.237  0.6091 -1.7032 -0.7071
  198DOPC   C1524499   5.497   0.250   2.277  0.0709 -0.4708 -0.7424
  198DOPC  H15A24500   5.580   0.238   2.209 -0.1346 -0.4811 -0.9905
  198DOPC  H15B24501   5.416   0.183   2.253 -2.0043  1.0733  1.4611
  198DOPC  H15C24502   5.533   0.215   2.373 -1.2395 -2.7172 -1.0093
  198DOPC   C1124503   5.545   0.450   2.513 -0.0108 -0.0162 -0.4820
  198DOPC  H11A24504   5.616   0.524   2.471 -1.7212  2.5753  0.9685
  198DOPC  H11B24505   5.508   0.504   2.602  2.3421  0.1590  0.4824
  198DOPC     P24506   5.501   0.234   2.655 -0.1712  0.1134  0.4672
  198DOPC   O1324507   5.530   0.090   2.643 -0.2710  0.0954  0.0570
  198DOPC   O1424508   5.354   0.268   2.657 -0.1274  0.2970 -0.0769
  198DOPC   O1224509   5.589   0.320   2.552  0.2438  0.3967  0.6437
  198DOPC   O1124510   5.562   0.284   2.792  0.6956 -0.1255  0.8791
  198DOPC    C124511   5.688   0.227   2.842  0.1990  0.2518  0.4709
  198DOPC    HA24512   5.774   0.275   2.792 -0.4606  0.3589 -0.5949
  198DOPC    HB24513   5.693   0.117   2.825 -0.4034  0.2684  0.1543
  198DOPC    C224514   5.699   0.248   2.996  0.4968 -0.3068 -0.1549
  198DOPC    HS24515   5.799   0.221   3.035  0.1049 -2.7983 -0.6811
  198DOPC   O2124516   5.601   0.174   3.066 -0.2954  0.0536 -0.2936
  198DOPC   C2124517   5.629   0.047   3.088  0.2597  0.1718 -0.0036
  198DOPC   O2224518   5.726  -0.010   3.046 -0.1716 -0.0238  0.0673
  198DOPC   C2224519   5.527  -0.012   3.180  0.0961  0.8546  0.3190
  198DOPC   H2R24520   5.551  -0.117   3.207 -0.4320  0.2361 -1.4852
  198DOPC   H2S24521   5.433  -0.017   3.121 -0.6573 -0.4847  1.5462
  198DOPC    C324522   5.671   0.396   3.028 -0.2993 -0.2496 -0.2710
  198DOPC    HX24523   5.574   0.423   2.982 -1.8989 -1.5869  2.0819
  198DOPC    HY24524   5.746   0.449   2.966 -0.0753 -3.0143 -2.5904
  198DOPC   O3124525   5.687   0.440   3.164 -0.5766  0.2414  0.5880
  198DOPC   C3124526   5.579   0.429   3.240  0.3107 -0.6655  0.6970
  198DOPC   O3224527   5.463   0.402   3.201  0.0861 -0.3412 -0.6247
  198DOPC   C3224528   5.621   0.453   3.380 -0.8220  0.1920 -0.1971
  198DOPC   H2X24529   5.687   0.368   3.409 -2.7888 -1.4125 -0.1669
  198DOPC   H2Y24530   5.672   0.551   3.393 -1.7439  1.1119 -2.8542
  198DOPC   C2324531   5.513   0.065   3.312  0.7377 -0.4934  0.0454
  198DOPC   H3R24532   5.462   0.157   3.278 -2.1986 -2.2750 -0.7978
  198DOPC   H3S24533   5.609   0.098   3.357  0.4936  0.6891 -0.2846
  198DOPC   C2424534   5.422  -0.013   3.408 -0.2264  0.5578 -0.4360
  198DOPC   H4R24535   5.482  -0.099   3.444  0.0110  1.7794  2.3426
  198DOPC   H4S24536   5.332  -0.044   3.350 -1.4755 -1.0803  2.1793
  198DOPC   C2524537   5.382   0.068   3.534  0.4516  0.0503 -0.0664
  198DOPC   H5R24538   5.314   0.151   3.506 -2.1074 -1.8999  0.0343
  198DOPC   H5S24539   5.473   0.115   3.577  0.7395  0.7989 -1.4573
  198DOPC   C2624540   5.312  -0.014   3.642  0.2212 -0.0883  0.6269
  198DOPC   H6R24541   5.381  -0.098   3.666  0.0891 -0.1118  0.9362
  198DOPC   H6S24542   5.216  -0.046   3.596  1.6692 -0.6241 -2.1927
  198DOPC   C2724543   5.297   0.051   3.780 -0.4536 -0.4199  0.6937
  198DOPC   H7R24544   5.265   0.156   3.764  1.6668  0.1681 -0.1569
  198DOPC   H7S24545   5.394   0.056   3.835  0.7177  2.0045 -1.3526
  198DOPC   C2824546   5.202  -0.027   3.873  0.3800 -0.4880 -0.0549
  198DOPC   H8R24547   5.095  -0.022   3.842  0.3361  0.2842  0.1811
  198DOPC   H8S24548   5.193   0.035   3.965 -4.2175  0.5462 -0.9240
  198DOPC   C2924549   5.252  -0.172   3.884 -0.2168 -0.5126 -0.0346
  198DOPC   H9R24550   5.254  -0.230   3.791 -0.8827  1.7225 -1.5033
  198DOPC  C21024551   5.311  -0.227   3.995  0.0643 -0.0412  0.2281
  198DOPC  H10R24552   5.331  -0.335   3.989  2.3773  0.4221 -1.5387
  198DOPC  C21124553   5.340  -0.167   4.136  0.5198 -0.3020  0.5115
  198DOPC  H11R24554   5.359  -0.061   4.110  0.9527 -0.8625 -1.5810
  198DOPC  H11S24555   5.432  -0.211   4.180  1.7969  0.1092 -1.6192
  198DOPC  C21224556   5.219  -0.146   4.236 -0.0464 -0.1585  0.5851
  198DOPC  H12R24557   5.178  -0.248   4.255 -0.1844 -0.4387 -1.1169
  198DOPC  H12S24558   5.134  -0.096   4.186  1.5080  0.1956 -1.8772
  198DOPC  C21324559   5.265  -0.065   4.357  0.3432 -0.2590 -0.3737
  198DOPC  H13R24560   5.267   0.044   4.333  1.0096  0.0723  1.1053
  198DOPC  H13S24561   5.366  -0.102   4.384  0.4126  0.4821  0.4336
  198DOPC  C21424562   5.185  -0.107   4.479 -0.6395 -0.6110 -0.1894
  198DOPC  H14R24563   5.198  -0.218   4.474 -1.6855 -0.7220 -0.8669
  198DOPC  H14S24564   5.078  -0.079   4.476 -0.6191 -0.0907  1.9944
  198DOPC  C21524565   5.248  -0.046   4.607 -0.7356  0.2409 -0.7354
  198DOPC  H15R24566   5.270   0.062   4.596  1.6660 -0.3084 -1.8160
  198DOPC  H15S24567   5.349  -0.090   4.617 -0.5261  0.5643 -1.4165
  198DOPC  C21624568   5.163  -0.053   4.737 -0.1662 -0.4636 -0.4310
  198DOPC  H16R24569   5.099  -0.144   4.741 -0.3242 -0.3231  0.9916
  198DOPC  H16S24570   5.097   0.036   4.735  0.7125  0.1850 -0.7882
  198DOPC  C21724571   5.246  -0.039   4.874 -0.1343  0.1997  0.1025
  198DOPC  H17R24572   5.321   0.042   4.865 -1.5664  1.5630 -0.0327
  198DOPC  H17S24573   5.303  -0.134   4.884 -1.4684 -0.4836  1.6112
  198DOPC  C21824574   5.162  -0.024   5.000 -0.4368 -0.9386 -0.1048
  198DOPC  H18R24575   5.222  -0.072   5.080  0.6974 -1.0886 -1.0145
  198DOPC  H18S24576   5.058  -0.062   4.984 -0.0363 -2.1901  0.1630
  198DOPC  H18T24577   5.133   0.083   5.004  0.5308 -0.5896 -1.6391
  198DOPC   C3324578   5.500   0.449   3.476  0.5165  0.1316  0.7780
  198DOPC   H3X24579   5.444   0.356   3.449  2.5494 -1.1862  0.9293
  198DOPC   H3Y24580   5.439   0.542   3.470  0.2869  0.0037  1.1196
  198DOPC   C3424581   5.542   0.442   3.622  0.4988 -0.1571 -0.9786
  198DOPC   H4X24582   5.615   0.524   3.639 -0.1809  0.0799  1.1935
  198DOPC   H4Y24583   5.604   0.356   3.656  1.2516  0.3851 -0.9620
  198DOPC   C3524584   5.433   0.451   3.734 -0.2620  0.0003  0.4677
  198DOPC   H5X24585   5.369   0.360   3.733 -3.0899  1.8768  0.6658
  198DOPC   H5Y24586   5.359   0.526   3.700 -0.6232 -0.8706 -0.7329
  198DOPC   C3624587   5.495   0.490   3.873  0.3600  0.3662  0.4133
  198DOPC   H6X24588   5.578   0.561   3.855 -0.2797  0.8240 -0.8574
  198DOPC   H6Y24589   5.424   0.524   3.951  1.4418 -1.1661  2.1587
  198DOPC   C3724590   5.555   0.369   3.942 -0.3343  0.2449 -0.3087
  198DOPC   H7X24591   5.491   0.278   3.942  2.0967 -1.6480  1.5621
  198DOPC   H7Y24592   5.648   0.348   3.885 -0.4883  1.2757 -0.9496
  198DOPC   C3824593   5.590   0.410   4.086 -0.6006 -0.4768 -0.3057
  198DOPC   H8X24594   5.508   0.468   4.134 -1.6580 -1.5225 -0.7912
  198DOPC   H8Y24595   5.679   0.476   4.075  0.5858 -2.2185 -1.6971
  198DOPC   C3924596   5.638   0.295   4.173  0.2625  0.1383 -0.6296
  198DOPC   H9X24597   5.690   0.208   4.129 -0.2380 -0.8331  0.6284
  198DOPC  C31024598   5.607   0.284   4.301 -0.3374 -0.0081 -0.5532
  198DOPC  H10X24599   5.644   0.194   4.353 -2.7578  0.0345  1.4257
  198DOPC  C31124600   5.535   0.378   4.393  0.3937 -0.2946  0.2361
  198DOPC  H11X24601   5.449   0.334   4.448 -0.6559 -0.2334 -1.2895
  198DOPC  H11Y24602   5.486   0.463   4.341 -4.0329 -0.6769  3.2381
  198DOPC  C31224603   5.632   0.431   4.504 -0.0195  0.3200 -0.3352
  198DOPC  H12X24604   5.664   0.346   4.568  1.0567  0.9106 -0.0720
  198DOPC  H12Y24605   5.579   0.504   4.569  1.8789  1.6508 -0.1920
  198DOPC  C31324606   5.761   0.492   4.460 -0.3517 -0.1676  0.0018
  198DOPC  H13X24607   5.817   0.406   4.419 -0.7519 -1.2193  1.5558
  198DOPC  H13Y24608   5.750   0.562   4.374 -0.5050  1.4392  1.2729
  198DOPC  C31424609   5.836   0.571   4.564  0.4545 -0.1749 -0.2817
  198DOPC  H14X24610   5.778   0.664   4.581 -0.6257 -0.4417 -2.2166
  198DOPC  H14Y24611   5.835   0.520   4.662  0.2231 -1.6620 -1.0310
  198DOPC  C31524612   5.981   0.592   4.518 -0.1566  0.2655  0.1905
  198DOPC  H15X24613   6.012   0.487   4.494 -3.4002 -0.7151 -0.2692
  198DOPC  H15Y24614   6.042   0.631   4.602 -0.7572  1.2979  0.1539
  198DOPC  C31624615   6.005   0.679   4.387  0.0514  0.3081  0.2513
  198DOPC  H16X24616   6.111   0.674   4.354 -0.3104  0.2735 -0.9266
  198DOPC  H16Y24617   5.945   0.648   4.299  0.0154  0.2215  0.3062
  198DOPC  C31724618   5.973   0.830   4.415 -0.8924  0.2098  0.6075
  198DOPC  H17X24619   5.865   0.835   4.442 -1.6293 -0.1904 -1.9876
  198DOPC  H17Y24620   6.040   0.873   4.492  0.9316  1.6392 -1.6204
  198DOPC  C31824621   5.985   0.904   4.281 -0.2627  0.0949  0.1618
  198DOPC  H18X24622   6.087   0.895   4.239 -0.0808 -0.1231  0.6386
  198DOPC  H18Y24623   5.908   0.865   4.212  0.5697 -1.0763 -0.1411
  198DOPC  H18Z24624   5.970   1.012   4.301  0.1701  0.2916 -0.5470
  199DOPC     N24625   5.275   0.778   2.856  0.3183  0.1189 -0.1695
  199DOPC   C1224626   5.249   0.716   2.994  0.6926  0.3704 -0.2125
  199DOPC  H12A24627   5.201   0.619   2.989  1.3616  0.0216 -0.0217
  199DOPC  H12B24628   5.180   0.787   3.036 -0.3169 -0.3165 -0.6602
  199DOPC   C1324629   5.155   0.763   2.765  0.3540 -0.4538  0.0892
  199DOPC  H13A24630   5.163   0.829   2.680  0.6960 -0.4844  0.0940
  199DOPC  H13B24631   5.149   0.659   2.735  0.7095 -0.5294  0.2750
  199DOPC  H13C24632   5.069   0.781   2.827 -0.6668 -0.3670 -1.3145
  199DOPC   C1424633   5.402   0.722   2.798  0.0656  0.5300 -0.4288
  199DOPC  H14A24634   5.443   0.783   2.719 -1.4898  1.4870 -0.5390
  199DOPC  H14B24635   5.469   0.716   2.883 -1.0126  0.6529  0.4513
  199DOPC  H14C24636   5.382   0.623   2.759  0.8122  0.2676 -0.1652
  199DOPC   C1524637   5.296   0.927   2.869  0.6539  0.2549  0.5024
  199DOPC  H15A24638   5.309   0.975   2.773 -0.9792 -0.0603  0.1048
  199DOPC  H15B24639   5.381   0.953   2.931  1.0629  0.1882 -0.0179
  199DOPC  H15C24640   5.218   0.981   2.921  1.1898  1.1257  0.4355
  199DOPC   C1124641   5.372   0.727   3.094 -0.0044 -0.8355  0.0544
  199DOPC  H11A24642   5.320   0.725   3.192 -0.9899  2.7345 -0.2292
  199DOPC  H11B24643   5.436   0.637   3.087  1.0507 -0.4065  2.9217
  199DOPC     P24644   5.563   0.877   3.200  0.1286  0.3150 -0.1519
  199DOPC   O1324645   5.608   1.015   3.184 -0.6314 -0.4702  0.4768
  199DOPC   O1424646   5.666   0.770   3.195  0.0112  0.3704 -0.2594
  199DOPC   O1224647   5.451   0.851   3.091 -0.0641  0.2524 -0.6060
  199DOPC   O1124648   5.473   0.873   3.333 -0.6082 -0.3080  0.0162
  199DOPC    C124649   5.405   0.999   3.361  0.7632  0.6362 -0.1153
  199DOPC    HA24650   5.377   1.058   3.271 -0.3269  2.0725  1.1171
  199DOPC    HB24651   5.468   1.063   3.426  0.7800  1.7235 -1.1604
  199DOPC    C224652   5.271   0.979   3.442 -0.0962  0.2186  0.0989
  199DOPC    HS24653   5.235   1.081   3.468 -1.2554  0.4699 -2.1700
  199DOPC   O2124654   5.276   0.891   3.555 -0.0978 -0.3174  0.1407
  199DOPC   C2124655   5.349   0.941   3.647 -0.3130 -0.5406 -0.0391
  199DOPC   O2224656   5.380   1.060   3.662  0.4496 -0.1146  0.1665
  199DOPC   C2224657   5.389   0.837   3.753 -0.3192 -0.3489 -0.0541
  199DOPC   H2R24658   5.485   0.787   3.725  0.0261  0.1860  0.1758
  199DOPC   H2S24659   5.302   0.768   3.757 -0.3211 -0.2820  1.9562
  199DOPC    C324660   5.162   0.919   3.352 -0.3784 -0.7953 -0.0534
  199DOPC    HX24661   5.193   0.813   3.340 -0.4580 -0.7900 -0.3216
  199DOPC    HY24662   5.159   0.979   3.258 -0.5202 -1.7681 -0.6927
  199DOPC   O3124663   5.036   0.928   3.428 -0.2217 -0.2113 -0.0159
  199DOPC   C3124664   4.938   0.992   3.366  1.2611  0.6496 -0.1598
  199DOPC   O3224665   4.939   1.035   3.253  0.2256 -0.6628 -0.2134
  199DOPC   C3224666   4.808   0.985   3.461 -0.8080  0.2372 -0.8738
  199DOPC   H2X24667   4.719   0.947   3.408 -0.4607 -1.7289 -0.1134
  199DOPC   H2Y24668   4.833   0.922   3.549  2.1196  3.1995  0.6633
  199DOPC   C2324669   5.417   0.905   3.888  0.6944 -0.3576 -0.3612
  199DOPC   H3R24670   5.321   0.953   3.914  0.2051 -1.1812 -0.5986
  199DOPC   H3S24671   5.503   0.974   3.882  1.1508 -0.9137 -0.3441
  199DOPC   C2424672   5.439   0.812   4.011  0.3193  0.1039  0.6372
  199DOPC   H4R24673   5.533   0.755   3.999  0.7605  0.8141  0.6453
  199DOPC   H4S24674   5.360   0.735   3.998 -1.3997  2.1121 -1.9216
  199DOPC   C2524675   5.431   0.882   4.148  0.6375  0.0934 -0.5532
  199DOPC   H5R24676   5.375   0.978   4.153 -1.6609 -1.2454  2.9415
  199DOPC   H5S24677   5.529   0.926   4.176  0.2338  0.4322  0.3965
  199DOPC   C2624678   5.367   0.795   4.254 -0.5382 -0.8477 -0.6171
  199DOPC   H6R24679   5.413   0.694   4.259  0.4691 -0.3869 -0.3374
  199DOPC   H6S24680   5.265   0.779   4.214 -0.4038  1.5873 -2.0712
  199DOPC   C2724681   5.356   0.853   4.393 -0.8258 -0.0526  0.5928
  199DOPC   H7R24682   5.284   0.785   4.444 -1.5627 -1.0296 -1.6316
  199DOPC   H7S24683   5.315   0.956   4.381 -0.1067  0.2079  0.3581
  199DOPC   C2824684   5.495   0.873   4.462 -0.4090  0.3811  0.0924
  199DOPC   H8R24685   5.507   0.984   4.461 -1.0189  0.4559 -0.6960
  199DOPC   H8S24686   5.578   0.831   4.402  0.4346  0.0609  1.4499
  199DOPC   C2924687   5.507   0.817   4.599 -0.2285 -0.7365 -0.2722
  199DOPC   H9R24688   5.462   0.718   4.620  0.9916 -1.3475 -0.4406
  199DOPC  C21024689   5.575   0.882   4.702 -0.3616 -0.4560  0.1452
  199DOPC  H10R24690   5.595   0.826   4.795 -0.4786  0.0786  0.4948
  199DOPC  C21124691   5.641   1.016   4.698 -0.0550 -0.0907 -0.0063
  199DOPC  H11R24692   5.606   1.079   4.783  1.8694  1.5721 -0.3615
  199DOPC  H11S24693   5.616   1.074   4.606 -0.0087  2.4664  1.4856
  199DOPC  C21224694   5.795   1.006   4.711  0.0609 -0.1903  0.3255
  199DOPC  H12R24695   5.837   1.108   4.696 -0.6486  0.0394 -0.1205
  199DOPC  H12S24696   5.831   0.937   4.632 -0.4821 -0.1648  0.0533
  199DOPC  C21324697   5.843   0.956   4.847 -0.3353 -0.5545  0.3118
  199DOPC  H13R24698   5.826   0.848   4.864  2.3190 -1.1389 -0.1862
  199DOPC  H13S24699   5.789   1.011   4.927  1.1396 -0.7139  1.4748
  199DOPC  C21424700   5.993   0.961   4.870  0.2875  0.5826 -0.4410
  199DOPC  H14R24701   6.018   1.062   4.832 -0.1155  0.3573 -1.3286
  199DOPC  H14S24702   6.059   0.893   4.811  0.5210  0.9414 -0.5967
  199DOPC  C21524703   6.030   0.950   5.017  0.2601  0.1123 -0.3615
  199DOPC  H15R24704   6.010   0.846   5.049 -0.8810  0.1721 -0.8265
  199DOPC  H15S24705   5.963   1.022   5.069  0.4903 -1.0686  1.6300
  199DOPC  C21624706   6.176   0.989   5.057  0.6850  0.4096 -0.9506
  199DOPC  H16R24707   6.197   0.962   5.163  0.9070 -0.4270 -1.2030
  199DOPC  H16S24708   6.199   1.097   5.044  0.9341  0.5209  0.2256
  199DOPC  C21724709   6.286   0.916   4.980  0.0077  0.0650  0.4875
  199DOPC  H17R24710   6.385   0.929   5.028  0.6468 -1.2275 -0.4391
  199DOPC  H17S24711   6.289   0.956   4.876  0.0697 -1.1231  0.0214
  199DOPC  C21824712   6.261   0.764   4.977  0.2870  0.0599 -0.0712
  199DOPC  H18R24713   6.344   0.700   4.939 -0.6212 -1.6625  0.6878
  199DOPC  H18S24714   6.168   0.732   4.926 -0.1983 -1.4584  1.6181
  199DOPC  H18T24715   6.245   0.735   5.083 -1.8986  2.6298  0.4072
  199DOPC   C3324716   4.760   1.129   3.519 -0.0131 -0.5368  0.2422
  199DOPC   H3X24717   4.660   1.127   3.567 -0.2086  0.9387 -0.0747
  199DOPC   H3Y24718   4.752   1.189   3.426  0.4216 -0.2127  0.4129
  199DOPC   C3424719   4.859   1.188   3.612 -0.0044 -0.4973 -0.2170
  199DOPC   H4X24720   4.841   1.294   3.639 -0.3579 -1.2966  3.0683
  199DOPC   H4Y24721   4.958   1.184   3.563  0.0767  0.5076 -0.1440
  199DOPC   C3524722   4.846   1.125   3.752 -0.0694  0.4845 -0.7719
  199DOPC   H5X24723   4.880   1.019   3.752  0.1964  0.5570  0.6588
  199DOPC   H5Y24724   4.748   1.131   3.803 -0.1808  2.4109 -1.1544
  199DOPC   C3624725   4.931   1.206   3.858  0.2380  0.5635 -0.0294
  199DOPC   H6X24726   4.915   1.315   3.847 -0.2272  0.5210  0.1727
  199DOPC   H6Y24727   4.888   1.187   3.959  0.1630  1.2810  0.0793
  199DOPC   C3724728   5.082   1.183   3.869 -0.1362  1.0424  0.5958
  199DOPC   H7X24729   5.109   1.079   3.894 -2.5797  0.3828  0.7655
  199DOPC   H7Y24730   5.125   1.206   3.769  0.5374 -1.0858  0.3513
  199DOPC   C3824731   5.160   1.266   3.968 -0.6434 -1.0388 -0.0269
  199DOPC   H8X24732   5.133   1.227   4.068 -0.4794 -2.1758 -0.4085
  199DOPC   H8Y24733   5.126   1.372   3.963  0.3286 -0.6967  0.2791
  199DOPC   C3924734   5.309   1.285   3.948 -0.4740  0.8878  0.6605
  199DOPC   H9X24735   5.352   1.255   3.852 -0.2709 -0.5985  1.1809
  199DOPC  C31024736   5.385   1.353   4.036 -0.6997  0.7843  0.2367
  199DOPC  H10X24737   5.488   1.373   4.002 -1.3803  2.9582 -0.7510
  199DOPC  C31124738   5.350   1.415   4.177 -0.0796  0.3933  0.0786
  199DOPC  H11X24739   5.411   1.362   4.253 -0.5236 -1.7341 -0.9674
  199DOPC  H11Y24740   5.243   1.401   4.203 -0.0412  0.9460  0.5550
  199DOPC  C31224741   5.392   1.561   4.190  0.0065  0.3909 -0.4164
  199DOPC  H12X24742   5.315   1.626   4.143  0.2204  0.3499 -0.8363
  199DOPC  H12Y24743   5.483   1.587   4.132  0.3814 -0.7650 -0.3729
  199DOPC  C31324744   5.423   1.590   4.334  0.3510 -0.2314 -0.2791
  199DOPC  H13X24745   5.348   1.535   4.394  0.2283 -0.0838 -0.2978
  199DOPC  H13Y24746   5.526   1.553   4.358  1.5235  1.4157 -2.4237
  199DOPC  C31424747   5.408   1.742   4.350  0.9081  0.5248 -0.4737
  199DOPC  H14X24748   5.507   1.791   4.336  0.7379  1.3848  1.0447
  199DOPC  H14Y24749   5.319   1.771   4.290 -1.6692 -3.5617  0.9528
  199DOPC  C31524750   5.362   1.767   4.495  0.3340 -0.1644 -0.2873
  199DOPC  H15X24751   5.438   1.715   4.555 -0.4355  0.2123  1.0560
  199DOPC  H15Y24752   5.260   1.726   4.511  0.2465  0.4786  0.9435
  199DOPC  C31624753   5.349   1.916   4.524  0.4802 -0.4537  0.2542
  199DOPC  H16X24754   5.318   1.931   4.629  1.3969 -1.0141  0.6120
  199DOPC  H16Y24755   5.450   1.961   4.523  1.6246 -2.7643  2.0953
  199DOPC  C31724756   5.255   1.989   4.421 -0.1002 -0.6408 -0.1876
  199DOPC  H17X24757   5.300   2.008   4.321 -0.7288 -0.7524 -0.4937
  199DOPC  H17Y24758   5.157   1.940   4.405 -0.4276  0.0019 -0.1732
  199DOPC  C31824759   5.228   2.125   4.479 -0.2495  0.3284  0.3677
  199DOPC  H18X24760   5.189   2.127   4.583 -0.5323 -1.7247  0.3419
  199DOPC  H18Y24761   5.327   2.176   4.478  0.7663 -1.5312  0.8378
  199DOPC  H18Z24762   5.161   2.178   4.408  0.6929 -0.2596 -1.0053
  200DOPC     N24763   1.270   6.190   2.461 -0.4173 -0.2614 -0.4845
  200DOPC   C1224764   1.143   6.129   2.523 -0.0364 -0.4940 -0.7861
  200DOPC  H12A24765   1.152   6.023   2.539  1.6794 -0.2253  0.3039
  200DOPC  H12B24766   1.076   6.152   2.442  0.7693 -1.1529 -1.6707
  200DOPC   C1324767   1.311   6.118   2.335  0.1441 -0.6795 -0.2860
  200DOPC  H13A24768   1.400   6.156   2.288  1.4095 -1.6740  1.2270
  200DOPC  H13B24769   1.336   6.014   2.344  2.1224 -0.1545  0.9422
  200DOPC  H13C24770   1.228   6.122   2.266 -0.5002  0.1414  0.5112
  200DOPC   C1424771   1.378   6.169   2.560  0.1566 -0.0362  0.3489
  200DOPC  H14A24772   1.340   6.199   2.656  0.0381 -0.1734  0.3448
  200DOPC  H14B24773   1.406   6.065   2.563 -0.3390 -0.1544  0.9902
  200DOPC  H14C24774   1.465   6.228   2.534  0.0572 -0.0183  0.0489
  200DOPC   C1524775   1.257   6.335   2.429  0.0558 -0.3711  0.5917
  200DOPC  H15A24776   1.353   6.376   2.403  0.2549  0.2698  2.2187
  200DOPC  H15B24777   1.214   6.386   2.514 -0.9901 -0.9368  0.4365
  200DOPC  H15C24778   1.188   6.347   2.347  0.1776  1.8295  0.7695
  200DOPC   C1124779   1.089   6.185   2.655  0.3378 -0.4759 -0.8015
  200DOPC  H11A24780   0.997   6.125   2.675  0.4963 -0.4107  0.1662
  200DOPC  H11B24781   1.152   6.165   2.745 -2.7285 -0.3661  1.5534
  200DOPC     P24782   1.097   6.428   2.759 -0.6069 -0.0709 -0.2783
  200DOPC   O1324783   0.993   6.536   2.756 -0.3917 -0.2201 -0.5079
  200DOPC   O1424784   1.239   6.468   2.743  0.2326 -0.1747  0.6297
  200DOPC   O1224785   1.059   6.316   2.652 -0.3634 -1.0771  0.2974
  200DOPC   O1124786   1.092   6.347   2.902  0.2014 -0.2828  0.0081
  200DOPC    C124787   0.979   6.281   2.950 -0.7451 -0.5844 -0.0828
  200DOPC    HA24788   1.022   6.180   2.967  0.8921 -0.1886 -1.5234
  200DOPC    HB24789   0.898   6.275   2.875  0.3932  0.8951 -1.5070
  200DOPC    C224790   0.941   6.340   3.089  0.2651  0.4638  0.2821
  200DOPC    HS24791   0.892   6.438   3.071 -2.5325 -1.1912 -2.1660
  200DOPC   O2124792   1.058   6.338   3.174  0.3017 -0.2951  0.7087
  200DOPC   C2124793   1.058   6.442   3.255 -0.3811  0.4634  0.3378
  200DOPC   O2224794   0.982   6.534   3.264  0.0956  0.2493  0.2470
  200DOPC   C2224795   1.196   6.433   3.336  0.6022  0.9475  0.3296
  200DOPC   H2R24796   1.275   6.471   3.268  0.8446 -0.0827  0.0166
  200DOPC   H2S24797   1.224   6.326   3.347 -0.8373  0.6854  1.7664
  200DOPC    C324798   0.831   6.254   3.154  0.2689 -0.3580 -0.2520
  200DOPC    HX24799   0.876   6.153   3.170 -2.1612 -1.7941 -1.7607
  200DOPC    HY24800   0.752   6.241   3.077  0.1161  0.8868 -0.3253
  200DOPC   O3124801   0.778   6.300   3.279 -1.1446 -0.0562 -0.3176
  200DOPC   C3124802   0.704   6.412   3.268  0.9132  0.8852  0.2553
  200DOPC   O3224803   0.681   6.470   3.162 -0.4349  0.5123  0.0434
  200DOPC   C3224804   0.657   6.449   3.412 -0.3445 -0.0549  0.7737
  200DOPC   H2X24805   0.552   6.419   3.432  0.4726 -4.9585 -0.8129
  200DOPC   H2Y24806   0.717   6.382   3.477 -1.1036 -1.0248  0.4955
  200DOPC   C2324807   1.199   6.496   3.474  0.4879 -0.5632  0.9322
  200DOPC   H3R24808   1.180   6.604   3.455  0.3110 -0.4679  1.6171
  200DOPC   H3S24809   1.300   6.501   3.519  1.0651 -0.1040 -0.3608
  200DOPC   C2424810   1.087   6.450   3.563 -0.2105  0.0381 -0.1390
  200DOPC   H4R24811   1.103   6.341   3.576 -3.7839 -0.9779 -2.8077
  200DOPC   H4S24812   0.984   6.456   3.521 -2.2297 -0.7996  4.1921
  200DOPC   C2524813   1.088   6.518   3.702 -0.7454  0.5485  0.6343
  200DOPC   H5R24814   1.053   6.623   3.709 -0.3409  0.5939  2.4885
  200DOPC   H5S24815   1.196   6.514   3.730 -0.8811  0.9451  1.2184
  200DOPC   C2624816   0.994   6.457   3.802 -0.4508 -0.6051 -0.4972
  200DOPC   H6R24817   1.014   6.349   3.822  2.6167 -0.0417  0.0226
  200DOPC   H6S24818   0.892   6.473   3.763 -0.6107 -0.7290 -0.1336
  200DOPC   C2724819   0.988   6.521   3.940  0.2249 -0.5256 -0.9705
  200DOPC   H7R24820   0.921   6.459   4.003  0.8210  0.4507  0.6886
  200DOPC   H7S24821   0.965   6.630   3.935 -1.7400 -0.8522  0.1495
  200DOPC   C2824822   1.125   6.528   4.008  0.3152 -0.1938 -0.0099
  200DOPC   H8R24823   1.171   6.609   3.947 -3.0760 -0.6512 -3.5745
  200DOPC   H8S24824   1.175   6.430   3.994  1.8205  0.3495  1.3560
  200DOPC   C2924825   1.130   6.561   4.158  0.3316  0.0480  0.3355
  200DOPC   H9R24826   1.048   6.511   4.211 -0.8226  0.2460 -1.1921
  200DOPC  C21024827   1.210   6.645   4.226 -0.1990 -0.3180 -0.2150
  200DOPC  H10R24828   1.199   6.654   4.335 -1.6505 -0.0421 -0.3659
  200DOPC  C21124829   1.326   6.725   4.175  0.0452  0.2577 -0.6724
  200DOPC  H11R24830   1.337   6.722   4.065 -3.1905 -1.1896 -1.0822
  200DOPC  H11S24831   1.416   6.669   4.208  0.4050  1.4122  0.3994
  200DOPC  C21224832   1.324   6.868   4.217  0.4150 -0.1597 -0.4535
  200DOPC  H12R24833   1.339   6.892   4.324 -3.4163 -1.0070  0.4033
  200DOPC  H12S24834   1.229   6.920   4.191  0.7628  2.0179  2.1777
  200DOPC  C21324835   1.425   6.948   4.146 -0.2528  0.1073 -0.0418
  200DOPC  H13R24836   1.404   6.941   4.037 -0.2847  0.6156 -0.0695
  200DOPC  H13S24837   1.521   6.900   4.173  0.3848  1.2552 -0.1978
  200DOPC  C21424838   1.432   7.098   4.179  0.0129 -0.0192 -0.2645
  200DOPC  H14R24839   1.462   7.102   4.286 -1.0656 -1.3889  0.1137
  200DOPC  H14S24840   1.330   7.142   4.185  0.4133  0.8331  0.7219
  200DOPC  C21524841   1.518   7.180   4.085  0.1740 -0.2411 -0.3690
  200DOPC  H15R24842   1.618   7.136   4.067  1.1173  0.5866  2.4444
  200DOPC  H15S24843   1.540   7.277   4.133 -0.1048  0.1542 -1.0240
  200DOPC  C21624844   1.445   7.207   3.954 -0.1361 -0.5942 -0.7070
  200DOPC  H16R24845   1.342   7.243   3.974 -0.4470 -0.3046 -2.6101
  200DOPC  H16S24846   1.439   7.107   3.905 -1.6760 -1.3850  0.9543
  200DOPC  C21724847   1.506   7.320   3.860 -0.4831  0.6332 -0.6868
  200DOPC  H17R24848   1.616   7.310   3.845 -0.4214  0.0917  0.0474
  200DOPC  H17S24849   1.511   7.414   3.920 -1.3333 -0.1419  0.6501
  200DOPC  C21824850   1.437   7.323   3.729  0.3699 -0.1741 -0.3229
  200DOPC  H18R24851   1.471   7.400   3.656 -0.2260  1.4702  1.0892
  200DOPC  H18S24852   1.332   7.349   3.755  0.8856 -0.4160  2.2099
  200DOPC  H18T24853   1.429   7.222   3.683  0.5529  0.9727 -3.1055
  200DOPC   C3324854   0.676   6.595   3.448  0.9789 -0.8305 -0.1898
  200DOPC   H3X24855   0.621   6.661   3.378  1.8632 -1.5334 -1.6096
  200DOPC   H3Y24856   0.785   6.615   3.444  1.5206 -3.3692  0.0060
  200DOPC   C3424857   0.625   6.637   3.589  0.2197  0.6908 -0.3219
  200DOPC   H4X24858   0.687   6.576   3.657 -0.0797 -0.4440 -1.0467
  200DOPC   H4Y24859   0.521   6.603   3.607  0.5178  0.0457  0.1674
  200DOPC   C3524860   0.656   6.788   3.601  0.3743  0.0650 -0.4933
  200DOPC   H5X24861   0.601   6.847   3.525  0.0417  1.0004  0.4538
  200DOPC   H5Y24862   0.766   6.795   3.590  0.4064 -0.2157 -0.3812
  200DOPC   C3624863   0.625   6.841   3.745 -0.1461 -0.1315 -0.0620
  200DOPC   H6X24864   0.638   6.952   3.739  1.9506 -0.3683 -4.4223
  200DOPC   H6Y24865   0.519   6.823   3.771 -0.4504  0.7268 -0.6409
  200DOPC   C3724866   0.719   6.795   3.852 -0.2276  0.4378 -0.7194
  200DOPC   H7X24867   0.698   6.686   3.855 -1.0538  0.5778 -1.2046
  200DOPC   H7Y24868   0.823   6.815   3.818 -0.0356  3.4579  1.2494
  200DOPC   C3824869   0.689   6.869   3.985 -0.4765  0.7792  0.1973
  200DOPC   H8X24870   0.588   6.849   4.028 -1.1030  0.3973 -1.3848
  200DOPC   H8Y24871   0.698   6.979   3.976  0.2813  0.5431 -3.9591
  200DOPC   C3924872   0.781   6.822   4.096  0.5976  0.7874  0.7275
  200DOPC   H9X24873   0.887   6.845   4.076  1.1357 -2.8092 -1.3243
  200DOPC  C31024874   0.765   6.730   4.189  0.8302 -0.4804 -0.0950
  200DOPC  H10X24875   0.849   6.704   4.256 -0.1458 -1.3350  0.8371
  200DOPC  C31124876   0.637   6.659   4.225  0.7313  0.1524 -0.4026
  200DOPC  H11X24877   0.552   6.717   4.185  0.2566 -0.9909 -1.1056
  200DOPC  H11Y24878   0.629   6.683   4.333  0.4153  0.9596 -0.6030
  200DOPC  C31224879   0.621   6.507   4.195  0.5808  0.2197  0.3606
  200DOPC  H12X24880   0.531   6.468   4.246 -0.5100 -0.3760 -1.8831
  200DOPC  H12Y24881   0.713   6.452   4.225  0.7438 -0.4523 -1.2705
  200DOPC  C31324882   0.583   6.481   4.050  0.4814 -0.6859 -0.0332
  200DOPC  H13X24883   0.525   6.567   4.011  2.0072 -0.3409 -1.6712
  200DOPC  H13Y24884   0.676   6.478   3.990 -0.1259  0.8912 -1.1013
  200DOPC  C31424885   0.493   6.360   4.033 -0.3020  0.1140 -0.1387
  200DOPC  H14X24886   0.526   6.279   4.101 -2.1981  1.5949  2.7671
  200DOPC  H14Y24887   0.394   6.390   4.074 -0.7246 -0.5666 -0.6436
  200DOPC  C31524888   0.459   6.320   3.888 -0.2176 -0.6428  0.5252
  200DOPC  H15X24889   0.389   6.400   3.856 -0.3291 -1.0742 -0.3359
  200DOPC  H15Y24890   0.396   6.229   3.886  1.0812 -1.5598  0.2053
  200DOPC  C31624891   0.582   6.296   3.801  0.2170 -0.4116 -0.7537
  200DOPC  H16X24892   0.559   6.281   3.693 -1.3885  1.3883 -0.7217
  200DOPC  H16Y24893   0.660   6.375   3.801 -1.4326  1.3299  0.8098
  200DOPC  C31724894   0.678   6.182   3.865 -0.0616  0.1850 -0.1227
  200DOPC  H17X24895   0.759   6.156   3.794  0.4627  2.0952 -0.2791
  200DOPC  H17Y24896   0.728   6.232   3.951 -1.2633 -0.9035  1.2767
  200DOPC  C31824897   0.611   6.058   3.923  0.3073 -0.0082 -0.6071
  200DOPC  H18X24898   0.544   6.016   3.845  1.4795 -2.2090 -0.5193
  200DOPC  H18Y24899   0.685   5.975   3.930  0.5555  0.2864  0.2821
  200DOPC  H18Z24900   0.556   6.072   4.018  0.7005 -3.3788  0.2554
  201SOD    SOD24901   7.227   6.602   8.139  0.5515 -0.0803  0.0357
  202SOD    SOD24902   6.075   0.973   2.316  0.0101  0.3042 -0.2065
  203SOD    SOD24903   2.049   6.968   6.931  0.7953 -0.0776  0.4503
  204SOD    SOD24904   1.379   7.385   0.917  0.2742  0.4784 -0.2103
  205SOD    SOD24905   6.234   0.678   8.436 -0.3473  0.1183  0.2300
  206SOD    SOD24906   0.085   3.969   2.358  0.3305  0.3389  0.0920
  207SOD    SOD24907   1.035   3.260   0.949 -0.2511  0.0483  0.3272
  208SOD    SOD24908   0.436   4.121   8.166 -0.4326 -0.1127 -0.2102
  209SOD    SOD24909   2.301   6.162   1.905  0.3914 -0.5738  0.0974
  210SOD    SOD24910   2.120   5.077   7.827 -0.1154  0.1632 -0.2746
  211SOD    SOD24911   3.356   1.404   7.288 -0.2701  0.0461 -0.0086
  212SOD    SOD24912   4.187   5.980   8.054  0.1780  0.1086  0.8862
  213SOD    SOD24913   4.257   5.192   1.487  0.1419 -0.0425  0.2058
  214SOD    SOD24914   2.369   6.247   7.028  0.4604  0.2124 -0.0839
  215SOD    SOD24915   6.920   4.027   7.828  0.2148 -0.3675 -0.1829
  216SOD    SOD24916   4.665   0.245   7.760 -0.0016  0.4612  0.2465
  217SOD    SOD24917   6.154   6.765   0.708  0.3595 -0.0380 -0.1356
  218SOD    SOD24918   7.676   2.628   9.103  0.7042  0.0045  0.3621
  219SOD    SOD24919   6.082   3.200   8.339  0.2700 -0.1355  0.2145
  220SOD    SOD24920   2.684   0.008   2.764  0.2363 -0.5603 -0.1354
  221SOD    SOD24921   2.110   1.843   1.671  0.0899  0.0755  0.1669
  222SOD    SOD24922   1.934   3.378   8.068 -0.2974 -0.1843 -0.0878
  223SOD    SOD24923   7.380   4.426   2.921 -0.1586 -0.3494 -0.2036
  224SOD    SOD24924   5.711   0.227   1.256 -0.5002  0.6511  0.3796
  225SOD    SOD24925   6.851   3.659   2.339 -0.1325 -0.1066 -0.3316
  226SOD    SOD24926   7.448   7.466   8.941  0.1794  0.0032  0.2455
  227CLA    CLA24927   2.031   7.059   1.374 -0.0226 -0.5117 -0.1235
  228CLA    CLA24928   7.356   4.691   0.809 -0.0892  0.1674 -0.2624
  229CLA    CLA24929   7.020   3.314   1.386  0.0259 -0.0967  0.1576
  230CLA    CLA24930   2.427   2.021   9.366  0.2651 -0.4947 -0.5876
  231CLA    CLA24931   2.796   2.013   8.629  0.0252  0.3220  0.0729
  232CLA    CLA24932   4.177   5.840   8.566 -0.0765 -0.2968  0.4253
  233CLA    CLA24933   6.089   2.400   8.960  0.2554 -0.0356 -0.5122
  234CLA    CLA24934   2.313   7.261   8.232  0.5324 -0.1215 -0.4592
  235CLA    CLA24935   1.568   4.985   0.949 -0.2467  0.0728  0.1125
  236CLA    CLA24936   4.408   4.372   7.836  0.0621  0.0244  0.1061
  237CLA    CLA24937   6.698   4.108   7.708 -0.1871  0.2695  0.1222
  238CLA    CLA24938   0.739   7.678   1.870 -0.2590  0.3622  0.0080
  239CLA    CLA24939   6.977   7.032   1.140 -0.0246 -0.1533 -0.0171
  240CLA    CLA24940   3.700   4.110   8.946 -0.0759 -0.4333  0.1092
  241CLA    CLA24941   4.074   3.573   2.286  0.3419  0.0429  0.1420
  242CLA    CLA24942   6.894   1.198   8.790 -0.3591  0.0418 -0.0736
  243CLA    CLA24943   1.258   2.637   0.718 -0.2194  0.0776 -0.3135
  244CLA    CLA24944   1.271   4.827   2.355 -0.3133 -0.5910  0.2824
  245CLA    CLA24945   4.219   2.226   2.290  0.1333  0.0595  0.3481
  246CLA    CLA24946   7.292   5.790   8.681 -0.3810 -0.3211 -0.0880
  247CLA    CLA24947   0.737   5.804   1.886  0.3281  0.3643  0.0198
  248CLA    CLA24948   4.358   6.045   0.792 -0.0838 -0.0456  0.0340
  249CLA    CLA24949   3.776   5.563   0.949  0.2581 -0.2387 -0.3434
  250CLA    CLA24950   5.042   3.137   8.478  0.1771 -0.1235  0.2563
  251CLA    CLA24951   3.603   1.131   8.388 -0.0671  0.0770  0.2434
  252CLA    CLA24952   5.161   7.380   2.483  0.0510 -0.5274  0.0759
  253TIP3   OH224953   1.866   0.373   6.986  0.7882 -0.1135 -0.0677
  253TIP3    H124954   1.825   0.394   6.902  1.0438  0.2082 -0.1145
  253TIP3    H224955   1.954   0.409   6.979  1.0294 -0.6773  0.0923
  254TIP3   OH224956   7.640   7.200   8.220 -0.4681 -0.3528 -0.8047
  254TIP3    H124957   7.653   7.288   8.185  0.2312  0.1512  0.6519
  254TIP3    H224958   7.682   7.143   8.155 -0.3454  0.4360 -1.4391
  255TIP3   OH224959   2.897   1.896   7.478  0.5257 -0.5226  0.3394
  255TIP3    H124960   2.881   1.988   7.458  1.4032 -0.5456 -0.5523
  255TIP3    H224961   2.908   1.894   7.573  0.5289  0.3021  0.3648
  256TIP3   OH224962   2.797   3.160   8.564 -0.5632 -0.4244  0.0312
  256TIP3    H124963   2.853   3.132   8.637  0.2044  0.2186 -0.2908
  256TIP3    H224964   2.859   3.192   8.498 -1.3559  1.5837  0.1969
  257TIP3   OH224965   6.387   4.593   8.855 -0.0459 -0.0021  0.0887
  257TIP3    H124966   6.362   4.610   8.945 -0.1528  1.4941 -0.1940
  257TIP3    H224967   6.446   4.665   8.832  0.4297 -0.6590 -0.8681
  258TIP3   OH224968   3.673   0.248   7.124 -0.0994 -0.1213 -0.2510
  258TIP3    H124969   3.596   0.257   7.179 -0.5377 -0.1787 -0.8521
  258TIP3    H224970   3.719   0.172   7.161 -0.3321 -0.0948  0.1004
  259TIP3   OH224971   0.185   3.336   9.189  0.1292 -0.4726  0.4143
  259TIP3    H124972   0.108   3.287   9.160 -0.4909 -0.4723  1.9495
  259TIP3    H224973   0.158   3.428   9.186  1.3475 -0.0985 -2.6281
  260TIP3   OH224974   4.705   3.135   7.136 -0.0300 -0.4295  0.2789
  260TIP3    H124975   4.758   3.184   7.073 -0.4669  0.4038  0.5371
  260TIP3    H224976   4.715   3.044   7.110  1.2813 -0.2736  0.1370
  261TIP3   OH224977   5.779   5.760   7.883 -0.3061  0.0261 -0.5740
  261TIP3    H124978   5.704   5.752   7.943 -0.8819  0.3553 -1.2366
  261TIP3    H224979   5.855   5.749   7.939 -0.8463 -0.1283  0.1498
  262TIP3   OH224980   0.491   4.567   8.214  0.4472 -0.0606  0.6136
  262TIP3    H124981   0.448   4.488   8.182  3.1472 -1.3103 -0.2832
  262TIP3    H224982   0.536   4.540   8.294 -0.5928  1.2622  1.6945
  263TIP3   OH224983   5.307   2.235   8.644  0.3852 -0.4212  0.5179
  263TIP3    H124984   5.400   2.244   8.620 -0.1035  1.1681 -0.9889
  263TIP3    H224985   5.300   2.276   8.730  1.0765 -0.5166  0.6244
  264TIP3   OH224986   2.699   5.621   8.127 -0.0030 -0.1967  0.4783
  264TIP3    H124987   2.609   5.594   8.111  0.0492 -0.8215  1.2152
  264TIP3    H224988   2.693   5.688   8.195  0.0235  0.4122 -0.1017
  265TIP3   OH224989   6.761   5.186   8.110  0.0279  0.0489 -0.2059
  265TIP3    H124990   6.692   5.205   8.046 -0.7347  0.3745  0.6825
  265TIP3    H224991   6.738   5.239   8.186 -0.1589 -1.7074  1.0338
  266TIP3   OH224992   2.173   5.313   7.022 -0.5392  0.0179 -0.6772
  266TIP3    H124993   2.246   5.354   7.068 -0.0747 -0.7065 -0.7582
  266TIP3    H224994   2.180   5.344   6.932 -1.0848  0.9468 -0.4127
  267TIP3   OH224995   6.935   0.717   7.482 -0.3931 -0.8113  0.6881
  267TIP3    H124996   6.996   0.679   7.546 -0.0205 -0.1679  0.7176
  267TIP3    H224997   6.887   0.783   7.531  1.3749  1.2282 -0.1536
  268TIP3   OH224998   5.325   1.711   7.629 -0.0555 -0.2424 -0.1158
  268TIP3    H124999   5.345   1.648   7.560  1.2106 -0.2710  0.2458
  268TIP3    H225000   5.257   1.669   7.681 -1.2381 -0.0935 -1.4939
  269TIP3   OH225001   5.728   5.803   9.376  0.3357 -0.0017 -0.1970
  269TIP3    H125002   5.641   5.808   9.415  0.1206  0.1443 -0.6841
  269TIP3    H225003   5.765   5.890   9.389  0.9399 -0.4435  1.1953
  270TIP3   OH225004   2.184   3.907   8.438 -0.1251  0.2705  0.0155
  270TIP3    H125005   2.119   3.868   8.497 -0.0058  0.8066  0.5096
  270TIP3    H225006   2.195   3.842   8.368 -1.6984  0.4399 -0.4517
  271TIP3   OH225007   7.401   5.322   6.982  0.2743 -0.3163 -0.7262
  271TIP3    H125008   7.470   5.343   6.920 -1.2936  0.6362 -2.2331
  271TIP3    H225009   7.331   5.385   6.963 -0.6566 -0.6075  1.3786
  272TIP3   OH225010   2.327   0.762   8.773 -0.1642 -0.1803 -0.0156
  272TIP3    H125011   2.239   0.788   8.799  0.3511  0.2777  1.4187
  272TIP3    H225012   2.317   0.674   8.736 -1.2642  0.0334 -0.2486
  273TIP3   OH225013   7.237   2.149   9.411 -0.1314  0.3355 -0.0802
  273TIP3    H125014   7.171   2.158   9.343 -0.7343  1.1806  0.5889
  273TIP3    H225015   7.190   2.109   9.485  0.6016 -0.9262 -0.2639
  274TIP3   OH225016   4.002   4.111   8.055  0.0185  0.5712 -0.4022
  274TIP3    H125017   3.987   4.194   8.100  0.0274 -0.0361  0.7778
  274TIP3    H225018   4.066   4.066   8.110 -1.7867 -1.2366  0.3638
  275TIP3   OH225019   6.391   1.120   9.636  0.5254 -0.1677 -0.4373
  275TIP3    H125020   6.399   1.207   9.597  1.7215  0.0276  0.1875
  275TIP3    H225021   6.372   1.137   9.728 -0.2276 -0.5959 -0.5043
  276TIP3   OH225022   3.187   5.898   7.676 -0.2915  0.3133 -0.1721
  276TIP3    H125023   3.240   5.871   7.751 -1.1920 -0.3929  0.2346
  276TIP3    H225024   3.097   5.898   7.709 -0.7529 -0.3853 -1.3436
  277TIP3   OH225025   0.705   2.356   7.341  0.3729  0.1047 -0.1508
  277TIP3    H125026   0.666   2.441   7.360  0.7396  0.0047  1.1946
  277TIP3    H225027   0.675   2.300   7.413  1.5520 -0.4277 -0.0552
  278TIP3   OH225028   0.209   4.442   8.930 -0.3106 -0.2207 -0.0128
  278TIP3    H125029   0.153   4.442   9.008 -1.9723  1.9368 -1.0649
  278TIP3    H225030   0.271   4.513   8.945  0.7063 -1.1337  0.1838
  279TIP3   OH225031   5.317   1.022   9.370  0.1523  0.7572  0.1483
  279TIP3    H125032   5.280   0.934   9.371 -0.8263  1.1424 -1.0541
  279TIP3    H225033   5.245   1.078   9.397  0.2656  1.3639 -0.7848
  280TIP3   OH225034   3.464   3.068   8.026  0.3017  0.0917 -0.0052
  280TIP3    H125035   3.377   3.032   8.009 -0.2940  1.6387 -0.4935
  280TIP3    H225036   3.524   3.004   7.990 -0.7100 -0.2618 -1.1512
  281TIP3   OH225037   1.282   6.271   8.980  0.6663  0.1135  0.2046
  281TIP3    H125038   1.264   6.317   8.899  1.4421 -2.0805 -1.3153
  281TIP3    H225039   1.312   6.184   8.952  0.6691 -0.8269  2.8461
  282TIP3   OH225040   1.394   2.085   6.828  0.4620  0.1737  0.0249
  282TIP3    H125041   1.442   2.084   6.745  1.1383 -1.4440  0.3994
  282TIP3    H225042   1.449   2.036   6.889 -2.4561 -3.8231 -0.0923
  283TIP3   OH225043   0.272   7.373   8.088 -0.1354  0.0526 -0.2093
  283TIP3    H125044   0.307   7.381   8.000 -1.1159 -0.9634 -0.7177
  283TIP3    H225045   0.177   7.380   8.077 -0.3506 -1.2176  0.5886
  284TIP3   OH225046   6.399   1.592   3.081 -0.1164 -0.4659 -0.4035
  284TIP3    H125047   6.467   1.527   3.097 -0.7336 -0.9743  0.2347
  284TIP3    H225048   6.447   1.673   3.063  0.6757 -0.5525  1.0962
  285TIP3   OH225049   2.160   3.681   1.537  0.3794  0.3171  0.3664
  285TIP3    H125050   2.162   3.612   1.603 -0.4804 -1.5832 -1.4729
  285TIP3    H225051   2.067   3.696   1.519  0.5621 -0.6093 -1.7068
  286TIP3   OH225052   2.917   2.545   1.453 -0.3161  0.0522  0.1853
  286TIP3    H125053   2.879   2.490   1.385  0.3471  2.2119 -2.0942
  286TIP3    H225054   3.003   2.506   1.470 -0.0992  0.0014 -0.9490
  287TIP3   OH225055   1.849   0.222   0.692 -0.0499  0.0689 -0.1237
  287TIP3    H125056   1.758   0.217   0.719 -0.1384 -0.6722 -0.5376
  287TIP3    H225057   1.898   0.232   0.774 -0.6289  3.0876 -0.0263
  288TIP3   OH225058   7.439   1.950   2.705 -0.0557 -0.2089  0.2529
  288TIP3    H125059   7.364   1.995   2.666  0.0168 -0.8156 -0.6206
  288TIP3    H225060   7.451   1.873   2.651  1.9537  0.4872 -0.3725
  289TIP3   OH225061   6.207   0.504   0.592 -0.2365  0.2380 -0.0845
  289TIP3    H125062   6.122   0.511   0.549 -0.7208  1.0706  0.9465
  289TIP3    H225063   6.226   0.593   0.622  0.8859  0.0142 -0.0933
  290TIP3   OH225064   0.490   0.766   1.349 -0.0228 -0.1331 -0.1377
  290TIP3    H125065   0.512   0.756   1.441  0.6683  0.9899 -0.1563
  290TIP3    H225066   0.538   0.844   1.321  1.2339 -1.4585 -1.9299
  291TIP3   OH225067   0.642   5.431   3.302 -0.2311 -0.0279 -0.0008
  291TIP3    H125068   0.725   5.444   3.256 -0.4819 -1.1165 -0.7884
  291TIP3    H225069   0.663   5.368   3.371  0.2163  1.8284  1.6468
  292TIP3   OH225070   5.926   4.215   1.529  0.0411  0.3105  0.4304
  292TIP3    H125071   5.946   4.243   1.619 -0.4983  0.7878  0.4047
  292TIP3    H225072   5.993   4.257   1.476 -0.5596  1.3061  0.4337
  293TIP3   OH225073   6.043   2.730   2.057 -0.1245  0.0077  0.1689
  293TIP3    H125074   6.044   2.709   2.151  0.0452 -1.2414 -0.0965
  293TIP3    H225075   6.065   2.823   2.054  1.2482 -0.2380  1.2962
  294TIP3   OH225076   3.406   2.896   1.518  0.3299 -0.5591 -0.4276
  294TIP3    H125077   3.325   2.846   1.521  0.3238 -0.5687 -0.7998
  294TIP3    H225078   3.388   2.975   1.569 -0.0513 -0.3566 -0.8767
  295TIP3   OH225079   5.349   3.523   1.786  0.1082  0.1849 -0.3723
  295TIP3    H125080   5.318   3.555   1.701  1.6483  2.9804 -0.0002
  295TIP3    H225081   5.442   3.505   1.773  0.1406 -0.3262  0.4868
  296TIP3   OH225082   7.117   3.679   3.531  0.0379  0.3675  0.4788
  296TIP3    H125083   7.144   3.600   3.486 -1.8973 -0.1923  0.2100
  296TIP3    H225084   7.144   3.750   3.473  1.1981 -0.1085  0.4108
  297TIP3   OH225085   3.046   3.970   1.764 -0.0882 -0.5575 -0.0471
  297TIP3    H125086   3.011   3.898   1.712  1.2717 -0.0210 -1.8188
  297TIP3    H225087   3.049   3.936   1.853  0.2685 -2.6119 -0.7860
  298TIP3   OH225088   4.279   7.143   1.813 -0.0928  0.1724  0.1112
  298TIP3    H125089   4.369   7.175   1.808 -0.4451  1.1972 -0.0466
  298TIP3    H225090   4.282   7.071   1.876  0.6983  0.7043  0.6993
  299TIP3   OH225091   6.387   7.087   3.091  0.2145  0.1325 -0.1485
  299TIP3    H125092   6.291   7.085   3.090  0.2053 -0.4831  0.7665
  299TIP3    H225093   6.408   7.159   3.150  0.2906 -0.5927  0.7354
  300TIP3   OH225094   4.815   4.514   0.673 -0.2784 -0.2535 -0.0382
  300TIP3    H125095   4.767   4.449   0.621 -1.3710 -0.8573  1.6653
  300TIP3    H225096   4.763   4.594   0.664  0.6153  0.2081 -1.4481
  301TIP3   OH225097   0.639   6.943   2.670 -0.0247 -0.2797 -1.0270
  301TIP3    H125098   0.551   6.929   2.704 -0.0541 -0.5214 -1.1913
  301TIP3    H225099   0.690   6.870   2.706  0.0454 -0.2895 -1.1455
  302TIP3   OH225100   0.998   2.541   2.208 -0.6732 -0.4612 -0.2569
  302TIP3    H125101   1.065   2.500   2.264 -1.2866 -0.0113  0.8536
  302TIP3    H225102   0.948   2.596   2.269 -1.1716  0.2933 -1.3303
  303TIP3   OH225103   4.899   1.205   1.892  0.0206 -0.1480  0.0530
  303TIP3    H125104   4.818   1.175   1.850  0.2862 -1.6022  0.5071
  303TIP3    H225105   4.873   1.229   1.981  0.1195 -0.9308  0.3043
  304TIP3   OH225106   3.937   1.237   1.072  0.1027 -0.3915 -0.5629
  304TIP3    H125107   3.958   1.330   1.078 -1.8044  0.0506 -0.0517
  304TIP3    H225108   3.957   1.202   1.158 -0.3674 -0.1675 -0.3586
  305TIP3   OH225109   4.988   6.295   1.987 -0.2222 -0.5116  0.3431
  305TIP3    H125110   5.066   6.267   2.034  0.4129  0.6398 -0.0132
  305TIP3    H225111   5.000   6.262   1.898  0.3851  0.6131  0.0014
  306TIP3   OH225112   5.011   4.945   1.503  0.3151 -0.2527  0.1048
  306TIP3    H125113   5.036   5.020   1.556  1.5408  0.5890 -1.5507
  306TIP3    H225114   4.944   4.979   1.443  0.5143 -0.5957 -0.3229
  307TIP3   OH225115   0.043   7.164   1.949 -0.0767  0.0828 -0.1005
  307TIP3    H125116   0.039   7.078   1.906 -2.3182 -0.3366  0.8015
  307TIP3    H225117   0.127   7.164   1.995  0.3146 -1.2979 -0.7661
  308TIP3   OH225118   2.930   1.915   2.713 -0.2635  0.3643  0.4717
  308TIP3    H125119   2.998   1.878   2.769  0.7461  1.8385  0.2956
  308TIP3    H225120   2.875   1.966   2.773 -0.2876  0.4263  0.3970
  309TIP3   OH225121   6.494   4.572   1.494 -0.5295 -0.1396  0.5976
  309TIP3    H125122   6.529   4.538   1.576 -1.2033  2.4226  2.0609
  309TIP3    H225123   6.400   4.554   1.498 -0.5920  0.1495  0.4706
  310TIP3   OH225124   2.238   5.091   1.412  0.3020  0.0720 -0.0229
  310TIP3    H125125   2.230   5.070   1.319 -1.3479  0.7541 -0.0671
  310TIP3    H225126   2.195   5.017   1.457  1.0988 -0.2599  0.2195
  311TIP3   OH225127   3.016   4.426   0.656  0.1978 -0.4925  0.1035
  311TIP3    H125128   2.977   4.387   0.578  0.6357 -0.6165 -0.0533
  311TIP3    H225129   2.956   4.402   0.727  0.7415 -1.9495  0.1071
  312TIP3   OH225130   2.656   5.476   0.977  1.1604 -0.0742  0.2314
  312TIP3    H125131   2.634   5.568   0.961  3.0183 -0.1047 -3.3640
  312TIP3    H225132   2.722   5.479   1.046  2.8486  1.5617 -1.3632
  313TIP3   OH225133   3.468   1.913   3.004  0.0534  0.0003 -0.0863
  313TIP3    H125134   3.446   1.950   3.090  1.8554  1.2321 -0.0894
  313TIP3    H225135   3.462   1.988   2.944  1.7812 -0.1252 -0.4628
  314TIP3   OH225136   5.028   4.151   0.815 -0.0009  0.2404  0.3368
  314TIP3    H125137   5.001   4.211   0.884 -0.4529  0.8268 -0.3441
  314TIP3    H225138   5.099   4.100   0.854 -0.7952 -0.0089  1.5160
  315TIP3   OH225139   7.477   3.302   2.465 -0.0955  0.2580  0.3501
  315TIP3    H125140   7.510   3.330   2.550  1.0740  0.0779 -0.0271
  315TIP3    H225141   7.522   3.219   2.448 -4.1505 -2.5678  1.9044
  316TIP3   OH225142   1.141   4.823   3.374  0.3401  0.0929  0.0183
  316TIP3    H125143   1.080   4.764   3.420  0.4057 -1.8473 -2.1602
  316TIP3    H225144   1.145   4.901   3.429 -0.9427 -1.3273  2.3176
  317TIP3   OH225145   0.951   3.411   0.799 -0.2825 -0.1387 -0.0124
  317TIP3    H125146   0.871   3.381   0.756 -1.5080 -0.1480  2.1772
  317TIP3    H225147   0.952   3.505   0.784  0.4130 -0.3725 -1.7432
  318TIP3   OH225148   4.486   2.841   0.877 -0.6685 -0.0965  0.1763
  318TIP3    H125149   4.495   2.747   0.868  1.3311  0.1019 -0.3185
  318TIP3    H225150   4.413   2.864   0.820  0.1004 -1.1099 -1.2754
  319TIP3   OH225151   1.701   7.476   2.005 -0.1327  0.5648 -0.1730
  319TIP3    H125152   1.668   7.563   2.030 -0.6446  0.1608  0.5981
  319TIP3    H225153   1.748   7.491   1.923  0.9642  1.8102  0.6518
  320TIP3   OH225154   3.918   2.421   0.962  0.0960 -0.3804  0.3436
  320TIP3    H125155   3.855   2.358   0.999 -0.8775 -1.2530 -2.5262
  320TIP3    H225156   3.928   2.393   0.871 -0.1852  3.4616 -1.0320
  321TIP3   OH225157   3.746   5.321   2.972  0.0316  0.2251 -0.7760
  321TIP3    H125158   3.676   5.284   3.026  2.1066 -0.0739  1.9196
  321TIP3    H225159   3.756   5.259   2.900 -0.8348 -1.0391  0.1466
  322TIP3   OH225160   3.487   6.289   2.223  0.1433  0.0224 -0.3392
  322TIP3    H125161   3.458   6.379   2.236 -1.5269 -0.6510  0.8885
  322TIP3    H225162   3.467   6.271   2.131  1.2230  1.1136 -0.8214
  323TIP3   OH225163   1.023   1.344   9.480 -0.3726  0.8939 -0.2631
  323TIP3    H125164   1.094   1.390   9.523 -1.5341  0.7980  1.9133
  323TIP3    H225165   1.052   1.253   9.477 -1.1618  0.4339  2.6271
  324TIP3   OH225166   2.529   0.816   9.468 -0.1728  0.2958  0.0172
  324TIP3    H125167   2.593   0.753   9.500  0.2673  1.2281  1.0413
  324TIP3    H225168   2.581   0.892   9.443 -0.7518  0.5161 -0.5291
  325TIP3   OH225169   7.315   4.884   8.174 -0.2512 -0.4833 -0.3725
  325TIP3    H125170   7.284   4.919   8.257 -0.2028  0.4117 -0.7218
  325TIP3    H225171   7.408   4.909   8.171 -0.3396 -0.2094 -0.8513
  326TIP3   OH225172   1.515   6.177   9.213  0.1901 -0.2878  0.4910
  326TIP3    H125173   1.500   6.109   9.147 -0.7002  0.3369  0.0353
  326TIP3    H225174   1.590   6.226   9.179 -1.0820  0.8578 -0.7633
  327TIP3   OH225175   4.740   7.370   6.824 -0.1971 -0.2042  0.8324
  327TIP3    H125176   4.742   7.443   6.762 -0.8498 -0.2894  0.7029
  327TIP3    H225177   4.749   7.411   6.910  0.6695 -0.0822  0.6970
  328TIP3   OH225178   7.200   1.020   7.797 -0.5569 -0.0227  0.4595
  328TIP3    H125179   7.153   0.965   7.860 -1.2298 -1.9912 -1.6728
  328TIP3    H225180   7.149   1.102   7.795 -1.2192 -0.3809  1.5248
  329TIP3   OH225181   6.940   6.011   8.279 -0.0865  0.2638  0.8317
  329TIP3    H125182   7.027   6.000   8.318  0.6778 -0.3056 -0.9053
  329TIP3    H225183   6.893   5.931   8.304  0.3995 -0.1027  0.6182
  330TIP3   OH225184   1.862   6.764   9.286  0.2622 -0.0166  0.1250
  330TIP3    H125185   1.948   6.727   9.304 -0.3296 -0.7314  1.6942
  330TIP3    H225186   1.810   6.690   9.255 -0.7341 -0.4918  2.6249
  331TIP3   OH225187   4.719   5.595   7.660 -0.0775  0.1932 -0.2051
  331TIP3    H125188   4.699   5.655   7.732  0.7584  0.5794 -0.2823
  331TIP3    H225189   4.779   5.531   7.698  0.2819  0.3343 -0.5287
  332TIP3   OH225190   0.273   1.746   7.931  0.7362 -0.1182 -0.1535
  332TIP3    H125191   0.203   1.685   7.952  1.3194 -0.5226  0.6819
  332TIP3    H225192   0.334   1.694   7.877  1.1205 -0.2144  0.3686
  333TIP3   OH225193   4.418   3.890   6.985  0.5195  0.6415 -0.1354
  333TIP3    H125194   4.386   3.842   6.909 -0.5637  1.6733 -0.3692
  333TIP3    H225195   4.415   3.982   6.958  1.7531  0.9084  0.5757
  334TIP3   OH225196   7.433   5.955   8.922 -0.0519  0.1398  0.3012
  334TIP3    H125197   7.355   6.007   8.941  0.1231 -0.0831  1.7579
  334TIP3    H225198   7.404   5.887   8.861 -0.4114  1.5609 -1.1711
  335TIP3   OH225199   0.247   0.455   7.076 -0.5544  0.2264 -0.0495
  335TIP3    H125200   0.180   0.512   7.037  0.4104  1.6172  0.2304
  335TIP3    H225201   0.198   0.388   7.123 -1.7442 -0.0505 -1.5821
  336TIP3   OH225202   6.164   2.251   6.972 -0.0616 -0.1522 -0.5019
  336TIP3    H125203   6.090   2.312   6.981  0.2443  0.2301 -0.5519
  336TIP3    H225204   6.136   2.190   6.904 -0.7603 -0.6505  0.2260
  337TIP3   OH225205   4.448   5.979   8.626 -0.0862 -0.1462  0.2866
  337TIP3    H125206   4.358   5.952   8.643 -0.3179 -0.7177 -1.6421
  337TIP3    H225207   4.501   5.915   8.674 -0.6787  0.2398  1.4981
  338TIP3   OH225208   0.123   7.651   7.666 -0.1216 -0.2635  0.4093
  338TIP3    H125209   0.199   7.616   7.620 -0.8358 -0.7948 -0.3919
  338TIP3    H225210   0.160   7.714   7.728  0.8577  0.7598 -1.1235
  339TIP3   OH225211   2.145   0.354   7.855 -0.1835  0.2203  0.4500
  339TIP3    H125212   2.193   0.365   7.937  0.7802 -0.1382 -0.0427
  339TIP3    H225213   2.060   0.394   7.871  0.1107  0.4549  1.5114
  340TIP3   OH225214   1.930   0.685   9.079  0.1700 -0.0570 -0.4043
  340TIP3    H125215   1.876   0.699   9.001 -0.2345 -2.2365 -0.5886
  340TIP3    H225216   1.868   0.691   9.152  0.4930  1.6771 -0.2477
  341TIP3   OH225217   5.300   5.069   7.708  0.3153  0.0534 -0.2867
  341TIP3    H125218   5.253   5.025   7.636  0.7735 -0.8152 -0.0760
  341TIP3    H225219   5.301   5.161   7.683  0.7934 -0.2786 -1.5816
  342TIP3   OH225220   3.115   6.104   9.526  0.3049 -0.4547 -0.5394
  342TIP3    H125221   3.032   6.082   9.483 -1.4357  1.2675  1.6831
  342TIP3    H225222   3.133   6.193   9.499  0.7017 -0.3632  0.0124
  343TIP3   OH225223   1.245   0.437   8.059  0.2105  0.7504 -0.2563
  343TIP3    H125224   1.268   0.483   8.140  0.0111 -0.5599  0.5722
  343TIP3    H225225   1.326   0.439   8.007  0.6686  0.6762  0.4357
  344TIP3   OH225226   1.637   4.583   7.266  0.2916 -0.5678  0.0487
  344TIP3    H125227   1.574   4.624   7.207 -0.7846 -1.2075  0.7377
  344TIP3    H225228   1.722   4.595   7.222 -0.4420 -0.7837 -1.4922
  345TIP3   OH225229   3.882   7.015   6.680 -0.5799 -0.2351  0.3596
  345TIP3    H125230   3.861   6.938   6.626  0.8150  0.3334 -1.0784
  345TIP3    H225231   3.956   6.986   6.734 -2.1582 -0.8971  2.2915
  346TIP3   OH225232   0.690   2.763   7.932  0.1160  0.9482  0.7738
  346TIP3    H125233   0.766   2.712   7.959  1.1964  2.0866  0.0434
  346TIP3    H225234   0.676   2.739   7.840 -1.9069 -0.9756  1.5119
  347TIP3   OH225235   4.652   6.415   8.994 -0.4177  0.5889  0.2666
  347TIP3    H125236   4.720   6.353   8.967  0.5866  1.6292  0.3332
  347TIP3    H225237   4.602   6.431   8.914  0.4727  1.0911 -0.2096
  348TIP3   OH225238   2.706   1.829   8.934 -0.2179  0.4072  0.2549
  348TIP3    H125239   2.739   1.907   8.979  0.5311 -0.7718  1.8843
  348TIP3    H225240   2.705   1.853   8.842 -0.4250  2.4779  0.7441
  349TIP3   OH225241   4.266   7.361   7.951  0.3117 -0.0431  0.1435
  349TIP3    H125242   4.348   7.334   7.910  1.1936 -1.2949  2.5303
  349TIP3    H225243   4.217   7.280   7.963 -0.8688  0.5678 -0.3123
  350TIP3   OH225244   5.271   4.527   7.308 -0.0082  0.4925 -0.2007
  350TIP3    H125245   5.281   4.473   7.229  0.4272 -0.0442  0.2086
  350TIP3    H225246   5.197   4.584   7.289 -2.1953 -1.9584  0.3016
  351TIP3   OH225247   5.177   0.599   8.662  0.3322  0.3734  0.5259
  351TIP3    H125248   5.236   0.672   8.650  2.0633 -1.2494 -1.6646
  351TIP3    H225249   5.234   0.523   8.674 -1.3772 -0.7879  1.8980
  352TIP3   OH225250   7.212   1.713   9.197  0.6199 -0.0056  0.2083
  352TIP3    H125251   7.149   1.784   9.184  0.5215  0.2753  1.9213
  352TIP3    H225252   7.221   1.707   9.292  2.8365 -0.3516  0.0342
  353TIP3   OH225253   4.411   6.409   9.519  0.0599 -1.2479  0.0514
  353TIP3    H125254   4.446   6.323   9.539 -1.0228 -1.5171  0.8413
  353TIP3    H225255   4.317   6.403   9.537 -0.0430  0.0846  0.1300
  354TIP3   OH225256   1.190   3.001   9.093 -0.2154  0.1306  0.1549
  354TIP3    H125257   1.118   3.063   9.107 -0.3603  0.3856 -1.5182
  354TIP3    H225258   1.189   2.985   8.999  1.4790 -0.4205  0.2078
  355TIP3   OH225259   5.394   3.932   7.650  0.0172  0.2045 -0.2186
  355TIP3    H125260   5.392   3.947   7.556 -0.2545  0.8241 -0.1187
  355TIP3    H225261   5.374   3.839   7.660 -0.3428  0.2229 -0.7469
  356TIP3   OH225262   7.074   1.289   7.731 -0.0848  0.1270  0.3005
  356TIP3    H125263   7.047   1.308   7.821  1.9257  2.4501  0.5097
  356TIP3    H225264   6.995   1.306   7.679 -0.5147  1.5836  1.3630
  357TIP3   OH225265   3.764   2.464   8.018 -0.0805  0.3903  0.0319
  357TIP3    H125266   3.709   2.525   7.968 -0.1673  1.1891  1.0635
  357TIP3    H225267   3.773   2.505   8.104  0.4367 -0.7310  0.5359
  358TIP3   OH225268   0.642   3.630   7.318  0.4807  0.0593 -0.7824
  358TIP3    H125269   0.624   3.546   7.276  1.0760 -0.5908  0.2210
  358TIP3    H225270   0.718   3.665   7.271  0.4844 -0.1635 -0.9413
  359TIP3   OH225271   7.350   2.288   8.246  0.7178 -1.0401 -0.0078
  359TIP3    H125272   7.416   2.339   8.198  1.1556 -0.7112  0.9162
  359TIP3    H225273   7.388   2.201   8.254  0.1960 -1.3860 -1.1356
  360TIP3   OH225274   1.611   4.925   8.541 -0.0728 -0.2718  0.0166
  360TIP3    H125275   1.599   4.933   8.447 -0.0926  0.4013  0.0752
  360TIP3    H225276   1.614   5.015   8.573  2.5831 -0.4043  0.3408
  361TIP3   OH225277   0.206   5.721   8.541 -0.5961 -0.2393  0.1380
  361TIP3    H125278   0.135   5.688   8.595  0.2129 -1.5735  0.4385
  361TIP3    H225279   0.166   5.739   8.456 -1.7190  1.1357  0.9229
  362TIP3   OH225280   1.939   7.041   8.793  0.2293 -0.4605  0.3198
  362TIP3    H125281   1.884   7.051   8.870 -0.6373  0.4705 -0.3899
  362TIP3    H225282   2.029   7.048   8.825 -0.1407  1.3628  1.0667
  363TIP3   OH225283   5.089   5.215   7.434  0.0559 -0.9246 -0.0244
  363TIP3    H125284   5.165   5.164   7.461 -0.3022 -1.3790  0.1400
  363TIP3    H225285   5.101   5.229   7.341 -0.3206 -2.1652 -0.2802
  364TIP3   OH225286   2.532   1.723   9.370  0.1043  0.5416  0.3361
  364TIP3    H125287   2.490   1.803   9.341  0.7169  0.7856  0.1231
  364TIP3    H225288   2.617   1.750   9.405 -0.4440  0.2243  2.0359
  365TIP3   OH225289   5.067   0.605   8.394 -0.6287  0.2092  0.4640
  365TIP3    H125290   5.073   0.593   8.489 -0.2966 -0.6300  0.3440
  365TIP3    H225291   4.986   0.655   8.382 -1.6925 -1.2835  1.0686
  366TIP3   OH225292   5.007   3.212   6.791 -0.6434  0.5324  0.1209
  366TIP3    H125293   4.976   3.138   6.844  1.1748 -0.4546 -0.1021
  366TIP3    H225294   4.957   3.208   6.710  1.3398 -2.3095 -1.1264
  367TIP3   OH225295   1.231   7.411   7.339 -0.1812  0.1558  0.3286
  367TIP3    H125296   1.240   7.459   7.422 -0.8144  1.0865 -0.1305
  367TIP3    H225297   1.287   7.458   7.278 -0.7847  0.3072 -0.1162
  368TIP3   OH225298   4.469   6.660   7.103  0.3332 -0.5011  0.1234
  368TIP3    H125299   4.408   6.701   7.041  0.7591 -0.8542 -0.5407
  368TIP3    H225300   4.532   6.614   7.047  1.2422 -0.0975  0.7941
  369TIP3   OH225301   2.625   7.228   8.120 -0.0077 -0.1724  0.8566
  369TIP3    H125302   2.668   7.304   8.159  0.5796  0.1598 -0.3854
  369TIP3    H225303   2.532   7.241   8.136 -0.3663  2.7581 -2.4395
  370TIP3   OH225304   0.620   0.085   9.531  0.2261  0.4412 -0.0171
  370TIP3    H125305   0.545   0.145   9.522 -0.6420 -0.3110  1.6624
  370TIP3    H225306   0.695   0.142   9.545 -0.5557  1.1940  1.3794
  371TIP3   OH225307   0.050   1.648   7.050  0.4411 -0.5785 -0.0199
  371TIP3    H125308   0.101   1.707   6.994 -0.1451  1.2445  1.2590
  371TIP3    H225309   0.082   1.666   7.139 -0.5959 -1.3210  0.5195
  372TIP3   OH225310   6.472   7.213   8.491 -0.0391  0.0313  0.0478
  372TIP3    H125311   6.513   7.299   8.494 -1.1340  0.7109 -2.5227
  372TIP3    H225312   6.535   7.155   8.535  1.3471  1.8543  0.5858
  373TIP3   OH225313   5.097   3.126   7.157  0.2173  0.3903 -0.3839
  373TIP3    H125314   5.043   3.202   7.182 -3.3014 -1.9484 -0.1901
  373TIP3    H225315   5.120   3.085   7.240 -1.2631 -0.8186 -0.5262
  374TIP3   OH225316   5.258   5.951   9.134  0.0376  0.4566 -0.0409
  374TIP3    H125317   5.284   6.023   9.077  0.4213 -0.4415 -1.0299
  374TIP3    H225318   5.203   5.895   9.079 -1.2071  0.5720  1.0454
  375TIP3   OH225319   6.922   7.563   9.808  0.1302 -0.3739  0.5789
  375TIP3    H125320   6.826   7.561   9.809  0.0550  1.4625  1.5644
  375TIP3    H225321   6.945   7.551   9.716 -1.0624 -0.5541  0.2859
  376TIP3   OH225322   3.073   7.492   8.052 -0.2589 -0.5650  0.1905
  376TIP3    H125323   3.071   7.573   8.103  1.0985 -1.1466  1.2485
  376TIP3    H225324   3.083   7.520   7.961  2.0817  0.4843  0.7065
  377TIP3   OH225325   2.722   1.812   6.602  0.1375  0.1955 -0.4442
  377TIP3    H125326   2.778   1.884   6.633  1.0319 -0.3514 -0.7476
  377TIP3    H225327   2.778   1.762   6.542 -0.7060 -0.3318 -0.8154
  378TIP3   OH225328   6.834   2.169   6.909 -0.4324 -0.1294 -0.5654
  378TIP3    H125329   6.774   2.148   6.981  0.2731 -0.5924 -0.0969
  378TIP3    H225330   6.911   2.114   6.925 -0.2056 -0.1281 -1.6023
  379TIP3   OH225331   7.678   4.456   7.916  0.0363  0.0027 -0.3002
  379TIP3    H125332   7.696   4.510   7.839  2.6749  0.0641  0.2761
  379TIP3    H225333   7.697   4.514   7.990 -1.8512 -0.2589  0.4427
  380TIP3   OH225334   0.707   6.132   9.049 -0.2082 -0.3622  0.4407
  380TIP3    H125335   0.802   6.116   9.049  0.1595  1.6233 -0.3073
  380TIP3    H225336   0.674   6.078   8.977  0.9416  1.7850 -1.8412
  381TIP3   OH225337   5.685   6.783   6.698 -0.1239 -0.0993 -0.1466
  381TIP3    H125338   5.685   6.723   6.773 -0.3009  0.2369  0.1244
  381TIP3    H225339   5.703   6.869   6.736 -0.0599  0.0481 -0.5090
  382TIP3   OH225340   0.226   5.881   7.056 -0.0888  0.4363  0.2632
  382TIP3    H125341   0.205   5.970   7.028  0.1584 -0.1174 -1.8977
  382TIP3    H225342   0.142   5.843   7.083 -0.2962  1.1279  0.5975
  383TIP3   OH225343   5.309   0.407   9.411  0.0367  0.4407 -0.2414
  383TIP3    H125344   5.353   0.396   9.327 -3.1045  0.5097 -2.0461
  383TIP3    H225345   5.241   0.340   9.412  0.6007 -0.2347  2.7837
  384TIP3   OH225346   6.516   6.268   7.770  0.3013  0.1213 -0.0204
  384TIP3    H125347   6.462   6.197   7.736 -1.0494  0.7490  0.7190
  384TIP3    H225348   6.491   6.344   7.719  0.8882  0.3196 -0.0212
  385TIP3   OH225349   2.197   3.490   9.215 -0.1578  0.5800  0.1563
  385TIP3    H125350   2.232   3.404   9.237 -0.1989  1.1348  2.6086
  385TIP3    H225351   2.150   3.476   9.132  0.0475 -1.6683  0.3632
  386TIP3   OH225352   4.065   3.198   8.073  0.1163 -0.4385 -0.4032
  386TIP3    H125353   4.079   3.129   8.008  1.7412 -0.3985 -0.1412
  386TIP3    H225354   3.977   3.230   8.055  0.4977 -0.4469 -2.5940
  387TIP3   OH225355   5.904   3.743   8.245 -0.3149 -0.2088  0.7302
  387TIP3    H125356   5.855   3.797   8.183  1.2097 -1.5116 -1.7798
  387TIP3    H225357   5.868   3.655   8.235  0.0818 -0.4835  1.5989
  388TIP3   OH225358   2.778   7.126   7.708  0.3700  0.1757  0.5797
  388TIP3    H125359   2.736   7.153   7.626  1.3154  1.0482  0.3546
  388TIP3    H225360   2.737   7.180   7.775  0.7350  0.6398  0.4369
  389TIP3   OH225361   0.920   6.936   9.569  0.9610  0.2365 -0.0057
  389TIP3    H125362   0.996   6.948   9.511  2.2127 -0.6555  1.3797
  389TIP3    H225363   0.939   6.990   9.645  0.6439 -0.6726  0.7385
  390TIP3   OH225364   5.508   3.302   7.715 -0.3060  0.0988 -0.2309
  390TIP3    H125365   5.579   3.312   7.653  1.3161 -3.2161  0.8774
  390TIP3    H225366   5.456   3.229   7.682  0.0941 -1.1647  1.7324
  391TIP3   OH225367   3.587   3.505   8.653  0.6584  0.4191  0.0397
  391TIP3    H125368   3.589   3.571   8.722  0.4505  0.6635 -0.1878
  391TIP3    H225369   3.661   3.447   8.673  0.2923  0.1897  0.7656
  392TIP3   OH225370   2.248   5.704   9.300 -0.6119 -0.3779  0.1269
  392TIP3    H125371   2.155   5.685   9.288 -0.8274  0.7708 -0.2006
  392TIP3    H225372   2.290   5.664   9.224 -0.9017 -0.5071  0.0303
  393TIP3   OH225373   3.635   6.300   9.195 -0.4533  0.0674  0.1478
  393TIP3    H125374   3.620   6.249   9.274 -1.4786 -1.3036 -0.8699
  393TIP3    H225375   3.707   6.254   9.150  1.0379  1.6104  0.8907
  394TIP3   OH225376   3.738   1.930   7.307  0.2749  0.0806  0.1080
  394TIP3    H125377   3.789   1.851   7.288 -2.3769 -1.5776 -0.6311
  394TIP3    H225378   3.803   2.000   7.312  2.9038 -2.2765  1.9482
  395TIP3   OH225379   5.961   1.138   7.089  0.3389 -0.0443  0.1213
  395TIP3    H125380   5.996   1.114   7.175  0.9470 -0.5840 -0.2654
  395TIP3    H225381   5.992   1.227   7.073  0.8524 -0.2170  0.1439
  396TIP3   OH225382   3.590   2.513   9.505  0.1938  0.0722 -0.0187
  396TIP3    H125383   3.662   2.560   9.463 -1.3394  2.6985  0.0894
  396TIP3    H225384   3.511   2.550   9.466 -1.1562 -1.3845  1.1984
  397TIP3   OH225385   6.609   1.504   6.649 -0.1961  0.0368  0.4500
  397TIP3    H125386   6.690   1.523   6.602 -0.2244  0.6155  0.6296
  397TIP3    H225387   6.583   1.587   6.687 -0.0949 -0.4451  1.6214
  398TIP3   OH225388   2.122   1.852   8.837  0.0890 -0.2932  0.1175
  398TIP3    H125389   2.177   1.844   8.760 -1.2944  0.1535 -0.9560
  398TIP3    H225390   2.087   1.764   8.851 -0.4910 -0.1554 -0.4215
  399TIP3   OH225391   7.516   3.196   8.876 -0.0449  0.3639  0.0714
  399TIP3    H125392   7.582   3.265   8.873 -0.6789  0.9557 -0.7700
  399TIP3    H225393   7.461   3.219   8.951  1.7041 -1.1179  1.9104
  400TIP3   OH225394   4.848   6.050   7.598 -0.3809  0.2483  0.0698
  400TIP3    H125395   4.885   6.133   7.568 -2.3432  0.6039 -1.6736
  400TIP3    H225396   4.847   5.995   7.520  0.5701 -1.3146  1.1275
  401TIP3   OH225397   2.072   1.433   7.057  0.4391 -0.0548  0.1088
  401TIP3    H125398   2.127   1.377   7.113 -1.8695 -2.8478 -0.1589
  401TIP3    H225399   2.012   1.476   7.118  0.7346  0.3262  0.1302
  402TIP3   OH225400   7.163   2.700   8.200  0.4913 -0.9489  0.6753
  402TIP3    H125401   7.213   2.693   8.119  0.7319 -0.3644  0.7763
  402TIP3    H225402   7.102   2.626   8.196 -0.1357 -0.3894 -0.4782
  403TIP3   OH225403   3.678   4.553   9.202  0.3200 -0.4042 -0.2136
  403TIP3    H125404   3.599   4.565   9.150  1.4534  2.1448 -1.5554
  403TIP3    H225405   3.671   4.465   9.238 -2.5233 -0.6921 -1.2475
  404TIP3   OH225406   4.298   1.648   7.940  0.9532  0.3755 -0.4512
  404TIP3    H125407   4.331   1.560   7.926 -0.3344 -0.1735 -0.1990
  404TIP3    H225408   4.358   1.705   7.891  2.6138 -0.4834  0.5343
  405TIP3   OH225409   4.232   1.578   6.966 -0.1412 -0.2418 -0.2711
  405TIP3    H125410   4.167   1.644   6.941 -0.0963 -0.8396 -2.1294
  405TIP3    H225411   4.316   1.623   6.956 -0.1803 -0.0523  0.2292
  406TIP3   OH225412   1.855   3.820   6.908 -0.1946 -0.5563 -0.2595
  406TIP3    H125413   1.829   3.912   6.902  1.4040  0.1445  2.1316
  406TIP3    H225414   1.943   3.817   6.872  0.3969 -0.7885  1.1432
  407TIP3   OH225415   5.339   6.753   8.835  0.3029 -0.3114 -0.1034
  407TIP3    H125416   5.364   6.671   8.791 -1.2584 -0.3363 -0.9965
  407TIP3    H225417   5.331   6.816   8.764 -0.3790  0.1436  0.3738
  408TIP3   OH225418   0.923   4.122   7.448 -0.0820 -0.3935 -0.0189
  408TIP3    H125419   0.847   4.135   7.504 -1.1680  2.0274 -1.8922
  408TIP3    H225420   0.915   4.031   7.418 -0.6544 -1.0456  1.9183
  409TIP3   OH225421   3.616   2.878   7.506  0.6647 -0.5591  0.0998
  409TIP3    H125422   3.633   2.867   7.413 -2.2013 -0.6502 -0.4949
  409TIP3    H225423   3.668   2.809   7.548  1.3064 -1.0908 -1.4982
  410TIP3   OH225424   0.210   4.205   8.585  0.1620  0.3977  0.0724
  410TIP3    H125425   0.146   4.268   8.620 -0.9187 -1.5611  1.8591
  410TIP3    H225426   0.281   4.206   8.650 -0.2380 -0.7555  0.5511
  411TIP3   OH225427   0.917   6.332   9.318 -0.4194 -0.1366 -0.2317
  411TIP3    H125428   0.999   6.320   9.271 -0.7183 -1.3964 -0.4832
  411TIP3    H225429   0.930   6.286   9.401 -0.3082  1.0629  0.4262
  412TIP3   OH225430   3.778   2.811   7.015 -0.7659 -0.3412  0.6205
  412TIP3    H125431   3.837   2.874   6.974 -1.2769  0.6729  1.4315
  412TIP3    H225432   3.712   2.794   6.948 -0.8616  0.2983  0.5520
  413TIP3   OH225433   2.449   1.735   9.665  0.6587 -0.7234  0.6587
  413TIP3    H125434   2.469   1.665   9.727 -2.8294 -2.4563  0.0564
  413TIP3    H225435   2.436   1.690   9.581 -2.0961  0.4737  0.3333
  414TIP3   OH225436   1.613   6.821   7.331 -0.0440 -0.1933 -0.1155
  414TIP3    H125437   1.653   6.844   7.247 -0.0923  1.9426  0.3981
  414TIP3    H225438   1.667   6.749   7.364  1.1204  0.1865 -1.1130
  415TIP3   OH225439   3.136   6.196   7.692 -0.0733 -0.4562  0.2074
  415TIP3    H125440   3.148   6.221   7.600 -1.2369 -0.5466  0.0081
  415TIP3    H225441   3.168   6.106   7.696  0.4844 -0.2726  0.0252
  416TIP3   OH225442   1.829   4.135   8.660 -0.2500  0.1711 -0.9369
  416TIP3    H125443   1.873   4.219   8.678 -2.6194  1.7447 -1.9938
  416TIP3    H225444   1.825   4.130   8.565 -0.8716 -0.7290 -0.8703
  417TIP3   OH225445   2.436   5.343   8.977  0.5388 -0.1992 -0.1339
  417TIP3    H125446   2.378   5.275   9.010 -1.3170  1.3302 -0.1105
  417TIP3    H225447   2.421   5.344   8.882 -2.1135  2.3764  0.1665
  418TIP3   OH225448   1.211   0.877   9.377 -0.1869  0.4748  0.0086
  418TIP3    H125449   1.252   0.791   9.373  0.4772  0.8045 -2.4483
  418TIP3    H225450   1.123   0.863   9.342 -0.5346  0.5820  0.8276
  419TIP3   OH225451   7.600   1.060   7.618 -0.0433  0.5881  0.0696
  419TIP3    H125452   7.557   1.102   7.543  0.3679  1.5482  0.3667
  419TIP3    H225453   7.537   0.992   7.646 -0.3580  0.4649 -0.9072
  420TIP3   OH225454   1.052   0.357   8.626  0.2673  0.5043 -0.8237
  420TIP3    H125455   1.055   0.371   8.532 -3.0573 -0.6793 -1.2360
  420TIP3    H225456   1.050   0.261   8.637  0.8425  0.6098  0.4881
  421TIP3   OH225457   1.529   5.588   8.111  0.7895  0.1418 -0.8713
  421TIP3    H125458   1.526   5.509   8.057 -0.1907  0.5194 -1.4005
  421TIP3    H225459   1.493   5.656   8.054  0.1192  0.6289  0.1276
  422TIP3   OH225460   0.302   6.995   7.577  0.4344 -0.1454  0.1521
  422TIP3    H125461   0.324   7.064   7.640 -1.3933  0.0640  0.6015
  422TIP3    H225462   0.297   6.915   7.630  1.3358 -0.4256 -0.1652
  423TIP3   OH225463   1.979   5.382   8.462  0.1964 -0.1792 -0.1825
  423TIP3    H125464   2.008   5.390   8.371 -0.1733 -1.9795 -0.5029
  423TIP3    H225465   1.975   5.472   8.494  3.0797  0.3472 -1.0567
  424TIP3   OH225466   5.277   3.399   7.366 -0.3642 -0.0667  0.1012
  424TIP3    H125467   5.328   3.321   7.387  0.3730 -0.0362 -1.4758
  424TIP3    H225468   5.343   3.467   7.351 -1.0005  1.1555  2.3456
  425TIP3   OH225469   7.211   1.435   9.251 -0.3036  0.2237  0.2106
  425TIP3    H125470   7.260   1.388   9.183 -0.0760  0.3584  0.2850
  425TIP3    H225471   7.226   1.527   9.232  1.2344  0.2873  1.5101
  426TIP3   OH225472   7.428   7.031   7.446 -0.0099 -0.3592  0.0034
  426TIP3    H125473   7.468   7.046   7.532  0.0700  0.5056 -0.1720
  426TIP3    H225474   7.498   6.997   7.392  0.4707  0.9677 -0.2509
  427TIP3   OH225475   1.985   2.052   6.590  0.0142 -0.6145  0.5316
  427TIP3    H125476   2.041   2.002   6.531  0.9671 -0.6269  1.4155
  427TIP3    H225477   1.931   1.987   6.633 -0.0606 -0.6941  0.3181
  428TIP3   OH225478   6.727   6.719   9.450 -0.6313  0.0922  0.0166
  428TIP3    H125479   6.764   6.742   9.535  0.5289 -0.3491 -0.3478
  428TIP3    H225480   6.703   6.803   9.411  1.0217  0.5149 -0.1725
  429TIP3   OH225481   1.494   2.008   9.035  0.1462  0.4177  0.3049
  429TIP3    H125482   1.434   1.933   9.039 -0.4097  0.8831  0.7766
  429TIP3    H225483   1.581   1.968   9.034 -0.1352 -0.2344  0.7560
  430TIP3   OH225484   1.867   1.072   9.439 -0.2016  0.6227 -0.6096
  430TIP3    H125485   1.889   1.042   9.351 -0.4229  1.6611 -1.0304
  430TIP3    H225486   1.772   1.086   9.437 -0.5114 -0.9886  0.3185
  431TIP3   OH225487   4.431   3.830   8.012 -0.0267 -0.2120 -0.7241
  431TIP3    H125488   4.437   3.920   7.981 -0.6180 -0.1451 -0.6567
  431TIP3    H225489   4.340   3.820   8.040 -0.2766 -1.1795 -1.8047
  432TIP3   OH225490   4.482   6.059   7.111 -0.1331 -0.0318 -0.4994
  432TIP3    H125491   4.548   6.121   7.081 -1.2084  1.5039  0.1286
  432TIP3    H225492   4.475   5.995   7.041  1.6437  0.0451 -0.7857
  433TIP3   OH225493   7.242   1.506   7.715  0.2954  0.0357  0.6670
  433TIP3    H125494   7.306   1.485   7.783  1.5733 -0.3077 -0.5908
  433TIP3    H225495   7.199   1.423   7.695  0.9768 -0.1872  0.0471
  434TIP3   OH225496   2.768   2.616   7.923 -0.3575 -0.0306  0.4060
  434TIP3    H125497   2.726   2.657   7.847  0.1982  1.4884  0.8834
  434TIP3    H225498   2.799   2.531   7.890 -1.1783  0.0755 -0.7253
  435TIP3   OH225499   1.198   1.683   9.023  0.3043  0.3237  0.2541
  435TIP3    H125500   1.217   1.763   9.073  1.8690  0.1664 -0.0224
  435TIP3    H225501   1.212   1.612   9.085  2.2834  0.1257 -0.3416
  436TIP3   OH225502   4.673   6.435   7.683  0.1040  0.2887 -0.3037
  436TIP3    H125503   4.707   6.392   7.762 -1.9967  1.4360  1.3314
  436TIP3    H225504   4.750   6.475   7.643  1.5300 -1.9228  0.0691
  437TIP3   OH225505   1.790   3.246   8.982  0.0261  0.0101 -0.5987
  437TIP3    H125506   1.701   3.217   9.004  0.0972  0.4260  0.2960
  437TIP3    H225507   1.778   3.302   8.906 -0.3708 -0.6321 -1.0220
  438TIP3   OH225508   1.753   5.104   8.667 -0.1611  0.8861  0.3852
  438TIP3    H125509   1.716   5.179   8.714  1.0633  1.2133  0.8543
  438TIP3    H225510   1.783   5.045   8.736  0.3959  0.7339  0.0135
  439TIP3   OH225511   3.111   2.512   7.706  0.0112  0.3275 -0.5449
  439TIP3    H125512   3.166   2.564   7.765 -0.5876 -0.2560  0.5683
  439TIP3    H225513   3.069   2.448   7.763  0.9571 -1.6170 -1.9116
  440TIP3   OH225514   5.981   0.324   8.441  0.0050 -0.3230  0.1813
  440TIP3    H125515   5.923   0.330   8.518 -0.5659  1.3722 -0.3275
  440TIP3    H225516   5.929   0.361   8.370  1.8673  1.7488 -0.1940
  441TIP3   OH225517   2.337   2.917   8.685 -0.0524  0.2583  0.4148
  441TIP3    H125518   2.280   2.871   8.746  0.9766  0.2366  1.4051
  441TIP3    H225519   2.400   2.963   8.742  2.5066 -1.7327 -0.5824
  442TIP3   OH225520   5.689   6.394   8.779  0.0017  0.9005 -1.2206
  442TIP3    H125521   5.730   6.460   8.723  1.7232  0.7594 -0.1999
  442TIP3    H225522   5.761   6.361   8.833 -1.2002 -0.4613 -0.3954
  443TIP3   OH225523   0.252   3.088   9.390 -0.7239 -0.3121 -0.3819
  443TIP3    H125524   0.206   3.129   9.463 -1.1022  0.6655 -1.1429
  443TIP3    H225525   0.236   3.147   9.316  0.9059 -0.4905 -0.9013
  444TIP3   OH225526   6.899   1.626   7.802 -0.0598  0.4706  0.3738
  444TIP3    H125527   6.955   1.565   7.754 -2.5037 -0.4946 -1.4743
  444TIP3    H225528   6.868   1.687   7.736 -1.4720  0.7228  1.2317
  445TIP3   OH225529   5.988   1.586   8.847 -0.7442 -0.0873  0.4047
  445TIP3    H125530   5.902   1.595   8.890 -1.2603 -2.2012 -0.0461
  445TIP3    H225531   5.975   1.622   8.760 -1.0736 -0.0739  0.4565
  446TIP3   OH225532   1.891   2.759   6.923  0.3496  0.1026  0.1420
  446TIP3    H125533   1.971   2.798   6.960  0.8103  2.1870 -2.7318
  446TIP3    H225534   1.922   2.706   6.850 -0.8418  1.0200 -1.0827
  447TIP3   OH225535   1.052   0.526   8.356 -0.0932 -0.0764 -0.2919
  447TIP3    H125536   1.051   0.606   8.304  2.4439  0.6821  0.6663
  447TIP3    H225537   1.145   0.503   8.363 -0.5318 -1.5246  1.7765
  448TIP3   OH225538   0.407   6.104   7.943 -0.5500 -0.1169 -0.0823
  448TIP3    H125539   0.443   6.098   7.854  0.9620  1.7249  0.3549
  448TIP3    H225540   0.324   6.150   7.932 -0.3642  0.1181 -0.5242
  449TIP3   OH225541   1.857   3.357   7.711  0.1547 -0.0648 -0.0414
  449TIP3    H125542   1.815   3.296   7.651  1.0119  0.2657 -1.0105
  449TIP3    H225543   1.889   3.302   7.783 -1.1216 -0.4263  0.2791
  450TIP3   OH225544   2.425   3.155   9.606 -0.2582 -0.5120  0.7986
  450TIP3    H125545   2.448   3.110   9.525 -1.4358 -0.6749  0.5362
  450TIP3    H225546   2.504   3.152   9.659  0.2372 -1.2345  0.0274
  451TIP3   OH225547   6.252   2.398   9.224  0.1589  0.2028  0.7284
  451TIP3    H125548   6.203   2.371   9.146  0.2895 -0.9374  1.0185
  451TIP3    H225549   6.343   2.406   9.194  0.0732  0.6201  0.5749
  452TIP3   OH225550   1.880   7.645   7.778  0.3804  0.2061  0.1066
  452TIP3    H125551   1.844   7.566   7.818  0.6420  0.5040  0.9681
  452TIP3    H225552   1.803   7.699   7.757  0.1722 -0.4886 -0.9750
  453TIP3   OH225553   2.884   6.565   8.575 -0.3710 -0.5033 -0.3942
  453TIP3    H125554   2.955   6.595   8.631  0.1681  0.3268 -1.4749
  453TIP3    H225555   2.908   6.476   8.551  1.1729  0.3076 -2.0393
  454TIP3   OH225556   3.947   2.598   8.834  0.1375 -0.2477 -0.1296
  454TIP3    H125557   3.873   2.652   8.808  0.4976  0.3193  0.0030
  454TIP3    H225558   3.996   2.652   8.896  1.4489 -0.0533 -1.3002
  455TIP3   OH225559   2.817   1.694   8.604 -0.8024  0.0929 -0.2758
  455TIP3    H125560   2.822   1.786   8.630 -1.9217  1.0230 -3.0449
  455TIP3    H225561   2.739   1.661   8.649 -1.0292  0.7968 -0.1474
  456TIP3   OH225562   2.992   2.354   8.354  0.6127 -0.2806  0.1160
  456TIP3    H125563   3.064   2.409   8.323  0.8437 -0.2452  0.7018
  456TIP3    H225564   2.939   2.412   8.410  0.2762 -0.3773 -0.0973
  457TIP3   OH225565   3.559   6.586   8.167  0.6435  0.4909 -0.2155
  457TIP3    H125566   3.589   6.674   8.143  0.6254  0.8641  1.0227
  457TIP3    H225567   3.608   6.566   8.247  0.8345 -0.7463 -0.6250
  458TIP3   OH225568   2.819   2.810   7.429 -0.2314  0.0141  0.2727
  458TIP3    H125569   2.801   2.902   7.451  0.2050  0.3366 -0.6649
  458TIP3    H225570   2.836   2.768   7.514 -1.2046  0.6206  0.7880
  459TIP3   OH225571   2.159   4.566   7.045 -0.3252 -0.3366 -0.3212
  459TIP3    H125572   2.129   4.637   6.988  0.0876 -0.0284 -0.1668
  459TIP3    H225573   2.251   4.554   7.021 -0.0574  0.0137  0.4842
  460TIP3   OH225574   6.651   1.447   9.222  0.0018 -0.1535  0.1921
  460TIP3    H125575   6.590   1.481   9.156 -0.5514  0.6294  1.0676
  460TIP3    H225576   6.631   1.354   9.228  1.4379 -0.6753 -2.1523
  461TIP3   OH225577   4.192   6.668   7.205 -0.1597  0.2855  0.0734
  461TIP3    H125578   4.097   6.664   7.192 -0.0730  1.4424 -1.1936
  461TIP3    H225579   4.227   6.688   7.118  0.9825  3.2217  1.0796
  462TIP3   OH225580   3.073   0.238   7.666 -0.2084 -0.3491  0.1954
  462TIP3    H125581   3.074   0.330   7.694 -1.5340 -0.0615 -0.6212
  462TIP3    H225582   2.988   0.205   7.696 -0.7727 -0.6087 -1.6009
  463TIP3   OH225583   4.574   2.037   8.113  0.5095 -0.7402  0.5488
  463TIP3    H125584   4.600   2.108   8.054  0.8898 -0.7741  0.6681
  463TIP3    H225585   4.517   2.077   8.177  1.9967 -0.1833  1.5777
  464TIP3   OH225586   1.923   2.794   9.703  1.0288 -0.5214  0.6611
  464TIP3    H125587   1.872   2.815   9.781  1.6726  0.1089  0.9235
  464TIP3    H225588   1.893   2.707   9.677 -1.6546  0.5737 -0.3409
  465TIP3   OH225589   2.155   0.440   6.996 -0.2546  0.3840  0.2365
  465TIP3    H125590   2.135   0.348   7.011 -0.5567  0.2314 -0.9469
  465TIP3    H225591   2.250   0.446   7.003 -0.2797  0.0953  0.8701
  466TIP3   OH225592   3.373   3.032   7.498  0.5129 -0.1102 -0.5817
  466TIP3    H125593   3.371   3.072   7.411 -1.8990 -1.8282 -1.4179
  466TIP3    H225594   3.454   2.981   7.499  0.9082  0.4616 -1.5173
  467TIP3   OH225595   0.833   7.055   7.705 -0.0994 -0.3274 -0.5806
  467TIP3    H125596   0.814   6.992   7.774  0.0745 -0.1902 -0.4051
  467TIP3    H225597   0.797   7.138   7.738  2.9652  0.5663  0.9508
  468TIP3   OH225598   2.538   5.779   7.910  0.1098  0.0488 -0.2772
  468TIP3    H125599   2.538   5.686   7.887  2.2270 -0.2010  0.4463
  468TIP3    H225600   2.457   5.792   7.960 -0.6696 -1.1722 -1.1785
  469TIP3   OH225601   3.899   0.369   7.020 -0.3542  0.2726 -0.4231
  469TIP3    H125602   3.873   0.367   6.928 -0.3926 -0.6744 -0.4004
  469TIP3    H225603   3.854   0.294   7.059 -1.0312  1.1722  0.5623
  470TIP3   OH225604   3.337   4.237   9.301  0.2741 -0.1368  0.6338
  470TIP3    H125605   3.271   4.306   9.311 -1.2462 -1.2510 -1.0096
  470TIP3    H225606   3.405   4.276   9.247  0.3599  0.6224  1.2627
  471TIP3   OH225607   6.792   2.188   8.349 -0.3373 -0.1691 -0.1045
  471TIP3    H125608   6.816   2.217   8.261  0.8015 -0.4594  0.0908
  471TIP3    H225609   6.803   2.093   8.345  1.8613 -0.0305  0.9183
  472TIP3   OH225610   3.274   5.598   8.476 -0.4067  0.4354  0.3308
  472TIP3    H125611   3.182   5.573   8.468 -0.5662  0.4667  1.8031
  472TIP3    H225612   3.320   5.514   8.487 -0.3782  0.4877  0.6032
  473TIP3   OH225613   2.394   7.202   8.956  0.1228  0.2906  0.1086
  473TIP3    H125614   2.362   7.153   8.881 -1.1029 -1.4001  1.6677
  473TIP3    H225615   2.450   7.141   9.003  1.4418  1.5400  0.2616
  474TIP3   OH225616   7.528   4.518   8.300  0.3393  0.1821  0.6460
  474TIP3    H125617   7.534   4.423   8.312 -2.1526 -0.0866  0.3259
  474TIP3    H225618   7.464   4.547   8.364 -1.6093  1.0570 -1.5565
  475TIP3   OH225619   3.399   2.448   6.653 -0.2411 -0.7742  0.2690
  475TIP3    H125620   3.494   2.438   6.666  0.3009  1.9362 -0.9281
  475TIP3    H225621   3.383   2.411   6.566  0.3022  1.1545 -0.7201
  476TIP3   OH225622   6.294   5.198   6.810 -0.4177  0.2872 -0.4097
  476TIP3    H125623   6.338   5.259   6.869  1.1915 -1.1058 -0.1006
  476TIP3    H225624   6.212   5.176   6.854 -1.9623  3.5350 -1.3588
  477TIP3   OH225625   1.151   4.581   8.986 -0.2106  0.2190  0.3735
  477TIP3    H125626   1.221   4.567   9.049 -0.7760  2.4170  1.5860
  477TIP3    H225627   1.072   4.589   9.039 -1.4147 -1.9238 -0.9402
  478TIP3   OH225628   1.903   5.555   9.187  0.2000 -0.0824  0.4698
  478TIP3    H125629   1.984   5.534   9.141 -0.4796 -0.3823 -0.6227
  478TIP3    H225630   1.898   5.651   9.185 -0.3737 -0.1186 -1.0975
  479TIP3   OH225631   4.779   3.855   7.141  0.0913 -0.5367 -0.0110
  479TIP3    H125632   4.746   3.944   7.130  1.8436  0.4847  2.1272
  479TIP3    H225633   4.707   3.808   7.183  0.2888  0.9261  2.1841
  480TIP3   OH225634   7.629   2.630   7.428 -0.0466 -0.5793  0.5625
  480TIP3    H125635   7.552   2.686   7.439  0.3013 -0.2758  1.5719
  480TIP3    H225636   7.600   2.543   7.457 -0.0714 -0.5095  0.7491
  481TIP3   OH225637   6.505   4.171   8.490 -0.1181  0.2882 -0.2300
  481TIP3    H125638   6.477   4.120   8.414  0.9644  1.1229 -1.2294
  481TIP3    H225639   6.520   4.106   8.558 -1.8507 -0.4145 -0.4610
  482TIP3   OH225640   4.334   6.595   7.657 -0.1238  0.3178  0.2218
  482TIP3    H125641   4.354   6.554   7.572 -0.2799  1.0365 -0.1745
  482TIP3    H225642   4.337   6.689   7.639  1.9521  0.5593  1.4855
  483TIP3   OH225643   1.725   3.418   7.962  0.0574 -0.5022 -0.4221
  483TIP3    H125644   1.636   3.407   7.931 -1.0472  0.0305  2.3021
  483TIP3    H225645   1.764   3.482   7.901 -1.6993 -0.0597 -1.1306
  484TIP3   OH225646   7.049   4.734   8.569  0.3605 -0.1024 -0.1466
  484TIP3    H125647   7.044   4.812   8.624  1.4640 -0.7823  0.9645
  484TIP3    H225648   6.958   4.709   8.554 -0.0714  2.0105 -1.4681
  485TIP3   OH225649   5.009   5.799   7.845  0.2097 -0.5001 -0.1877
  485TIP3    H125650   5.021   5.868   7.910 -1.2952 -0.2491 -0.1224
  485TIP3    H225651   5.053   5.722   7.881  0.4463 -0.0212  0.5401
  486TIP3   OH225652   6.483   5.333   7.017  0.1488  0.0882  0.1590
  486TIP3    H125653   6.456   5.396   7.084  0.0066  0.4740 -0.2597
  486TIP3    H225654   6.516   5.258   7.067  2.5273  1.3994  0.7108
  487TIP3   OH225655   7.639   0.937   8.239 -0.5432 -0.6758  0.8456
  487TIP3    H125656   7.672   0.847   8.232 -1.7287 -1.2665  2.2601
  487TIP3    H225657   7.557   0.936   8.189  0.6462  0.3638 -1.3120
  488TIP3   OH225658   2.310   0.925   6.599  0.0663 -0.0192  0.4002
  488TIP3    H125659   2.390   0.976   6.590  0.5105 -0.6986  0.4597
  488TIP3    H225660   2.326   0.866   6.673 -1.0563  0.8812  1.4142
  489TIP3   OH225661   5.583   4.679   8.944 -0.2433  0.2568 -0.1326
  489TIP3    H125662   5.543   4.653   9.027  2.2089  0.0943  1.1140
  489TIP3    H225663   5.531   4.635   8.877 -0.2512 -2.5216  1.5464
  490TIP3   OH225664   7.458   2.099   7.510  0.0195  0.5176 -0.2180
  490TIP3    H125665   7.435   2.027   7.569 -0.1237 -0.1026 -1.0226
  490TIP3    H225666   7.538   2.070   7.467  0.8735  1.5345  0.6107
  491TIP3   OH225667   6.590   5.872   7.754 -0.1295  0.2963 -0.2872
  491TIP3    H125668   6.644   5.835   7.824  0.0012  0.6958 -0.1723
  491TIP3    H225669   6.590   5.805   7.686 -0.7498 -0.3448  0.3357
  492TIP3   OH225670   3.100   4.691   9.176 -0.0645 -0.7424 -0.1499
  492TIP3    H125671   3.175   4.749   9.180  0.0668 -0.9757  2.2157
  492TIP3    H225672   3.025   4.749   9.162  0.2292 -0.1434  0.7008
  493TIP3   OH225673   2.335   6.968   8.334 -0.0616 -0.0028 -0.2486
  493TIP3    H125674   2.336   7.061   8.312  0.3859  0.2838  0.9126
  493TIP3    H225675   2.424   6.938   8.314 -0.1979 -0.1812 -0.5976
  494TIP3   OH225676   4.231   1.648   7.611 -0.3425  0.9089  0.0869
  494TIP3    H125677   4.235   1.652   7.706  0.2850  1.8415  0.0326
  494TIP3    H225678   4.271   1.564   7.589  1.9622  1.8019  0.5413
  495TIP3   OH225679   1.431   7.373   8.590 -0.2918 -0.5219 -0.3667
  495TIP3    H125680   1.459   7.442   8.651 -0.1883 -0.7391 -0.1699
  495TIP3    H225681   1.421   7.295   8.644  1.6130 -1.1964 -0.9070
  496TIP3   OH225682   3.638   4.915   9.743  0.4890 -0.2120  0.6657
  496TIP3    H125683   3.730   4.895   9.725 -0.5399 -2.7608 -2.7264
  496TIP3    H225684   3.615   4.858   9.816  1.9155  1.8927  2.9496
  497TIP3   OH225685   4.515   1.858   9.233 -0.1359 -0.6199  0.1657
  497TIP3    H125686   4.508   1.877   9.139  0.6234  0.4517  0.3035
  497TIP3    H225687   4.450   1.789   9.249 -0.3408 -0.7450 -1.1224
  498TIP3   OH225688   3.367   1.560   6.526 -0.1843 -0.0151 -0.1244
  498TIP3    H125689   3.408   1.478   6.497 -0.5646  0.0229 -0.7834
  498TIP3    H225690   3.435   1.603   6.578  0.4756 -0.1450 -0.8650
  499TIP3   OH225691   6.500   0.188   7.407  0.0815  0.2424  0.0589
  499TIP3    H125692   6.477   0.145   7.324  0.0173  1.1824 -0.4260
  499TIP3    H225693   6.554   0.263   7.381  0.2933  0.3912  0.8918
  500TIP3   OH225694   3.269   2.857   9.243  0.0361 -0.7325 -0.1324
  500TIP3    H125695   3.312   2.934   9.282  0.6414 -1.5896  0.9511
  500TIP3    H225696   3.186   2.891   9.210 -0.7314  0.0216  2.3005
  501TIP3   OH225697   6.763   2.168   7.220  0.6664  0.2050  0.1428
  501TIP3    H125698   6.835   2.230   7.208  0.7418  0.3386  1.1455
  501TIP3    H225699   6.805   2.087   7.248  0.4164  0.4530  1.3169
  502TIP3   OH225700   2.840   3.364   9.484  0.2429 -0.0499  0.5767
  502TIP3    H125701   2.933   3.382   9.470  0.0118  0.1889 -0.8188
  502TIP3    H225702   2.838   3.291   9.546  1.4721 -2.1784 -1.7009
  503TIP3   OH225703   5.207   6.925   7.633  0.5486 -0.9221  0.1636
  503TIP3    H125704   5.181   6.833   7.632  1.9792 -1.3681 -1.6537
  503TIP3    H225705   5.205   6.951   7.541  0.8849  0.6724  0.5770
  504TIP3   OH225706   0.086   6.427   8.912  0.3497 -0.6242  0.2158
  504TIP3    H125707   0.117   6.452   8.825 -1.5600  1.0900 -0.0300
  504TIP3    H225708   0.159   6.448   8.970  0.6583  0.8429 -0.6513
  505TIP3   OH225709   4.827   0.753   9.027 -0.4741 -0.0024 -0.3927
  505TIP3    H125710   4.805   0.843   9.051  0.8146  0.0785  0.6224
  505TIP3    H225711   4.744   0.705   9.037 -1.0361  0.9409 -0.3557
  506TIP3   OH225712   0.585   0.142   9.052  0.0432 -0.3374 -0.0763
  506TIP3    H125713   0.612   0.231   9.030 -1.2226 -0.1733 -1.0538
  506TIP3    H225714   0.667   0.097   9.072  0.8083  0.7447 -0.6599
  507TIP3   OH225715   3.025   7.626   7.549 -0.4997  0.2581 -0.1800
  507TIP3    H125716   2.956   7.565   7.526 -0.0885 -0.2068 -0.1932
  507TIP3    H225717   3.063   7.653   7.465  0.9370 -1.3642 -0.1043
  508TIP3   OH225718   4.921   0.160   7.449 -0.5189  0.2449  0.4267
  508TIP3    H125719   4.907   0.142   7.541  0.7320 -1.7694  0.2778
  508TIP3    H225720   4.833   0.171   7.413 -1.0885 -0.3556  1.5946
  509TIP3   OH225721   1.525   0.791   9.000 -0.5032  0.5409 -0.6233
  509TIP3    H125722   1.459   0.732   8.964 -1.6570 -0.0072  2.1172
  509TIP3    H225723   1.595   0.733   9.031 -0.7711  0.7115  0.3560
  510TIP3   OH225724   0.268   5.361   8.639 -0.2907  0.2291 -0.1347
  510TIP3    H125725   0.214   5.408   8.702  0.0053  1.1958 -0.5958
  510TIP3    H225726   0.268   5.270   8.671 -1.9612  0.2574  0.0154
  511TIP3   OH225727   4.350   2.904   8.083  0.1599 -0.0810 -0.1243
  511TIP3    H125728   4.369   2.997   8.096 -1.1616  0.2778 -0.6215
  511TIP3    H225729   4.435   2.861   8.088  1.0170  1.3553 -1.6302
  512TIP3   OH225730   0.050   5.296   8.800 -0.1169 -0.0673  0.3498
  512TIP3    H125731  -0.022   5.348   8.836  0.0037  0.2444  0.1334
  512TIP3    H225732   0.009   5.212   8.778 -0.6141  0.4144 -0.6137
  513TIP3   OH225733   3.373   6.091   8.526 -0.3422  0.1484 -0.3334
  513TIP3    H125734   3.355   6.010   8.572  0.3800  0.3120  0.2554
  513TIP3    H225735   3.430   6.066   8.453  0.3663  0.1970  0.1930
  514TIP3   OH225736   6.649   7.621   9.035 -0.7443  0.2408 -0.0212
  514TIP3    H125737   6.697   7.619   8.952  0.5632 -0.0548  0.7262
  514TIP3    H225738   6.687   7.693   9.084 -1.0705  0.0139  0.5852
  515TIP3   OH225739   2.340   3.459   8.600 -0.0341 -0.2380 -0.6549
  515TIP3    H125740   2.312   3.543   8.636 -0.4103  0.2476 -2.0213
  515TIP3    H225741   2.435   3.458   8.614 -0.2405 -0.3747  0.9139
  516TIP3   OH225742   3.648   5.573   7.023 -0.0727 -0.0642  0.3186
  516TIP3    H125743   3.631   5.618   7.106 -1.7768 -0.2447  0.1144
  516TIP3    H225744   3.706   5.501   7.046 -1.9155 -1.1905  1.7229
  517TIP3   OH225745   0.221   3.874   9.310  0.0538 -0.0700 -0.0057
  517TIP3    H125746   0.296   3.819   9.330 -1.0684 -1.2471  1.2394
  517TIP3    H225747   0.243   3.960   9.346  1.3630  0.0084 -0.9494
  518TIP3   OH225748   5.847   5.775   8.507  0.4109  0.3668  0.0548
  518TIP3    H125749   5.849   5.696   8.452 -4.8092 -0.1222  0.0875
  518TIP3    H225750   5.880   5.745   8.592 -0.4485 -1.5429 -0.2323
  519TIP3   OH225751   3.673   0.063   9.755 -0.1382 -0.0076 -0.4396
  519TIP3    H125752   3.609   0.044   9.824 -0.9162 -1.1417 -1.4399
  519TIP3    H225753   3.673   0.159   9.748  0.3488  0.1704  1.4678
  520TIP3   OH225754   2.015   0.993   6.575 -0.5599  0.5527  0.6675
  520TIP3    H125755   1.951   0.928   6.548 -1.1503  1.7915 -1.1090
  520TIP3    H225756   2.097   0.945   6.583 -1.2113 -0.6030  0.5495
  521TIP3   OH225757   6.243   0.063   8.911 -0.0929 -0.2963 -0.2288
  521TIP3    H125758   6.160   0.104   8.935  0.1964 -0.0967  0.4470
  521TIP3    H225759   6.306   0.135   8.910  0.4279 -0.7113  1.0080
  522TIP3   OH225760   5.440   1.015   8.374  0.3809 -0.1497  0.2111
  522TIP3    H125761   5.501   1.078   8.412  0.1106  0.5423 -0.4672
  522TIP3    H225762   5.360   1.025   8.425  0.9760 -1.4202  1.4321
  523TIP3   OH225763   2.737   6.655   8.366  0.4021 -0.0432  0.4422
  523TIP3    H125764   2.748   6.585   8.301  0.4223  1.0969 -0.8372
  523TIP3    H225765   2.798   6.634   8.436 -0.0378 -1.6276  0.3756
  524TIP3   OH225766   7.284   1.716   8.252 -0.3117  0.0825 -0.0668
  524TIP3    H125767   7.298   1.737   8.160  1.2410  0.3288  0.1898
  524TIP3    H225768   7.192   1.689   8.257 -1.3103  2.8628 -1.1617
  525TIP3   OH225769   1.160   5.720   6.882 -0.3612  0.1597 -0.1403
  525TIP3    H125770   1.227   5.671   6.931 -2.0297 -0.3904  1.6947
  525TIP3    H225771   1.149   5.671   6.801  1.8949  0.6365 -0.8164
  526TIP3   OH225772   6.626   3.503   6.557  0.3446  0.3502  0.0706
  526TIP3    H125773   6.539   3.542   6.559  0.7664  1.5573 -1.6457
  526TIP3    H225774   6.617   3.418   6.600 -1.3540  1.0186  1.1012
  527TIP3   OH225775   1.924   3.404   8.605  0.2198  0.4816 -0.4482
  527TIP3    H125776   1.974   3.337   8.651  0.3133 -0.0107 -1.2456
  527TIP3    H225777   1.865   3.440   8.671 -0.0822 -0.6255 -0.1004
  528TIP3   OH225778   1.078   2.438   8.399 -0.4150 -0.1453  0.1729
  528TIP3    H125779   0.999   2.418   8.349 -0.0478 -1.9963  0.2573
  528TIP3    H225780   1.109   2.521   8.363 -1.1433 -0.5219 -1.4212
  529TIP3   OH225781   6.061   3.061   7.664  0.1651 -0.2575  0.7022
  529TIP3    H125782   5.966   3.057   7.668  0.1568 -2.1091 -0.3657
  529TIP3    H225783   6.091   3.003   7.734  0.3781 -3.1875 -1.6116
  530TIP3   OH225784   5.150   6.915   7.903  0.0668 -0.1070  0.1449
  530TIP3    H125785   5.197   6.931   7.821  2.5659 -1.7142  1.1657
  530TIP3    H225786   5.155   6.821   7.915 -3.6901 -0.4347  0.2773
  531TIP3   OH225787   7.612   5.929   9.163 -0.1344 -0.7339 -0.0617
  531TIP3    H125788   7.600   5.932   9.068 -0.6076 -0.8700 -0.0055
  531TIP3    H225789   7.564   6.005   9.196 -0.7965 -1.2462  0.1576
  532TIP3   OH225790   4.205   5.289   9.029  0.0808 -0.5145 -0.2261
  532TIP3    H125791   4.232   5.286   9.121  3.2618 -0.0898 -1.0266
  532TIP3    H225792   4.239   5.207   8.992 -2.1453 -1.2260 -0.8785
  533TIP3   OH225793   2.744   0.864   8.039 -0.5087  0.4105  0.0043
  533TIP3    H125794   2.806   0.934   8.057 -0.9539  0.7433  0.2768
  533TIP3    H225795   2.712   0.882   7.950  1.3014 -0.9375 -0.9907
  534TIP3   OH225796   0.073   4.577   8.170 -0.0456  0.2682 -0.1066
  534TIP3    H125797  -0.008   4.569   8.219 -0.8043 -0.9354 -1.4583
  534TIP3    H225798   0.118   4.652   8.209 -1.4249  0.4667  1.1905
  535TIP3   OH225799   1.008   5.778   8.806  0.5721  0.4256  0.4467
  535TIP3    H125800   0.996   5.873   8.798  0.6385  0.3737 -0.3444
  535TIP3    H225801   0.941   5.751   8.868 -0.5605  0.7624 -0.5789
  536TIP3   OH225802   0.300   6.496   7.358 -0.5898 -0.6340  0.2440
  536TIP3    H125803   0.233   6.442   7.316  0.5698 -0.1873 -2.3999
  536TIP3    H225804   0.321   6.450   7.439 -1.0247 -3.1379 -0.9790
  537TIP3   OH225805   3.672   0.587   9.742  0.2575 -0.3740  0.7303
  537TIP3    H125806   3.645   0.605   9.652  0.1989  0.4900  0.9145
  537TIP3    H225807   3.590   0.574   9.789  0.2300  0.3974  0.9058
  538TIP3   OH225808   6.443   4.441   7.342 -0.2770  0.1968  0.0172
  538TIP3    H125809   6.356   4.459   7.379 -0.1098  0.0684  0.4832
  538TIP3    H225810   6.425   4.415   7.252 -0.8098 -0.7127  0.3585
  539TIP3   OH225811   0.419   7.337   9.421  0.6233 -0.0907 -0.0607
  539TIP3    H125812   0.379   7.387   9.350 -0.9958 -2.0571 -0.6356
  539TIP3    H225813   0.438   7.402   9.488  0.7890  1.6048 -1.6665
  540TIP3   OH225814   7.662   5.009   8.389 -0.6580  0.0412  0.1281
  540TIP3    H125815   7.706   5.080   8.437  0.5812 -0.4237 -0.2850
  540TIP3    H225816   7.620   4.957   8.457 -2.2038  1.5555  0.3876
  541TIP3   OH225817   6.375   2.249   8.918  0.5560 -0.0829 -0.1518
  541TIP3    H125818   6.412   2.301   8.989 -1.5374  0.8335  0.3303
  541TIP3    H225819   6.281   2.264   8.923  0.2113 -1.1292 -2.2399
  542TIP3   OH225820   7.630   3.832   6.797  0.4553  0.1249 -0.0813
  542TIP3    H125821   7.690   3.779   6.850  0.2763 -1.1455 -1.1130
  542TIP3    H225822   7.562   3.859   6.859  0.5056 -0.9318  0.4518
  543TIP3   OH225823   4.985   5.052   7.030  0.7297  0.6496 -0.6292
  543TIP3    H125824   4.941   5.137   7.042  1.0623  0.8358 -0.7181
  543TIP3    H225825   5.077   5.071   7.045  0.7578  0.2207 -0.2709
  544TIP3   OH225826   3.946   4.876   7.243  0.0006 -0.1049 -0.4444
  544TIP3    H125827   3.974   4.788   7.269  1.2965  0.3205 -0.3194
  544TIP3    H225828   3.969   4.882   7.150 -1.6116 -0.4554 -0.9061
  545TIP3   OH225829   7.077   5.057   7.131  0.0518 -0.6244  0.1530
  545TIP3    H125830   7.117   5.002   7.064 -2.1580 -1.4653 -0.5841
  545TIP3    H225831   7.033   5.126   7.081  1.0430  0.6279  0.9566
  546TIP3   OH225832   0.665   3.562   8.026  0.2326 -0.0117  0.2409
  546TIP3    H125833   0.681   3.656   8.036 -0.2870  0.2644 -1.1846
  546TIP3    H225834   0.744   3.528   7.984 -0.1403  0.0849 -0.5747
  547TIP3   OH225835   6.628   4.366   8.728  0.0226 -0.2263  0.3578
  547TIP3    H125836   6.609   4.302   8.797 -1.7862 -0.5289 -0.3982
  547TIP3    H225837   6.553   4.424   8.728  1.2904  1.5044  0.5081
  548TIP3   OH225838   6.747   4.678   6.787  0.1788 -0.1601  0.1270
  548TIP3    H125839   6.770   4.759   6.742  3.5135 -1.6135 -1.0681
  548TIP3    H225840   6.681   4.637   6.731  0.0183  0.7238 -0.3505
  549TIP3   OH225841   7.405   6.500   7.666 -0.1106 -0.2267 -0.1405
  549TIP3    H125842   7.496   6.520   7.684 -0.5131  0.4924  1.1914
  549TIP3    H225843   7.369   6.581   7.628 -0.9109  0.5787  2.1598
  550TIP3   OH225844   1.219   6.146   8.663 -0.4775 -1.4170  0.3071
  550TIP3    H125845   1.313   6.146   8.645  0.1658  3.6777  1.8915
  550TIP3    H225846   1.178   6.153   8.577  1.1750  2.1227 -0.3849
  551TIP3   OH225847   6.731   6.667   8.416 -0.6169  0.2686 -0.3593
  551TIP3    H125848   6.667   6.725   8.375 -0.6412 -0.2560 -1.0829
  551TIP3    H225849   6.738   6.592   8.356 -0.4070 -0.3624  0.4371
  552TIP3   OH225850   1.486   6.629   8.166 -0.7119  0.8332  0.3763
  552TIP3    H125851   1.444   6.569   8.104  0.6605  0.0328  0.2063
  552TIP3    H225852   1.427   6.630   8.242 -0.0934 -1.8338  0.9708
  553TIP3   OH225853   2.521   5.134   9.281  0.1142  0.0446  0.2287
  553TIP3    H125854   2.560   5.115   9.195 -2.3063 -0.8434 -0.7601
  553TIP3    H225855   2.535   5.228   9.293  0.6262  0.1637 -1.0641
  554TIP3   OH225856   6.762   2.274   8.956 -0.4168 -0.2150  0.6022
  554TIP3    H125857   6.854   2.291   8.934 -0.1147 -1.4395  0.8448
  554TIP3    H225858   6.712   2.334   8.901  0.4244 -1.2836 -1.4328
  555TIP3   OH225859   3.997   0.438   7.517  0.5980 -0.0385  0.1927
  555TIP3    H125860   3.960   0.521   7.486 -0.3742 -0.7642 -0.6662
  555TIP3    H225861   4.031   0.457   7.604 -1.2178  0.8431  0.7484
  556TIP3   OH225862   0.657   2.816   7.241 -0.2856 -0.7253  0.0700
  556TIP3    H125863   0.587   2.790   7.181 -0.7192  0.7852 -0.1197
  556TIP3    H225864   0.616   2.811   7.328 -0.1632 -1.2885  0.1004
  557TIP3   OH225865   2.558   5.416   9.326 -0.0033 -0.5003 -0.4643
  557TIP3    H125866   2.502   5.432   9.403 -0.6147 -1.1882 -0.7553
  557TIP3    H225867   2.633   5.473   9.340 -1.3177  1.3830 -0.6408
  558TIP3   OH225868   2.717   5.181   8.340 -0.0007  0.0250 -0.0314
  558TIP3    H125869   2.719   5.086   8.335 -1.6820 -0.0533  0.1036
  558TIP3    H225870   2.683   5.209   8.255 -1.6320  0.3503  0.6931
  559TIP3   OH225871   3.605   2.844   9.538  0.1213 -0.2654  0.1016
  559TIP3    H125872   3.558   2.767   9.508  1.0888 -0.8670  0.0895
  559TIP3    H225873   3.680   2.809   9.587  1.1502  0.6229 -0.7665
  560TIP3   OH225874   6.866   1.423   6.918  0.2106 -0.6237 -0.8749
  560TIP3    H125875   6.812   1.495   6.887  1.6974  1.5387  1.1863
  560TIP3    H225876   6.805   1.363   6.960 -0.7357  1.8055  1.5026
  561TIP3   OH225877   0.977   7.350   8.224  0.4425  0.1336 -0.0603
  561TIP3    H125878   0.924   7.283   8.179  0.9558  0.0873 -0.6195
  561TIP3    H225879   0.963   7.430   8.172 -1.4311  0.9089  1.5160
  562TIP3   OH225880   3.178   2.393   8.956 -0.0434 -0.4320 -0.0126
  562TIP3    H125881   3.183   2.467   9.016  0.5178 -1.1346  0.8339
  562TIP3    H225882   3.093   2.353   8.974  0.0547 -0.5446  0.2118
  563TIP3   OH225883   0.100   2.311   7.398  0.6133 -0.0626  0.3001
  563TIP3    H125884   0.102   2.291   7.304 -1.5581  1.3863 -0.1070
  563TIP3    H225885   0.156   2.387   7.408 -0.1696  0.5747 -0.0658
  564TIP3   OH225886   2.118   1.949   8.477 -0.0294 -0.4262 -0.8114
  564TIP3    H125887   2.060   1.873   8.480  1.5971 -1.7612 -1.6283
  564TIP3    H225888   2.182   1.933   8.546  0.1180  0.4027 -0.7457
  565TIP3   OH225889   6.033   6.706   9.476  0.1947  0.0750  0.5140
  565TIP3    H125890   6.090   6.651   9.530 -0.4752  0.2474  1.4234
  565TIP3    H225891   6.080   6.716   9.394  0.8951 -0.8340  0.7871
  566TIP3   OH225892   7.503   1.547   9.679 -0.0112  0.3680 -0.3708
  566TIP3    H125893   7.502   1.521   9.588 -0.0548 -0.6665 -0.0818
  566TIP3    H225894   7.590   1.523   9.711  0.6967  2.4273 -0.5997
  567TIP3   OH225895   4.727   7.628   8.278  0.0949  0.2330  0.4159
  567TIP3    H125896   4.658   7.647   8.341  0.5902 -0.5740  1.2316
  567TIP3    H225897   4.685   7.575   8.211  0.3516 -2.2591  2.0884
  568TIP3   OH225898   4.729   7.229   8.788  0.2732  0.1024  0.3436
  568TIP3    H125899   4.790   7.160   8.814 -1.3171 -0.8001  1.8832
  568TIP3    H225900   4.738   7.234   8.693  1.9224 -0.7567  0.4222
  569TIP3   OH225901   7.630   7.654   7.407  0.0823 -0.0788 -0.1532
  569TIP3    H125902   7.676   7.618   7.331 -0.4693 -2.8168  0.6651
  569TIP3    H225903   7.684   7.630   7.481 -2.1273 -2.8027  0.7738
  570TIP3   OH225904   5.352   6.352   7.341 -0.8348  0.0410 -0.1179
  570TIP3    H125905   5.298   6.431   7.340 -0.3717  0.3687  0.2088
  570TIP3    H225906   5.405   6.358   7.262 -0.1440  0.5355  0.3612
  571TIP3   OH225907   6.124   1.347   8.400 -0.4220 -0.3004 -0.3925
  571TIP3    H125908   6.202   1.329   8.347  0.9269  2.4088  0.4605
  571TIP3    H225909   6.073   1.408   8.347  0.5895  1.8654  1.0037
  572TIP3   OH225910   2.759   2.796   8.374 -0.0192 -0.3500 -0.1355
  572TIP3    H125911   2.676   2.830   8.406 -0.1594  1.6536 -2.3737
  572TIP3    H225912   2.736   2.738   8.302  0.5019  1.2130 -1.6159
  573TIP3   OH225913   3.777   7.448   7.497  0.2117 -0.1728  0.3341
  573TIP3    H125914   3.745   7.359   7.512  1.0456 -0.2241  2.0175
  573TIP3    H225915   3.862   7.435   7.454 -0.3401 -0.1214 -0.8185
  574TIP3   OH225916   0.276   2.324   9.360 -0.4703  0.4493 -0.0948
  574TIP3    H125917   0.301   2.231   9.356 -0.2184  0.5282 -0.3807
  574TIP3    H225918   0.205   2.327   9.424  0.6042  0.2936  1.1489
  575TIP3   OH225919   7.227   1.646   7.982  0.7992  0.0040  0.1080
  575TIP3    H125920   7.188   1.653   7.895  0.7595 -1.1739  0.0256
  575TIP3    H225921   7.272   1.562   7.983  0.8346  0.0146  1.2188
  576TIP3   OH225922   7.669   0.343   7.719  0.1527 -0.1619 -0.0925
  576TIP3    H125923   7.660   0.310   7.629 -0.1540 -1.9557  0.5559
  576TIP3    H225924   7.742   0.293   7.756  1.3074  1.6632  0.2190
  577TIP3   OH225925   5.457   0.279   9.633 -0.5087 -0.2164  0.1226
  577TIP3    H125926   5.429   0.325   9.554  0.0473  0.4841  0.3199
  577TIP3    H225927   5.419   0.330   9.705  1.1934  0.7708  0.3992
  578TIP3   OH225928   0.792   5.670   8.926  0.1050  0.0614  0.0347
  578TIP3    H125929   0.697   5.657   8.928  0.2246 -1.3379 -1.2585
  578TIP3    H225930   0.820   5.657   9.016 -0.8506 -0.2045  0.3052
  579TIP3   OH225931   4.494   1.544   7.190  0.0246  0.0762 -0.6522
  579TIP3    H125932   4.481   1.454   7.161  0.0260 -0.3518  0.6236
  579TIP3    H225933   4.493   1.596   7.109  1.2435 -1.1891 -1.5253
  580TIP3   OH225934   0.628   1.213   9.461  0.8558  0.4861 -0.0353
  580TIP3    H125935   0.681   1.279   9.506  1.2680  1.4393 -1.8369
  580TIP3    H225936   0.691   1.147   9.432  1.0715  1.3674 -1.7351
  581TIP3   OH225937   3.900   7.060   8.094 -0.5603 -0.6706  0.1154
  581TIP3    H125938   3.936   7.068   8.183 -2.2778 -1.4246  0.9193
  581TIP3    H225939   3.836   6.990   8.100 -0.8594 -0.5997 -1.7000
  582TIP3   OH225940   2.170   3.305   7.693  0.3737  0.2635 -0.1402
  582TIP3    H125941   2.178   3.338   7.604  1.0567  0.6534  0.0624
  582TIP3    H225942   2.122   3.222   7.683  0.3919  0.3318 -0.8573
  583TIP3   OH225943   7.376   7.085   9.202 -0.5552 -0.1181  0.1558
  583TIP3    H125944   7.282   7.080   9.215 -0.6190 -0.9635 -0.5627
  583TIP3    H225945   7.411   7.007   9.245  0.0939  1.3698  2.5221
  584TIP3   OH225946   0.640   5.924   8.010 -0.5267  0.0895  0.5472
  584TIP3    H125947   0.640   5.837   7.970  0.9620 -1.2717  3.1792
  584TIP3    H225948   0.661   5.984   7.939 -0.2415 -1.8562 -1.0969
  585TIP3   OH225949   4.393   5.957   7.935 -0.0763  0.6041 -0.4565
  585TIP3    H125950   4.464   6.018   7.914 -0.4380  0.9880 -0.5632
  585TIP3    H225951   4.398   5.891   7.866 -1.6591  2.1969 -2.1929
  586TIP3   OH225952   4.665   4.708   7.458  0.2437 -0.0654  0.4100
  586TIP3    H125953   4.628   4.767   7.523 -1.0241  0.2986 -0.5929
  586TIP3    H225954   4.605   4.633   7.456  1.9051 -1.5176  1.7656
  587TIP3   OH225955   5.042   7.264   6.966 -0.2737 -0.2348  0.1865
  587TIP3    H125956   5.086   7.313   6.896 -0.2565 -1.1337 -0.4403
  587TIP3    H225957   4.966   7.224   6.924 -0.7724 -0.0539  0.8941
  588TIP3   OH225958   0.267   2.588   8.437  0.5682  0.5100  0.0859
  588TIP3    H125959   0.343   2.534   8.415  2.3515  1.7194  2.7468
  588TIP3    H225960   0.277   2.666   8.382  0.3009 -0.0149 -0.7335
  589TIP3   OH225961   6.214   3.602   8.704 -0.1543 -0.6026 -0.2708
  589TIP3    H125962   6.176   3.553   8.776 -2.4196  1.5870  0.1701
  589TIP3    H225963   6.141   3.650   8.665  1.7308  1.9754 -0.9749
  590TIP3   OH225964   3.534   2.584   9.027  0.2293  0.4064  0.1137
  590TIP3    H125965   3.577   2.632   9.098 -0.2790 -2.3908  2.5397
  590TIP3    H225966   3.580   2.500   9.024 -1.5405 -0.5903 -0.9683
  591TIP3   OH225967   0.549   2.196   7.573 -0.5227  0.1732 -0.1993
  591TIP3    H125968   0.493   2.136   7.621 -1.2381  0.2163 -0.9640
  591TIP3    H225969   0.638   2.163   7.588 -0.9088 -1.1843 -0.7559
  592TIP3   OH225970   2.967   4.261   7.232 -0.1926 -0.0881 -0.1338
  592TIP3    H125971   2.933   4.300   7.312  1.0490  0.1870  0.2953
  592TIP3    H225972   2.897   4.203   7.201 -0.7362 -0.1241  1.0916
  593TIP3   OH225973   5.732   2.066   7.518 -0.3301  0.1648 -0.1760
  593TIP3    H125974   5.648   2.103   7.547 -0.5029  0.7268 -1.2913
  593TIP3    H225975   5.707   1.993   7.461 -0.0419 -0.1748  0.1347
  594TIP3   OH225976   3.049   1.892   8.864 -0.2549  0.1752 -0.1110
  594TIP3    H125977   3.069   1.945   8.941 -1.4624  0.7415 -0.1510
  594TIP3    H225978   2.992   1.949   8.811  1.4452  0.2379 -1.9817
  595TIP3   OH225979   7.417   6.339   8.070  0.1581  0.1517 -0.1899
  595TIP3    H125980   7.496   6.304   8.029 -0.4021  0.0141 -1.1739
  595TIP3    H225981   7.349   6.329   8.004 -0.6305  0.5153  0.5490
  596TIP3   OH225982   2.439   3.815   8.522  0.2674 -0.5659 -0.6348
  596TIP3    H125983   2.344   3.825   8.515 -0.1002 -2.9105  0.0779
  596TIP3    H225984   2.459   3.839   8.612  0.2231 -0.8962 -0.5370
  597TIP3   OH225985   5.325   0.125   8.989 -0.1203 -0.4717 -0.4302
  597TIP3    H125986   5.248   0.104   8.937 -0.2189  0.5631 -0.7172
  597TIP3    H225987   5.310   0.080   9.072 -0.9808 -0.3762 -0.5216
  598TIP3   OH225988   7.138   6.771   8.002  0.3532 -0.0670 -0.4637
  598TIP3    H125989   7.203   6.823   7.955  0.9724  0.4642  0.9279
  598TIP3    H225990   7.068   6.833   8.024  0.2934 -0.1977 -0.2753
  599TIP3   OH225991   6.706   4.981   8.689 -0.4525 -0.2229  0.1880
  599TIP3    H125992   6.760   4.967   8.611 -0.9139  1.6077 -0.5165
  599TIP3    H225993   6.753   5.048   8.738 -0.8520 -0.3918  0.8044
  600TIP3   OH225994   5.842   5.265   8.306 -0.5188  0.7176  0.2777
  600TIP3    H125995   5.846   5.196   8.240 -3.9232  1.6286 -1.0764
  600TIP3    H225996   5.766   5.243   8.360 -0.4102  2.3037  1.1487
  601TIP3   OH225997   5.521   5.941   8.925  0.0580 -0.2260 -0.1229
  601TIP3    H125998   5.584   5.993   8.875  2.7007 -1.6346  1.5555
  601TIP3    H225999   5.500   5.867   8.868  0.7881 -0.3294 -0.2588
  602TIP3   OH226000   1.948   5.047   9.100  0.2405 -0.1614  0.4140
  602TIP3    H126001   1.874   5.106   9.090  0.3831  0.2941  1.8310
  602TIP3    H226002   1.962   5.042   9.195  1.2946 -1.1454  0.2298
  603TIP3   OH226003   0.588   5.451   8.768  0.1283 -0.0030 -0.8065
  603TIP3    H126004   0.566   5.522   8.829 -1.1650 -0.5258 -0.6282
  603TIP3    H226005   0.587   5.493   8.681  3.4475  1.0852 -0.4461
  604TIP3   OH226006   1.248   1.175   6.784  0.5318  0.5950 -0.4965
  604TIP3    H126007   1.303   1.097   6.779 -0.8200 -0.6696  2.3366
  604TIP3    H226008   1.167   1.150   6.740 -0.0787  0.1703  0.8186
  605TIP3   OH226009   6.249   3.721   6.812  0.5331  0.3174  0.2296
  605TIP3    H126010   6.178   3.671   6.854 -1.9432  3.9773  0.9919
  605TIP3    H226011   6.300   3.755   6.886  0.1630  1.4269  0.0084
  606TIP3   OH226012   3.963   3.398   7.313 -0.0419  0.0782 -0.2317
  606TIP3    H126013   3.995   3.466   7.253 -1.3911  0.0584 -1.0206
  606TIP3    H226014   3.894   3.442   7.364  0.1058 -0.3061  0.3097
  607TIP3   OH226015   6.132   1.580   6.580 -0.2433 -0.6280  0.3623
  607TIP3    H126016   6.221   1.549   6.562  0.2134  1.9069 -2.5856
  607TIP3    H226017   6.075   1.509   6.550  0.7809 -0.2722 -2.7360
  608TIP3   OH226018   3.525   4.375   7.723  0.3165 -0.2608 -0.2531
  608TIP3    H126019   3.458   4.424   7.677  0.3880 -1.3531 -1.5781
  608TIP3    H226020   3.491   4.365   7.812 -0.2707  1.0259 -0.3020
  609TIP3   OH226021   5.975   0.825   7.803 -0.4608  0.2869  0.1124
  609TIP3    H126022   6.037   0.752   7.806  0.2537  0.8457 -0.7900
  609TIP3    H226023   5.932   0.822   7.889 -1.7395 -2.2842 -0.5080
  610TIP3   OH226024   4.451   3.038   8.678  0.0889  0.2873  0.2738
  610TIP3    H126025   4.482   2.994   8.757 -0.5842 -1.8983 -0.5956
  610TIP3    H226026   4.381   3.096   8.709  2.0486  2.0364  1.6611
  611TIP3   OH226027   3.424   1.710   9.495 -0.1187  0.2852  0.3358
  611TIP3    H126028   3.462   1.775   9.554  1.4438  1.1444 -1.5194
  611TIP3    H226029   3.344   1.750   9.462  1.0033  1.4883 -1.0496
  612TIP3   OH226030   0.667   4.139   8.218  0.2547 -0.2582 -0.7930
  612TIP3    H126031   0.694   4.059   8.262 -0.4647 -1.6934 -2.7942
  612TIP3    H226032   0.742   4.198   8.227  0.8479 -1.1839  0.6253
  613TIP3   OH226033   6.610   1.633   8.800 -0.7789 -0.0984  0.5428
  613TIP3    H126034   6.658   1.557   8.769 -1.0803 -0.5247  1.0958
  613TIP3    H226035   6.663   1.667   8.872 -0.1804  0.7685 -0.2885
  614TIP3   OH226036   1.695   4.442   8.114 -0.4105 -0.5038  0.0570
  614TIP3    H126037   1.785   4.423   8.084 -0.1787 -1.2040  1.1491
  614TIP3    H226038   1.655   4.488   8.040  0.4362 -1.3432 -0.9610
  615TIP3   OH226039   1.582   7.436   8.355  0.3940  0.1376  0.2014
  615TIP3    H126040   1.512   7.410   8.416 -0.1697  2.1253  0.4879
  615TIP3    H226041   1.541   7.431   8.269 -0.2337  1.5333  0.3871
  616TIP3   OH226042   2.926   3.536   7.418  0.1665 -0.0657  0.2225
  616TIP3    H126043   3.021   3.533   7.423  0.1791 -0.5818 -0.2310
  616TIP3    H226044   2.904   3.488   7.338 -0.4183  0.9754 -0.2625
  617TIP3   OH226045   4.570   2.180   8.482 -0.4576 -0.8190  0.1471
  617TIP3    H126046   4.500   2.244   8.471 -0.5728 -0.6314  1.7221
  617TIP3    H226047   4.534   2.117   8.545 -0.7445 -3.0601 -2.1320
  618TIP3   OH226048   2.029   0.882   7.615 -0.5989  0.0865  0.2182
  618TIP3    H126049   2.049   0.835   7.534 -1.4904  0.5066 -0.2630
  618TIP3    H226050   2.065   0.970   7.601 -2.0547  0.6313 -0.3702
  619TIP3   OH226051   2.949   1.405   9.092  0.4157  0.0872  0.0989
  619TIP3    H126052   2.872   1.447   9.053  1.4294  1.6142 -0.3293
  619TIP3    H226053   3.001   1.376   9.017  1.0941  0.6304  0.3552
  620TIP3   OH226054   2.372   5.786   7.445  0.0245 -0.1008 -0.8597
  620TIP3    H126055   2.286   5.745   7.453  0.3660 -0.6776  0.1468
  620TIP3    H226056   2.427   5.719   7.404 -0.2136  0.6060 -2.3815
  621TIP3   OH226057   7.620   3.917   8.026  0.4901  0.0231  0.5425
  621TIP3    H126058   7.680   3.861   7.977  1.1972  0.6501  0.6750
  621TIP3    H226059   7.579   3.972   7.959  0.6150  0.1006  0.5284
  622TIP3   OH226060   3.379   0.726   9.162 -0.1967 -0.1130 -0.7861
  622TIP3    H126061   3.377   0.651   9.222 -1.5518  0.9358  0.5624
  622TIP3    H226062   3.465   0.765   9.177 -0.1746 -0.3773 -0.1573
  623TIP3   OH226063   6.908   0.113   6.915  0.0036 -0.1880 -0.0931
  623TIP3    H126064   6.916   0.036   6.859  0.4261  0.6189 -1.2113
  623TIP3    H226065   6.863   0.178   6.859 -1.9951 -0.1850  1.4266
  624TIP3   OH226066   7.277   2.056   8.918  0.2783  0.3264  0.7263
  624TIP3    H126067   7.291   1.981   8.860 -0.2063  1.1586 -0.5230
  624TIP3    H226068   7.305   2.026   9.004 -0.4565 -1.4889  0.3840
  625TIP3   OH226069   5.105   7.655   7.340  0.2528  1.1561 -0.2799
  625TIP3    H126070   5.039   7.724   7.341 -1.7642 -0.4546 -3.5880
  625TIP3    H226071   5.176   7.691   7.288 -0.3065  1.1804 -1.0499
  626TIP3   OH226072   5.790   7.250   7.745  0.1908 -0.0195  0.3385
  626TIP3    H126073   5.727   7.187   7.781 -1.0255  0.0342 -1.5764
  626TIP3    H226074   5.851   7.266   7.817 -1.4939 -0.7162  2.0132
  627TIP3   OH226075   4.514   5.415   7.967  0.7574 -0.6028  0.2035
  627TIP3    H126076   4.451   5.444   8.033 -1.6498 -2.5707 -1.0703
  627TIP3    H226077   4.509   5.482   7.899  1.1016 -0.0591  0.6988
  628TIP3   OH226078   4.468   7.538   8.878 -0.2891  0.4668 -0.5627
  628TIP3    H126079   4.556   7.576   8.885  0.6890 -1.0923 -3.0683
  628TIP3    H226080   4.410   7.614   8.869  0.7379  1.5210  1.1225
  629TIP3   OH226081   7.196   2.698   9.338 -0.0413 -0.4737 -0.1110
  629TIP3    H126082   7.289   2.705   9.360  0.6092  1.2359 -2.9401
  629TIP3    H226083   7.186   2.608   9.306  0.5331 -0.7867  0.5654
  630TIP3   OH226084   6.204   7.298   8.523  0.7915 -0.1643 -0.5012
  630TIP3    H126085   6.296   7.274   8.518  0.4357 -1.7869  0.1586
  630TIP3    H226086   6.158   7.232   8.472 -0.0742  0.1779 -0.1943
  631TIP3   OH226087   0.370   5.627   7.470  0.3676 -0.0910 -0.0783
  631TIP3    H126088   0.381   5.611   7.564  0.3684 -0.9414 -0.2148
  631TIP3    H226089   0.369   5.723   7.462  1.6050  0.0080  0.6438
  632TIP3   OH226090   3.778   0.311   9.712  0.1448  0.1610  0.1812
  632TIP3    H126091   3.857   0.331   9.663 -0.0891  1.0027  0.1172
  632TIP3    H226092   3.749   0.396   9.745  0.5134 -0.4242  2.1341
  633TIP3   OH226093   6.724   1.937   8.740 -0.3603 -0.1070 -0.5529
  633TIP3    H126094   6.760   1.852   8.765  1.8961  0.9439 -0.0257
  633TIP3    H226095   6.798   1.997   8.743 -1.6632  1.6965 -1.9567
  634TIP3   OH226096   6.852   6.677   8.646 -0.1130  0.5077 -0.4692
  634TIP3    H126097   6.822   6.744   8.707 -0.7042  0.5982 -0.8431
  634TIP3    H226098   6.786   6.678   8.576 -0.4685 -0.8683 -0.1921
  635TIP3   OH226099   0.196   3.519   8.903  0.5468 -0.0672  0.2467
  635TIP3    H126100   0.194   3.592   8.965 -2.4431 -1.4430  1.9959
  635TIP3    H226101   0.164   3.557   8.821  1.5885  1.1309  0.3783
  636TIP3   OH226102   2.319   0.284   7.246  0.5173  0.1643 -0.3494
  636TIP3    H126103   2.378   0.328   7.184  2.3290 -1.6872 -0.0504
  636TIP3    H226104   2.268   0.224   7.193 -1.6891  2.1818 -0.6987
  637TIP3   OH226105   3.527   3.890   7.572 -0.3167 -0.0124 -0.0457
  637TIP3    H126106   3.503   3.942   7.649 -2.5877  0.3193 -0.9018
  637TIP3    H226107   3.447   3.843   7.549  0.9174 -1.7668 -0.9529
  638TIP3   OH226108   1.694   5.386   7.626  0.0201 -0.1389 -0.5195
  638TIP3    H126109   1.628   5.433   7.676  0.1481  0.0291 -0.5066
  638TIP3    H226110   1.703   5.302   7.671 -0.3458 -0.2539 -0.6547
  639TIP3   OH226111   6.461   1.759   8.227  0.0896 -0.0244 -0.7308
  639TIP3    H126112   6.502   1.832   8.180  0.5219  0.8510  0.9211
  639TIP3    H226113   6.482   1.775   8.319  0.2527 -2.2912 -0.3094
  640TIP3   OH226114   3.745   6.626   6.940  0.3615  0.4415  0.0845
  640TIP3    H126115   3.840   6.634   6.942  0.5687 -1.2715 -1.2438
  640TIP3    H226116   3.718   6.644   7.030  1.8860  1.2770  0.4162
  641TIP3   OH226117   6.866   0.857   7.744 -0.2571  0.7216 -0.5881
  641TIP3    H126118   6.795   0.817   7.794 -1.0855  2.3502 -0.3938
  641TIP3    H226119   6.829   0.939   7.710  0.9582  0.7161 -2.0461
  642TIP3   OH226120   4.446   2.971   7.663 -0.1829 -0.2783 -0.3544
  642TIP3    H126121   4.509   2.984   7.592 -1.6055  1.4227 -1.3865
  642TIP3    H226122   4.491   2.914   7.725  1.7364 -0.4513 -1.8201
  643TIP3   OH226123   5.079   1.175   8.241  0.5284 -0.1457  0.1085
  643TIP3    H126124   5.067   1.240   8.172  1.2157 -0.1625 -0.0382
  643TIP3    H226125   4.992   1.164   8.279  0.2279  0.1954 -0.4577
  644TIP3   OH226126   4.692   4.710   8.262  0.0043  0.3282  0.0760
  644TIP3    H126127   4.655   4.796   8.283 -1.7209 -0.3083 -0.1982
  644TIP3    H226128   4.641   4.679   8.187 -1.3096 -2.0966  1.8361
  645TIP3   OH226129   2.062   3.469   7.904  0.3367  0.0361  0.2751
  645TIP3    H126130   2.054   3.551   7.856 -2.1179 -1.3401 -1.9657
  645TIP3    H226131   2.110   3.410   7.845  1.1305 -0.4792  1.3895
  646TIP3   OH226132   2.188   1.897   9.177  0.2949 -0.7539  0.2516
  646TIP3    H126133   2.260   1.903   9.241  1.0466 -1.1412 -0.5432
  646TIP3    H226134   2.229   1.863   9.098 -0.9824 -2.0501  0.1138
  647TIP3   OH226135   3.476   2.247   9.589  0.1930 -0.1857  0.0469
  647TIP3    H126136   3.536   2.320   9.577 -2.1158  1.7661 -0.3628
  647TIP3    H226137   3.391   2.281   9.563 -1.0321 -3.0056 -0.0054
  648TIP3   OH226138   1.126   1.020   8.007  0.4995  0.0236  0.6130
  648TIP3    H126139   1.203   1.051   8.054  0.9973  0.2494 -0.3211
  648TIP3    H226140   1.136   1.055   7.919 -0.3279 -0.5216  0.2857
  649TIP3   OH226141   0.002   3.168   7.003 -0.0825  0.1623 -0.8165
  649TIP3    H126142  -0.078   3.123   6.977 -2.7313  3.0559  1.5559
  649TIP3    H226143   0.039   3.201   6.920 -2.3906  0.3044 -1.8558
  650TIP3   OH226144   7.267   4.498   8.214 -0.1027 -0.0344  0.3420
  650TIP3    H126145   7.361   4.482   8.207 -0.1442 -0.3894  0.6012
  650TIP3    H226146   7.247   4.552   8.137  0.5021  0.9156  0.8224
  651TIP3   OH226147   0.032   6.331   7.669 -0.1626 -0.4068  0.4896
  651TIP3    H126148   0.116   6.301   7.633 -0.5485 -0.8739 -0.0539
  651TIP3    H226149   0.025   6.422   7.640  0.3713 -0.2152  0.9437
  652TIP3   OH226150   6.401   1.374   9.514 -0.1253 -0.0529 -0.0279
  652TIP3    H126151   6.321   1.412   9.478 -0.9778 -0.8563  0.9364
  652TIP3    H226152   6.450   1.449   9.549 -0.9777  0.3438  0.3479
  653TIP3   OH226153   6.083   3.947   6.736  0.1951  0.4665 -0.2060
  653TIP3    H126154   6.155   3.891   6.766 -0.9235 -0.5602  0.6788
  653TIP3    H226155   6.081   3.933   6.641  0.7285 -0.0423 -0.1512
  654TIP3   OH226156   5.902   2.337   8.248  0.1013 -0.4436 -0.3730
  654TIP3    H126157   5.806   2.335   8.252  0.0135  0.1414 -1.7123
  654TIP3    H226158   5.927   2.402   8.314 -0.5290  0.6246 -1.1551
  655TIP3   OH226159   2.606   6.511   8.642 -0.3386 -0.0808 -0.5329
  655TIP3    H126160   2.667   6.439   8.655  0.4051  0.4481 -0.9876
  655TIP3    H226161   2.649   6.567   8.577 -0.9201  0.7344 -0.2349
  656TIP3   OH226162   3.451   5.744   9.252  0.0492 -0.3488 -0.2958
  656TIP3    H126163   3.522   5.752   9.317  0.7998  0.4102 -1.1887
  656TIP3    H226164   3.372   5.735   9.305  0.9040 -2.6609  0.7511
  657TIP3   OH226165   7.047   6.780   7.512  0.1104  0.0429  0.1027
  657TIP3    H126166   7.066   6.751   7.602  1.3002  0.3827 -0.0180
  657TIP3    H226167   7.032   6.699   7.464  0.8802 -0.2395  0.3153
  658TIP3   OH226168   1.854   4.723   7.102  0.6000  0.0785 -0.8727
  658TIP3    H126169   1.777   4.776   7.084  0.1183 -0.1750  0.3141
  658TIP3    H226170   1.924   4.762   7.050  0.3091  2.0079  0.0943
  659TIP3   OH226171   4.731   0.555   8.172 -0.7473 -0.1719  0.1648
  659TIP3    H126172   4.796   0.626   8.174 -1.8491  1.0148 -2.0452
  659TIP3    H226173   4.727   0.524   8.262  2.0501  0.4353  0.6022
  660TIP3   OH226174   5.871   4.646   8.952 -0.1000  0.2270  0.4057
  660TIP3    H126175   5.881   4.583   8.881  1.1509  1.5242 -0.6283
  660TIP3    H226176   5.776   4.658   8.959 -0.2577  0.4976 -1.4857
  661TIP3   OH226177   1.149   4.089   9.077  0.3599  1.3442 -0.0229
  661TIP3    H126178   1.214   4.105   9.145  0.8730  1.0267 -0.4405
  661TIP3    H226179   1.185   4.019   9.024  0.0372  1.6969 -0.7252
  662TIP3   OH226180   6.689   0.994   7.425 -0.2761 -0.1181  0.5049
  662TIP3    H126181   6.633   1.072   7.434 -0.4857 -0.3199  0.9719
  662TIP3    H226182   6.667   0.959   7.339  1.3996  1.5679 -0.7083
  663TIP3   OH226183   0.734   1.969   6.623 -0.2517  0.2792 -1.0125
  663TIP3    H126184   0.777   1.888   6.650 -0.9029  0.1411 -0.3684
  663TIP3    H226185   0.726   1.961   6.528  3.2550  1.3498 -1.5486
  664TIP3   OH226186   2.665   3.587   9.411 -0.0350 -0.0381  0.4773
  664TIP3    H126187   2.713   3.505   9.420  0.3281 -0.0376 -1.0980
  664TIP3    H226188   2.578   3.569   9.446 -0.0136 -1.1576 -0.0230
  665TIP3   OH226189   3.189   6.866   9.250 -0.6817  0.0113  0.1211
  665TIP3    H126190   3.255   6.881   9.183  0.0521 -0.4070  0.7448
  665TIP3    H226191   3.155   6.953   9.271 -1.0130  0.1322 -0.8758
  666TIP3   OH226192   5.901   3.651   8.623  0.2312  0.6763 -0.3714
  666TIP3    H126193   5.871   3.565   8.594  0.3577 -0.7444  3.2858
  666TIP3    H226194   5.849   3.712   8.571 -3.6394 -1.6529  0.3508
  667TIP3   OH226195   5.925   2.435   6.993  0.3016  0.1317 -0.2595
  667TIP3    H126196   5.895   2.456   6.905 -1.0396  0.1331  0.1744
  667TIP3    H226197   5.846   2.405   7.039  0.9189  0.3861  1.0162
  668TIP3   OH226198   4.886   0.516   8.613 -0.2231  0.5663 -0.1247
  668TIP3    H126199   4.860   0.608   8.606  1.9717  1.2149 -0.4881
  668TIP3    H226200   4.969   0.518   8.660  0.3022 -1.1441 -0.8986
  669TIP3   OH226201   5.549   6.166   8.718  0.3625  0.1777 -0.0801
  669TIP3    H126202   5.585   6.252   8.739  1.6086 -0.5171  0.7365
  669TIP3    H226203   5.618   6.121   8.669 -0.8270  0.1349 -1.8160
  670TIP3   OH226204   7.479   4.288   7.977 -0.1404  0.1294 -0.0780
  670TIP3    H126205   7.565   4.331   7.973  0.1399 -0.4953 -1.7148
  670TIP3    H226206   7.422   4.343   7.923 -0.7332  0.4197  0.8216
  671TIP3   OH226207   7.645   1.530   6.740  0.0982 -0.0272  0.6804
  671TIP3    H126208   7.562   1.482   6.733  0.2569 -0.4116  1.3004
  671TIP3    H226209   7.678   1.506   6.826  0.9284  0.0020  0.3759
  672TIP3   OH226210   6.952   3.619   7.284 -0.1634  0.3523 -0.1180
  672TIP3    H126211   6.897   3.545   7.257  0.7562 -0.7501  0.8858
  672TIP3    H226212   6.963   3.671   7.205 -0.7344 -0.6630 -0.8942
  673TIP3   OH226213   1.850   7.243   9.357 -0.5268 -0.4768  0.5076
  673TIP3    H126214   1.862   7.155   9.392 -0.5539 -1.0333 -0.8410
  673TIP3    H226215   1.933   7.263   9.313 -0.1569  0.5757  1.6052
  674TIP3   OH226216   3.229   5.772   8.860 -0.0436 -0.2785 -0.2666
  674TIP3    H126217   3.267   5.701   8.911  2.2260  1.1137  0.1146
  674TIP3    H226218   3.287   5.781   8.785 -1.3461  0.0065 -1.2691
  675TIP3   OH226219   4.373   3.616   8.559  0.3367  0.0272  0.1432
  675TIP3    H126220   4.442   3.669   8.597 -1.2228  2.0535  0.3089
  675TIP3    H226221   4.319   3.678   8.510 -0.8071 -1.6378 -0.7998
  676TIP3   OH226222   3.283   1.942   8.501  0.1118  0.9748  0.0046
  676TIP3    H126223   3.226   1.992   8.559 -1.1730 -1.5064  1.0575
  676TIP3    H226224   3.245   1.854   8.500  2.8676 -0.3337 -0.7735
  677TIP3   OH226225   3.154   3.890   7.912  0.0960 -0.8058  0.3779
  677TIP3    H126226   3.112   3.804   7.921  1.2998 -1.5032 -0.3217
  677TIP3    H226227   3.102   3.935   7.846 -1.6097 -0.2747  2.0153
  678TIP3   OH226228   1.053   5.799   9.338  0.2219 -0.0772 -0.2946
  678TIP3    H126229   0.996   5.741   9.388 -0.4204  1.2402  0.5424
  678TIP3    H226230   1.072   5.872   9.397  1.8952  0.0600 -0.9381
  679TIP3   OH226231   5.334   2.102   8.344 -0.0020 -0.3381  0.0691
  679TIP3    H126232   5.241   2.088   8.362 -0.3092  1.4232  0.0516
  679TIP3    H226233   5.337   2.186   8.298  1.5987 -0.3805  0.0455
  680TIP3   OH226234   0.478   2.848   8.096  0.5679 -0.5306 -0.1891
  680TIP3    H126235   0.559   2.813   8.060 -0.8739 -3.3548 -0.9578
  680TIP3    H226236   0.497   2.864   8.188  1.8910 -1.5037 -0.2738
  681TIP3   OH226237   7.253   3.633   9.306 -0.4184 -0.6105 -0.3355
  681TIP3    H126238   7.308   3.655   9.230 -0.8829  1.3603 -0.1333
  681TIP3    H226239   7.163   3.647   9.276 -0.7323 -1.8496 -0.0359
  682TIP3   OH226240   4.539   1.336   8.765  0.3959  0.2672 -0.6092
  682TIP3    H126241   4.447   1.357   8.779  0.4788  0.8625 -0.9161
  682TIP3    H226242   4.582   1.359   8.848  0.2372 -0.2361 -0.3831
  683TIP3   OH226243   2.249   4.785   9.293 -0.6368 -0.1840  0.5611
  683TIP3    H126244   2.252   4.804   9.200 -0.0358 -0.9458  0.4189
  683TIP3    H226245   2.339   4.800   9.324 -0.3353 -1.9375  0.6001
  684TIP3   OH226246   2.278   2.288   9.254 -0.0587  0.0006 -0.8007
  684TIP3    H126247   2.355   2.311   9.202  0.9227  0.2030  0.6830
  684TIP3    H226248   2.295   2.199   9.285 -0.3146  0.1229 -0.2902
  685TIP3   OH226249   7.026   5.002   8.250  0.1171 -0.0716 -0.2195
  685TIP3    H126250   7.096   4.984   8.313 -0.1284 -0.7386 -0.1276
  685TIP3    H226251   7.008   5.095   8.260  0.9123  0.0898 -0.1637
  686TIP3   OH226252   1.421   6.267   7.677  0.0067 -0.4703  0.5529
  686TIP3    H126253   1.476   6.189   7.678  0.0319 -0.4494  1.8294
  686TIP3    H226254   1.479   6.338   7.706 -0.3737 -0.2254  0.7202
  687TIP3   OH226255   2.471   2.816   8.477 -0.3100 -0.1288 -0.1654
  687TIP3    H126256   2.481   2.743   8.538 -0.0034 -0.1961 -0.2907
  687TIP3    H226257   2.416   2.880   8.523  0.1871 -0.0385  0.3095
  688TIP3   OH226258   7.092   2.570   7.431 -0.2670  1.1907  0.2542
  688TIP3    H126259   7.130   2.500   7.484 -1.0597  0.8002  0.3216
  688TIP3    H226260   7.108   2.650   7.482 -0.9680  0.8302  1.0676
  689TIP3   OH226261   6.456   2.890   7.215  0.3932  0.1798 -0.0600
  689TIP3    H126262   6.421   2.946   7.146 -0.8233 -0.5900 -0.1079
  689TIP3    H226263   6.414   2.923   7.295  0.9286  0.3560  0.1508
  690TIP3   OH226264   1.257   3.863   8.920  0.3428  0.0592 -0.6661
  690TIP3    H126265   1.268   3.924   8.848  1.2962 -2.7531 -3.1314
  690TIP3    H226266   1.342   3.863   8.965  0.7745 -0.3169 -1.4528
  691TIP3   OH226267   4.862   5.525   7.212 -0.4962  0.0875 -0.1319
  691TIP3    H126268   4.851   5.489   7.299 -1.9627 -1.6498 -0.9724
  691TIP3    H226269   4.949   5.565   7.213 -0.3634 -0.1463  2.0062
  692TIP3   OH226270   0.733   4.757   8.977 -0.6528 -0.4329  0.1407
  692TIP3    H126271   0.812   4.811   8.979 -0.6171 -0.3628  3.9655
  692TIP3    H226272   0.677   4.799   8.912  0.4054  2.6791  1.0706
  693TIP3   OH226273   5.578   3.903   7.870 -0.1286 -0.2739  0.5132
  693TIP3    H126274   5.520   3.872   7.800 -0.3349  1.0879  0.0445
  693TIP3    H226275   5.519   3.933   7.939  0.0549 -0.5510  0.7927
  694TIP3   OH226276   0.670   3.646   7.716  0.6325 -0.3904 -0.0328
  694TIP3    H126277   0.632   3.603   7.793 -0.5114  1.8513  0.7750
  694TIP3    H226278   0.597   3.653   7.654  0.0647  2.3444  0.8041
  695TIP3   OH226279   2.976   6.537   9.070  0.4864  0.2132  0.0613
  695TIP3    H126280   3.015   6.540   8.983  1.7752  0.9653  0.6261
  695TIP3    H226281   2.983   6.445   9.096 -1.9892 -0.5066 -1.4674
  696TIP3   OH226282   3.933   1.434   8.287  0.4661  0.2283  0.8099
  696TIP3    H126283   4.023   1.424   8.255  0.6120 -1.8254  1.6499
  696TIP3    H226284   3.888   1.356   8.254 -1.0268  1.2437  0.3943
  697TIP3   OH226285   1.622   1.848   9.630 -0.0658 -0.4071  0.2953
  697TIP3    H126286   1.630   1.847   9.535  1.2614 -0.0932  0.3933
  697TIP3    H226287   1.668   1.927   9.658 -1.4629  0.1602  1.1325
  698TIP3   OH226288   7.478   3.048   6.897 -0.2840  0.5325 -0.4940
  698TIP3    H126289   7.399   3.005   6.927 -0.5081  0.1435 -1.6077
  698TIP3    H226290   7.447   3.125   6.848  0.1034  2.0783  1.5468
  699TIP3   OH226291   6.256   1.356   6.798 -0.1979  0.3187 -0.5042
  699TIP3    H126292   6.194   1.300   6.752 -0.7401 -0.0830  0.6832
  699TIP3    H226293   6.336   1.305   6.804 -0.7421 -0.4191  0.7221
  700TIP3   OH226294   0.381   2.511   7.228 -0.4274  0.1435 -0.5676
  700TIP3    H126295   0.297   2.556   7.218 -1.3240 -0.7940  2.0159
  700TIP3    H226296   0.380   2.444   7.159 -1.7096  0.3055 -0.7268
  701TIP3   OH226297   2.749   7.618   7.941  0.2962  0.5195  0.1869
  701TIP3    H126298   2.678   7.676   7.971  0.4198  0.1937  1.1709
  701TIP3    H226299   2.761   7.557   8.014  1.1916  0.2046 -0.2142
  702TIP3   OH226300   3.662   5.625   8.424  0.6125  0.1242 -0.4821
  702TIP3    H126301   3.592   5.690   8.415  0.7967  0.4300  0.1683
  702TIP3    H226302   3.742   5.677   8.425  0.7966 -0.1616 -0.5112
  703TIP3   OH226303   2.147   2.224   8.537  0.1814  0.1007  0.3017
  703TIP3    H126304   2.109   2.264   8.616 -0.6232 -0.2674  0.1102
  703TIP3    H226305   2.109   2.136   8.533 -1.1124  0.6810 -1.3929
  704TIP3   OH226306   0.523   4.985   7.755  0.0714 -1.0851 -0.5811
  704TIP3    H126307   0.458   4.951   7.694 -2.6761  1.4881  0.6487
  704TIP3    H226308   0.474   5.006   7.834  2.1423  1.9260  0.0961
  705TIP3   OH226309   6.537   6.325   8.040  0.2083 -0.0161  0.7643
  705TIP3    H126310   6.541   6.300   7.948  3.5789 -0.1424  0.8011
  705TIP3    H226311   6.562   6.245   8.088 -0.1471  0.4143  1.6978
  706TIP3   OH226312   4.431   7.285   8.815 -0.0971  0.0109 -0.7655
  706TIP3    H126313   4.421   7.380   8.828  0.6780  0.2328 -1.6677
  706TIP3    H226314   4.523   7.268   8.830  0.2795 -0.1749 -2.9498
  707TIP3   OH226315   5.686   2.352   7.088  0.3989 -0.2122  0.1804
  707TIP3    H126316   5.640   2.416   7.033  0.8641  1.7812  1.9534
  707TIP3    H226317   5.640   2.354   7.172  2.7968  0.8995  1.6053
  708TIP3   OH226318   6.633   5.209   7.415  0.0199 -0.1619  0.0145
  708TIP3    H126319   6.587   5.187   7.333  0.1856  0.1108 -0.1523
  708TIP3    H226320   6.705   5.265   7.388 -0.9073  1.3214  0.5243
  709TIP3   OH226321   1.472   1.722   8.530 -0.1143  0.3403 -0.1464
  709TIP3    H126322   1.549   1.772   8.556  0.3526 -0.9259  0.9935
  709TIP3    H226323   1.440   1.681   8.610 -0.8290 -0.7090 -0.9250
  710TIP3   OH226324   3.516   6.341   9.602 -0.2681 -0.4814  0.5836
  710TIP3    H126325   3.431   6.386   9.604 -0.3627 -0.6681  1.0453
  710TIP3    H226326   3.562   6.374   9.680  0.7169  0.8133 -0.4986
  711TIP3   OH226327   1.794   5.304   9.139 -0.1949 -1.1196  0.2288
  711TIP3    H126328   1.825   5.392   9.160  0.9338 -1.3469 -0.3796
  711TIP3    H226329   1.777   5.263   9.224 -0.3718 -0.4456  0.5225
  712TIP3   OH226330   0.551   7.331   8.396 -0.3511  0.5937  0.0494
  712TIP3    H126331   0.568   7.396   8.465  1.5012  0.2211  0.0038
  712TIP3    H226332   0.597   7.253   8.425  0.6185  0.4803 -1.6578
  713TIP3   OH226333   4.280   6.726   8.089  0.6821 -0.5213 -0.6684
  713TIP3    H126334   4.375   6.729   8.086  0.7093 -0.3750  0.0647
  713TIP3    H226335   4.254   6.812   8.122  0.4180 -1.2617  1.1712
  714TIP3   OH226336   2.468   4.630   7.919 -1.2190  0.3909  0.1847
  714TIP3    H126337   2.500   4.628   7.829 -0.4939  2.8854  0.2952
  714TIP3    H226338   2.543   4.662   7.970 -1.8249 -0.3227  1.5785
  715TIP3   OH226339   6.975   0.312   7.525 -0.2664 -0.2877 -0.3470
  715TIP3    H126340   6.970   0.376   7.596 -1.4545 -0.2728 -0.4205
  715TIP3    H226341   7.063   0.323   7.488  0.3868 -0.3357  1.1428
  716TIP3   OH226342   5.904   1.373   8.238 -0.0697 -0.2194  0.6905
  716TIP3    H126343   5.892   1.462   8.271 -1.6058  0.5468 -1.7293
  716TIP3    H226344   5.825   1.327   8.267 -0.4153 -0.1157 -0.0665
  717TIP3   OH226345   4.026   3.800   7.744  0.1867 -0.6012 -0.2501
  717TIP3    H126346   4.049   3.779   7.654 -0.4036 -1.5261 -0.1977
  717TIP3    H226347   3.977   3.882   7.739  1.6637  0.3000 -0.5701
  718TIP3   OH226348   3.704   6.705   9.092 -0.6938 -0.2279  0.1544
  718TIP3    H126349   3.757   6.657   9.155  0.5172  3.6647  2.4753
  718TIP3    H226350   3.616   6.707   9.131 -1.1056 -1.6485 -0.6588
  719TIP3   OH226351   3.598   5.690   8.080 -0.4779 -0.1480 -0.2979
  719TIP3    H126352   3.587   5.641   7.998 -1.5038  0.8307 -0.7739
  719TIP3    H226353   3.561   5.632   8.147  0.4330 -0.9864 -0.4880
  720TIP3   OH226354   2.250   1.146   7.170 -0.2234  0.1872 -0.5870
  720TIP3    H126355   2.286   1.229   7.202 -2.1764  0.6470  0.6133
  720TIP3    H226356   2.309   1.079   7.205  1.2657  1.0345 -1.4018
  721TIP3   OH226357   3.973   6.329   6.908  0.8624 -0.0494 -0.2615
  721TIP3    H126358   3.956   6.422   6.925 -0.5842 -0.1470 -1.0357
  721TIP3    H226359   3.891   6.295   6.874  1.2650 -1.7191  0.3260
  722TIP3   OH226360   4.812   3.287   9.192  0.0440  0.0805 -0.3699
  722TIP3    H126361   4.845   3.376   9.198 -0.2699  0.1566  0.4310
  722TIP3    H226362   4.789   3.275   9.100 -0.4476  1.0107 -0.3747
  723TIP3   OH226363   1.479   3.377   7.845  0.3094  0.5272  0.1123
  723TIP3    H126364   1.407   3.432   7.814  2.2895  3.0378 -0.4270
  723TIP3    H226365   1.500   3.321   7.771 -1.1991 -0.4334  0.3689
  724TIP3   OH226366   2.141   5.707   8.092  0.1826  0.0005  0.5955
  724TIP3    H126367   2.154   5.718   8.186 -0.2732 -0.6638  0.7444
  724TIP3    H226368   2.164   5.791   8.054 -4.0858  1.9880  1.7469
  725TIP3   OH226369   2.390   6.987   8.012 -0.3927  0.2791 -0.1812
  725TIP3    H126370   2.365   7.050   8.080 -0.7611 -1.0666  0.9752
  725TIP3    H226371   2.480   6.962   8.033 -0.3995  0.0828 -0.3730
  726TIP3   OH226372   7.290   3.438   9.486 -0.3648 -0.3016  0.3420
  726TIP3    H126373   7.255   3.471   9.569 -2.0729 -2.5050  0.5918
  726TIP3    H226374   7.254   3.497   9.420 -0.0360  0.7082  1.0359
  727TIP3   OH226375   6.512   1.627   9.599  0.0694  0.2451  0.1849
  727TIP3    H126376   6.485   1.703   9.548 -0.1651 -1.0185 -1.6672
  727TIP3    H226377   6.517   1.659   9.689  0.8484  2.6696 -0.6388
  728TIP3   OH226378   2.960   5.924   9.707 -0.0218 -0.3444  0.1593
  728TIP3    H126379   2.916   5.988   9.762 -0.5447 -0.0165 -0.6256
  728TIP3    H226380   3.029   5.974   9.662  0.2714 -0.5667  0.3555
  729TIP3   OH226381   3.138   5.817   9.226 -1.2218 -0.6191  1.2731
  729TIP3    H126382   3.189   5.895   9.245 -0.2186 -0.6554 -1.0063
  729TIP3    H226383   3.073   5.845   9.162  0.6084 -1.9996 -1.3774
  730TIP3   OH226384   3.555   2.987   7.748 -0.4586 -0.6868 -0.5389
  730TIP3    H126385   3.600   2.938   7.816  0.8594  1.5868  0.3297
  730TIP3    H226386   3.598   2.961   7.667 -0.1488 -1.3439 -0.1737
  731TIP3   OH226387   5.685   6.394   7.786  0.3372 -0.2717 -0.3192
  731TIP3    H126388   5.725   6.390   7.872 -0.0954 -3.0665 -0.1477
  731TIP3    H226389   5.745   6.347   7.729  1.8358  3.5119 -2.2453
  732TIP3   OH226390   4.890   1.513   7.800  0.1200 -0.1538  0.4321
  732TIP3    H126391   4.854   1.428   7.777  1.5070 -0.6277 -0.0518
  732TIP3    H226392   4.817   1.574   7.787 -0.4885 -1.0637 -0.5581
  733TIP3   OH226393   5.223   1.189   7.551  0.0465  0.7517 -0.2994
  733TIP3    H126394   5.143   1.229   7.585 -1.9123 -0.6838 -2.8871
  733TIP3    H226395   5.281   1.263   7.534 -0.7271  1.8483  1.5320
  734TIP3   OH226396   0.626   0.594   8.352 -0.3752  0.4590  0.4282
  734TIP3    H126397   0.695   0.552   8.404 -1.7310 -2.2881  0.1896
  734TIP3    H226398   0.672   0.630   8.276  0.8472 -1.4228  0.2088
  735TIP3   OH226399   3.563   3.745   8.817 -0.0300 -0.3168  0.3196
  735TIP3    H126400   3.626   3.816   8.828 -2.1763  2.2870 -2.2625
  735TIP3    H226401   3.499   3.759   8.886  0.1568 -0.4466  0.5181
  736TIP3   OH226402   7.102   4.948   8.724  0.3934  0.4412 -0.1361
  736TIP3    H126403   7.173   4.971   8.665  2.1251 -3.3275  0.2298
  736TIP3    H226404   7.145   4.919   8.804 -1.7877  2.1948  1.8276
  737TIP3   OH226405   3.720   5.011   8.139  0.1362  0.4389  0.1723
  737TIP3    H126406   3.679   4.927   8.119 -0.4998  0.7377  0.2078
  737TIP3    H226407   3.768   4.995   8.221  1.0949 -0.2343 -0.5024
  738TIP3   OH226408   5.417   3.161   7.365  0.4252 -0.3752  0.3958
  738TIP3    H126409   5.394   3.088   7.423 -0.8468 -0.8567 -0.6847
  738TIP3    H226410   5.440   3.120   7.282  1.6540  0.3490  0.3510
  739TIP3   OH226411   4.408   0.727   7.789 -0.7236  0.3064  0.6033
  739TIP3    H126412   4.383   0.666   7.719 -0.9592  1.9895 -0.8364
  739TIP3    H226413   4.503   0.736   7.780 -0.6026 -0.2868  1.2075
  740TIP3   OH226414   1.604   3.475   7.449 -0.5722  0.4108 -0.5964
  740TIP3    H126415   1.603   3.380   7.432 -1.1171  0.1604  0.7462
  740TIP3    H226416   1.556   3.512   7.375 -1.5182 -0.4954 -0.4731
  741TIP3   OH226417   2.440   2.764   7.252 -0.2288 -0.3231 -0.4189
  741TIP3    H126418   2.529   2.730   7.258 -0.0827 -0.1520 -1.4022
  741TIP3    H226419   2.425   2.807   7.336  0.8479  0.1913 -0.4721
  742TIP3   OH226420   2.724   4.037   8.877 -0.2563 -0.0339  0.0641
  742TIP3    H126421   2.653   4.058   8.937 -0.9134  0.6644 -0.9063
  742TIP3    H226422   2.803   4.039   8.931 -0.7320  1.3510  0.7648
  743TIP3   OH226423   4.978   4.120   8.213  0.6457  0.4978 -0.2071
  743TIP3    H126424   4.929   4.148   8.136 -0.6707  0.9073  0.7564
  743TIP3    H226425   4.913   4.076   8.268  1.7239 -0.4417  0.3487
  744TIP3   OH226426   5.906   2.949   8.785 -0.0282  0.3974  0.0937
  744TIP3    H126427   5.981   3.001   8.758  0.6238 -0.6956 -0.2751
  744TIP3    H226428   5.944   2.868   8.820 -0.9677  0.4834  1.4069
  745TIP3   OH226429   3.253   7.276   8.776  0.3779 -0.2026 -0.1174
  745TIP3    H126430   3.210   7.245   8.696 -0.8849  0.0993  0.4180
  745TIP3    H226431   3.277   7.366   8.757  0.2810 -0.2023 -0.2386
  746TIP3   OH226432   0.598   3.165   8.709  0.1380 -0.0866  0.0279
  746TIP3    H126433   0.547   3.220   8.770  0.7052  0.2412  0.2162
  746TIP3    H226434   0.540   3.092   8.689 -0.1786 -0.0410  0.7291
  747TIP3   OH226435   4.252   3.529   7.519  0.2962 -0.2829 -0.5604
  747TIP3    H126436   4.280   3.446   7.556  0.5997 -0.3461 -0.9264
  747TIP3    H226437   4.270   3.594   7.587 -1.4848 -0.7287  0.3777
  748TIP3   OH226438   5.808   3.250   7.269 -0.1563 -0.1862  0.0190
  748TIP3    H126439   5.763   3.331   7.293  1.5779  0.6500  0.5730
  748TIP3    H226440   5.806   3.250   7.173 -1.9943 -0.5926  0.0128
  749TIP3   OH226441   7.118   5.399   9.003 -0.0664  0.2326  0.0115
  749TIP3    H126442   7.076   5.329   9.053 -1.9244  1.6707  0.5558
  749TIP3    H226443   7.188   5.355   8.954 -0.0727 -1.6889  1.6386
  750TIP3   OH226444   1.881   1.534   9.280  0.2522 -0.1622 -0.3890
  750TIP3    H126445   1.886   1.622   9.241 -0.1149 -0.2166 -0.5564
  750TIP3    H226446   1.972   1.505   9.285  0.3432  0.0698 -0.6927
  751TIP3   OH226447   7.020   0.820   6.630  0.1566 -0.6284  0.2190
  751TIP3    H126448   6.998   0.756   6.563 -1.3291  1.5399 -1.4913
  751TIP3    H226449   6.936   0.844   6.670  0.5732  0.6818  0.3678
  752TIP3   OH226450   4.893   5.415   7.453  0.3918  0.6496 -0.9969
  752TIP3    H126451   4.918   5.471   7.526  0.2909 -0.2745 -0.2221
  752TIP3    H226452   4.954   5.341   7.458  1.6749  1.4714 -3.0466
  753TIP3   OH226453   2.241   4.872   7.812 -0.5322  0.0526  0.3175
  753TIP3    H126454   2.273   4.825   7.735 -1.2977  0.6028 -0.3566
  753TIP3    H226455   2.266   4.817   7.886 -1.4861 -1.5062 -0.4530
  754TIP3   OH226456   1.764   0.791   7.736 -0.1130 -0.6037 -0.3367
  754TIP3    H126457   1.799   0.745   7.660  0.0365 -1.4610  0.2401
  754TIP3    H226458   1.819   0.868   7.744 -1.6235  0.8513 -2.5534
  755TIP3   OH226459   5.782   7.182   7.480  0.4021  0.0844  0.1560
  755TIP3    H126460   5.794   7.198   7.574  0.3057  1.6295 -0.0671
  755TIP3    H226461   5.690   7.158   7.472  0.0309  1.3989  0.3017
  756TIP3   OH226462   1.161   6.656   8.579 -0.5064 -0.0422 -0.1747
  756TIP3    H126463   1.214   6.721   8.533 -3.3818  1.9159 -1.0482
  756TIP3    H226464   1.117   6.705   8.648  0.2593 -2.0002  1.8296
  757TIP3   OH226465   4.887   4.539   7.357 -0.2444  0.0516 -0.1437
  757TIP3    H126466   4.907   4.544   7.263 -2.2266 -3.6867 -0.9359
  757TIP3    H226467   4.825   4.611   7.371  1.5126  1.8804 -1.1568
  758TIP3   OH226468   1.845   7.361   7.414  0.1643  0.1215 -0.4710
  758TIP3    H126469   1.773   7.354   7.352 -0.5620  0.7722  0.2860
  758TIP3    H226470   1.861   7.455   7.422 -1.9069  0.3544  2.7172
  759TIP3   OH226471   1.366   2.720   7.210 -0.3478 -0.0415  0.8083
  759TIP3    H126472   1.316   2.801   7.219 -0.3608 -0.1381  1.7849
  759TIP3    H226473   1.372   2.705   7.116 -2.2664 -0.0920  0.6370
  760TIP3   OH226474   1.939   6.620   8.107 -0.2723  0.1087  0.0895
  760TIP3    H126475   1.985   6.703   8.092 -0.0263 -0.0109  0.1886
  760TIP3    H226476   1.975   6.587   8.189 -1.0306  0.3548  0.5335
  761TIP3   OH226477   0.381   0.084   8.162  0.4634  0.2216 -0.0235
  761TIP3    H126478   0.436   0.045   8.094  1.3334 -0.0581  0.8081
  761TIP3    H226479   0.433   0.156   8.197  0.0176  0.3853  0.3140
  762TIP3   OH226480   4.168   6.966   8.224 -0.3339  0.1188 -0.5932
  762TIP3    H126481   4.153   7.049   8.269 -1.6142 -0.9591  1.0735
  762TIP3    H226482   4.240   6.985   8.163  1.3269  1.7456  1.6980
  763TIP3   OH226483   5.374   5.694   7.667 -0.4792 -0.2821  0.2949
  763TIP3    H126484   5.321   5.642   7.728  1.6539  0.7919  3.3164
  763TIP3    H226485   5.363   5.784   7.697 -0.6251  0.5401 -2.0482
  764TIP3   OH226486   2.178   5.466   9.090 -0.5207 -0.0715  0.2074
  764TIP3    H126487   2.136   5.467   9.004  0.4340  0.5760 -0.2761
  764TIP3    H226488   2.173   5.375   9.118 -1.8095 -0.0899 -0.0372
  765TIP3   OH226489   2.634   4.906   8.413 -0.4420  0.4682  0.0532
  765TIP3    H126490   2.715   4.893   8.462  1.3830 -2.6384 -3.2857
  765TIP3    H226491   2.565   4.879   8.473  0.9984  1.9937  2.5876
  766TIP3   OH226492   4.518   0.136   9.335 -0.3019 -0.0849 -0.5250
  766TIP3    H126493   4.540   0.052   9.295 -0.4841 -1.2519  1.6803
  766TIP3    H226494   4.601   0.183   9.338 -0.2566  0.0010 -2.0784
  767TIP3   OH226495   1.333   3.295   8.291 -0.3530  0.7654  0.4253
  767TIP3    H126496   1.416   3.335   8.317 -0.9855  1.4343  1.5309
  767TIP3    H226497   1.325   3.313   8.198  0.6093  0.9460  0.3706
  768TIP3   OH226498   0.682   3.099   7.404  0.0555  0.1145  0.8743
  768TIP3    H126499   0.684   3.036   7.477 -0.5084  1.3121  1.9705
  768TIP3    H226500   0.611   3.159   7.427 -1.0745 -0.2795 -1.3819
  769TIP3   OH226501   4.533   6.901   9.328 -0.4084 -0.0960  0.2594
  769TIP3    H126502   4.531   6.836   9.258 -1.1251 -1.0096  1.1085
  769TIP3    H226503   4.553   6.851   9.407 -0.7858  0.7439  0.9016
  770TIP3   OH226504   1.672   0.597   8.270  0.1447  0.2367 -0.1807
  770TIP3    H126505   1.676   0.606   8.174 -1.5639  1.9654 -0.1556
  770TIP3    H226506   1.759   0.567   8.295  1.2067  1.4995 -2.1139
  771TIP3   OH226507   2.707   6.962   8.743 -0.4310  0.2612  0.3261
  771TIP3    H126508   2.793   6.921   8.734 -0.8623 -1.0088  1.4924
  771TIP3    H226509   2.725   7.054   8.760  0.9569 -0.4938  3.9243
  772TIP3   OH226510   3.575   5.729   8.799  0.0778 -0.1293  0.4935
  772TIP3    H126511   3.553   5.819   8.824  0.6752  0.3789 -0.7130
  772TIP3    H226512   3.668   5.732   8.778 -0.3958 -0.4356 -1.9119
  773TIP3   OH226513   4.177   7.477   9.496 -0.6303 -0.3275 -0.8169
  773TIP3    H126514   4.155   7.546   9.559  0.3214 -0.1439 -0.6842
  773TIP3    H226515   4.094   7.431   9.482 -1.2319  0.6992 -0.7319
  774TIP3   OH226516   1.943   1.803   9.184 -0.2372  0.3913  0.4055
  774TIP3    H126517   1.923   1.843   9.099 -0.7580 -1.4851 -0.4028
  774TIP3    H226518   2.025   1.845   9.211 -0.0679  1.0434 -1.0076
  775TIP3   OH226519   1.983   1.597   8.859  0.1275 -0.5677 -0.3426
  775TIP3    H126520   1.978   1.507   8.828 -2.5403 -0.6825  0.1985
  775TIP3    H226521   2.040   1.592   8.936  0.9206 -1.5677 -0.9712
  776TIP3   OH226522   4.868   3.100   8.089 -0.2990  0.3327 -0.0051
  776TIP3    H126523   4.877   3.187   8.129 -1.4793  0.1926  0.6053
  776TIP3    H226524   4.821   3.116   8.008  0.8695  0.4416 -0.6799
  777TIP3   OH226525   1.215   4.742   7.929  0.1385  0.8021 -0.5341
  777TIP3    H126526   1.300   4.781   7.950  0.6374  0.2415 -1.4566
  777TIP3    H226527   1.152   4.811   7.947  0.6882  0.9362  1.0452
  778TIP3   OH226528   3.250   1.025   9.582  0.2598  0.0283 -0.3796
  778TIP3    H126529   3.182   1.055   9.642 -0.1329 -0.2734 -0.6729
  778TIP3    H226530   3.213   1.034   9.495 -0.4524 -2.6030 -0.4425
  779TIP3   OH226531   5.982   0.486   7.594  0.0609  0.1446  0.7490
  779TIP3    H126532   5.923   0.425   7.640 -1.0592 -0.2846 -1.1408
  779TIP3    H226533   6.037   0.430   7.540 -0.3687  0.7466 -0.3360
  780TIP3   OH226534   6.252   1.415   7.790  0.1587  0.3485  0.5271
  780TIP3    H126535   6.258   1.508   7.770  0.3558  0.4137  0.8716
  780TIP3    H226536   6.206   1.411   7.873 -0.8177  0.0725 -0.0133
  781TIP3   OH226537   6.731   3.579   8.369  0.2576  0.0260  0.0145
  781TIP3    H126538   6.806   3.522   8.383 -0.4454 -0.8892  0.1204
  781TIP3    H226539   6.661   3.521   8.340 -0.8740  0.5961  1.4235
  782TIP3   OH226540   2.953   5.981   7.832  0.3659 -0.3854 -0.7212
  782TIP3    H126541   2.990   5.962   7.919  0.0584  0.3565 -0.4119
  782TIP3    H226542   2.861   6.001   7.850 -0.6787 -3.7267 -1.6508
  783TIP3   OH226543   1.674   6.721   8.730 -0.0270  0.5590 -0.1481
  783TIP3    H126544   1.617   6.738   8.655  0.4282 -1.4799 -1.0065
  783TIP3    H226545   1.754   6.771   8.711  0.5415 -0.8247 -1.6594
  784TIP3   OH226546   5.283   5.323   7.652 -0.2697 -0.2151  0.6501
  784TIP3    H126547   5.303   5.384   7.581 -0.2031  1.6426  2.1833
  784TIP3    H226548   5.188   5.318   7.653 -0.2618 -0.4962  0.2415
  785TIP3   OH226549   4.169   1.142   7.321 -0.0316  0.7248 -0.5854
  785TIP3    H126550   4.120   1.223   7.311  0.7489  1.3052  0.1625
  785TIP3    H226551   4.102   1.075   7.339 -0.6235  1.3096 -0.5845
  786TIP3   OH226552   1.859   6.991   9.087 -0.1006 -0.5487  0.0369
  786TIP3    H126553   1.808   6.938   9.148 -0.0859 -0.7789 -0.1520
  786TIP3    H226554   1.842   7.081   9.114 -3.6893 -0.3190 -2.3493
  787TIP3   OH226555   5.643   1.138   7.454 -0.0578  0.1290 -0.1244
  787TIP3    H126556   5.708   1.106   7.517  0.0027  0.6950  0.1073
  787TIP3    H226557   5.668   1.096   7.371 -0.1259 -0.5985  0.2200
  788TIP3   OH226558   2.110   1.846   7.177 -0.0417 -0.2104 -0.4584
  788TIP3    H126559   2.167   1.772   7.199  0.0925 -0.2963 -1.0895
  788TIP3    H226560   2.024   1.806   7.161 -0.1534 -0.1410 -0.0506
  789TIP3   OH226561   4.808   3.151   7.385 -0.7276 -0.0874  0.0553
  789TIP3    H126562   4.766   3.136   7.300  2.2350 -2.8719 -1.1258
  789TIP3    H226563   4.862   3.229   7.371 -1.0592  0.0882 -0.2683
  790TIP3   OH226564   1.768   6.713   8.389  0.7703 -0.2030 -0.3508
  790TIP3    H126565   1.767   6.790   8.331 -0.0391  0.7832  0.9331
  790TIP3    H226566   1.835   6.734   8.454  0.9636 -0.8650 -0.3325
  791TIP3   OH226567   7.391   2.576   8.814  0.4694  0.5983  0.2417
  791TIP3    H126568   7.328   2.629   8.863  0.0073  1.1053 -0.8517
  791TIP3    H226569   7.353   2.488   8.814 -0.7237  1.0606 -1.1052
  792TIP3   OH226570   6.897   5.082   7.719  0.0498  0.5263 -0.0920
  792TIP3    H126571   6.984   5.059   7.753 -0.0034  1.4894  0.7356
  792TIP3    H226572   6.896   5.177   7.719 -0.1968  0.5683 -2.2519
  793TIP3   OH226573   4.136   6.439   8.048  0.1593 -0.4760  0.6081
  793TIP3    H126574   4.125   6.427   7.954  0.0738 -1.5994  0.7397
  793TIP3    H226575   4.192   6.515   8.057  1.1882 -1.0865 -0.4031
  794TIP3   OH226576   2.217   2.252   8.279  0.7749  0.2104 -0.0478
  794TIP3    H126577   2.180   2.204   8.353  0.0637 -0.1073 -0.5905
  794TIP3    H226578   2.188   2.342   8.293  0.1296  0.0405 -0.2480
  795TIP3   OH226579   2.701   2.181   9.349 -0.5623 -0.0250  0.1603
  795TIP3    H126580   2.632   2.114   9.347  0.6486 -1.2827 -0.9763
  795TIP3    H226581   2.669   2.250   9.291 -1.3666 -0.0615  0.5423
  796TIP3   OH226582   2.139   2.556   9.357  0.4225  0.5490 -0.7071
  796TIP3    H126583   2.205   2.492   9.333  1.2119  0.9766  0.2697
  796TIP3    H226584   2.059   2.504   9.371  0.8455 -0.1111 -0.7073
  797TIP3   OH226585   5.396   5.048   8.352  0.3532  0.2586  0.4634
  797TIP3    H126586   5.393   4.963   8.307 -0.9786  0.5956 -0.1592
  797TIP3    H226587   5.319   5.046   8.410  0.7905  0.7140  1.0649
  798TIP3   OH226588   0.939   6.279   7.255  0.3843  0.1867  0.5310
  798TIP3    H126589   0.931   6.299   7.349 -1.2959  2.6721 -0.0534
  798TIP3    H226590   0.993   6.350   7.221  0.6344 -0.4768 -0.4765
  799TIP3   OH226591   5.835   7.528   7.656 -0.4936  0.0848  0.0411
  799TIP3    H126592   5.782   7.455   7.687 -1.3233 -1.0658 -3.5294
  799TIP3    H226593   5.772   7.587   7.615  0.4609  1.5096  0.5607
  800TIP3   OH226594   3.945   4.997   7.718 -0.4276 -0.6957 -0.1745
  800TIP3    H126595   3.956   4.921   7.775 -1.6933  0.1274  1.2628
  800TIP3    H226596   3.928   5.069   7.778 -0.2268  0.5447 -1.5499
  801TIP3   OH226597   4.465   6.045   6.549 -0.3246 -0.7674  0.0137
  801TIP3    H126598   4.528   6.090   6.493 -0.7334  0.4553  0.5168
  801TIP3    H226599   4.510   6.032   6.632 -0.4621 -0.5988  0.1157
  802TIP3   OH226600   1.270   0.711   7.327 -0.0777  0.4997 -0.3228
  802TIP3    H126601   1.258   0.796   7.285  0.5437  0.7668  0.0317
  802TIP3    H226602   1.181   0.677   7.337 -0.3302  1.0914 -0.4998
  803TIP3   OH226603   1.916   6.850   8.581 -0.1375  0.4943 -0.2931
  803TIP3    H126604   1.998   6.800   8.575 -0.9601 -1.2024  1.3603
  803TIP3    H226605   1.933   6.918   8.646 -0.2305 -0.3324  0.6157
  804TIP3   OH226606   4.995   5.754   7.564 -0.7851 -0.1731 -0.2382
  804TIP3    H126607   4.900   5.762   7.573 -0.7750  1.8631 -1.3833
  804TIP3    H226608   5.029   5.772   7.651 -1.4253 -0.1418  0.0107
  805TIP3   OH226609   2.089   5.922   7.733  0.5778 -0.2924  0.1637
  805TIP3    H126610   2.082   5.827   7.744 -0.3835 -0.1956  0.4993
  805TIP3    H226611   2.028   5.942   7.662 -0.2882  0.2401  1.0336
  806TIP3   OH226612   4.557   0.795   8.504  0.1407 -0.2904  0.1317
  806TIP3    H126613   4.639   0.771   8.461  0.4528 -0.7253  0.9432
  806TIP3    H226614   4.576   0.881   8.544  0.1426 -0.2986  0.1488
  807TIP3   OH226615   1.337   2.456   7.997 -0.1566 -0.2892 -0.0505
  807TIP3    H126616   1.367   2.389   8.058 -0.6295 -0.7545 -0.3293
  807TIP3    H226617   1.390   2.443   7.919  1.0747  0.8667  0.5413
  808TIP3   OH226618   5.122   3.933   8.055  0.1598  0.0897  0.5159
  808TIP3    H126619   5.112   4.025   8.079  0.0731 -0.2298  1.8057
  808TIP3    H226620   5.044   3.890   8.089  0.1944 -0.4657 -0.0829
  809TIP3   OH226621   1.657   4.916   7.043 -0.3082  0.4775 -0.3351
  809TIP3    H126622   1.724   4.977   7.076 -0.5853  0.4682  0.2757
  809TIP3    H226623   1.575   4.963   7.057 -0.5750 -0.2741  0.7181
  810TIP3   OH226624   0.211   1.590   8.839 -0.6680  0.3429 -0.6567
  810TIP3    H126625   0.192   1.662   8.898  0.4198  0.0178  0.1031
  810TIP3    H226626   0.196   1.627   8.751  1.6686  2.0782 -0.4077
  811TIP3   OH226627   1.303   6.800   7.040  0.1233  0.3554 -0.2935
  811TIP3    H126628   1.316   6.713   7.079 -0.9095 -0.3768 -1.5200
  811TIP3    H226629   1.391   6.837   7.033  0.6249 -0.7734 -0.1638
  812TIP3   OH226630   5.919   4.424   8.467 -0.2591  0.2686 -0.2542
  812TIP3    H126631   5.990   4.385   8.415  0.2004  0.7578 -0.0050
  812TIP3    H226632   5.840   4.380   8.436  0.1684 -0.3841 -0.4407
  813TIP3   OH226633   2.317   6.846   7.553 -0.1925 -0.0833  0.4789
  813TIP3    H126634   2.315   6.913   7.620  1.9984  0.3859  0.1673
  813TIP3    H226635   2.331   6.764   7.600  1.4450  0.2574  0.6341
  814TIP3   OH226636   4.584   4.505   8.790  0.0078  1.2060  0.3063
  814TIP3    H126637   4.503   4.546   8.821 -1.4572 -0.5952 -0.8391
  814TIP3    H226638   4.587   4.421   8.836  1.6561  1.5704  0.8894
  815TIP3   OH226639   1.054   1.799   7.436  0.2777 -0.1524 -0.6866
  815TIP3    H126640   1.138   1.836   7.407  1.0403  1.1096  2.6213
  815TIP3    H226641   0.996   1.875   7.444 -0.5914 -0.7617 -1.1618
  816TIP3   OH226642   7.215   2.221   8.509  0.3125  0.5772  0.2696
  816TIP3    H126643   7.198   2.260   8.423  0.1939  0.2320  0.1344
  816TIP3    H226644   7.133   2.177   8.531  1.0640 -1.3244 -0.4972
  817TIP3   OH226645   0.896   1.723   9.391 -0.1228 -0.3352 -0.0636
  817TIP3    H126646   0.827   1.784   9.420  0.8705  1.1124 -0.6476
  817TIP3    H226647   0.977   1.761   9.425  0.4395 -1.9361  0.4713
  818TIP3   OH226648   6.842   5.365   7.333 -0.1692 -0.5000  0.6687
  818TIP3    H126649   6.818   5.383   7.242  1.6544  0.7907  0.3723
  818TIP3    H226650   6.854   5.452   7.372  0.6267 -1.0416  1.6773
  819TIP3   OH226651   5.398   7.053   7.770 -0.0232  0.4012  0.8477
  819TIP3    H126652   5.406   7.131   7.715  2.4505 -0.4761 -0.1733
  819TIP3    H226653   5.347   6.992   7.717  2.2406 -0.3918 -0.5532
  820TIP3   OH226654   1.453   6.842   7.999 -0.0486  0.1845 -0.3213
  820TIP3    H126655   1.382   6.898   8.029  0.4452  0.5888  0.1163
  820TIP3    H226656   1.463   6.776   8.068 -0.2666 -0.1167 -0.5758
  821TIP3   OH226657   1.204   1.130   7.768 -0.9216 -0.0585 -0.0762
  821TIP3    H126658   1.271   1.093   7.711 -0.7042 -1.0905  0.8182
  821TIP3    H226659   1.168   1.204   7.718  0.6682  0.3372 -0.6913
  822TIP3   OH226660   0.650   4.795   8.121  0.2691 -0.0847  0.2478
  822TIP3    H126661   0.730   4.795   8.069  0.6858 -1.1715  0.8637
  822TIP3    H226662   0.612   4.708   8.107 -0.9830  0.5219 -0.2882
  823TIP3   OH226663   6.101   5.997   7.559  0.2812  0.4097 -0.0846
  823TIP3    H126664   6.100   5.912   7.516 -0.6709  0.6462 -0.5748
  823TIP3    H226665   6.035   5.990   7.629 -0.3361  0.9463 -0.5894
  824TIP3   OH226666   6.913   4.149   8.311 -0.2950 -0.4724 -0.5429
  824TIP3    H126667   6.973   4.197   8.254  0.1343  0.1746  0.4240
  824TIP3    H226668   6.833   4.138   8.259 -0.5889  1.7492 -0.6450
  825TIP3   OH226669   1.698   4.751   9.330  0.5854  0.0976  0.1348
  825TIP3    H126670   1.610   4.782   9.308  1.2103  1.0418 -1.1544
  825TIP3    H226671   1.683   4.678   9.391 -1.0123  1.4942  1.5112
  826TIP3   OH226672   1.370   2.299   8.206  0.0214 -0.1443 -0.6415
  826TIP3    H126673   1.460   2.273   8.226  0.3430  1.0597 -0.4427
  826TIP3    H226674   1.317   2.254   8.271  0.8205  1.7546  1.4481
  827TIP3   OH226675   6.403   2.034   7.720 -0.1603  0.1254  0.5281
  827TIP3    H126676   6.315   1.999   7.711  0.1139 -0.7928  1.2275
  827TIP3    H226677   6.457   1.978   7.663 -0.2707  1.7649 -1.2685
  828TIP3   OH226678   2.134   6.157   9.279 -0.3672 -0.0541 -0.1523
  828TIP3    H126679   2.174   6.241   9.304 -0.6435 -0.2184  0.9058
  828TIP3    H226680   2.062   6.146   9.341 -0.3611 -1.0580 -0.3064
  829TIP3   OH226681   4.723   6.622   9.155 -0.2375 -0.3160  0.0629
  829TIP3    H126682   4.698   6.545   9.104 -0.2241 -1.3082  1.4821
  829TIP3    H226683   4.650   6.683   9.143 -2.6634 -2.4056  2.6029
  830TIP3   OH226684   4.097   3.484   8.035  0.6316  0.0319  0.2949
  830TIP3    H126685   4.085   3.389   8.037 -0.1631  0.1346  1.2338
  830TIP3    H226686   4.147   3.500   7.955  2.9223 -1.3959  1.3540
  831TIP3   OH226687   5.848   0.336   8.672  0.3403 -0.1031  0.0923
  831TIP3    H126688   5.810   0.249   8.668  0.6358 -0.2846  0.9678
  831TIP3    H226689   5.777   0.396   8.649 -0.6741 -0.3895  2.2766
  832TIP3   OH226690   3.044   6.327   8.771 -0.3087 -0.4555 -0.0823
  832TIP3    H126691   3.130   6.313   8.810  0.6785  1.7621 -1.2526
  832TIP3    H226692   3.041   6.421   8.753 -2.0264 -0.8243 -2.1903
  833TIP3   OH226693   2.054   0.816   8.432  0.1069  0.1025  0.1737
  833TIP3    H126694   2.028   0.852   8.516 -1.4714  1.0807 -0.6787
  833TIP3    H226695   1.971   0.803   8.385  0.8303 -1.8716 -0.6720
  834TIP3   OH226696   1.958   7.057   7.429 -0.5702  0.0497  0.7148
  834TIP3    H126697   1.931   7.091   7.514 -2.0413  1.7092 -0.3457
  834TIP3    H226698   2.052   7.073   7.425 -0.7105  1.1303  1.5324
  835TIP3   OH226699   0.593   6.700   8.383 -0.1370 -0.3986  0.0318
  835TIP3    H126700   0.560   6.788   8.366  0.9919  0.5425  2.2739
  835TIP3    H226701   0.519   6.652   8.419 -0.7509 -0.3841 -1.1761
  836TIP3   OH226702   0.384   7.196   7.735 -0.1549 -0.4844  0.4666
  836TIP3    H126703   0.402   7.163   7.823 -0.2262 -0.3785  0.5204
  836TIP3    H226704   0.383   7.291   7.744  3.9545 -0.1849 -0.3912
  837TIP3   OH226705   1.169   4.636   7.308 -0.3355  0.2277 -0.1720
  837TIP3    H126706   1.222   4.714   7.324 -1.4595  0.7292  1.3231
  837TIP3    H226707   1.210   4.567   7.359 -0.4032  0.3016 -0.0187
  838TIP3   OH226708   1.427   1.292   8.389  0.2140 -0.8823  0.0118
  838TIP3    H126709   1.431   1.349   8.312 -1.3852 -1.1862 -0.3291
  838TIP3    H226710   1.335   1.295   8.416  0.4986 -1.7893  1.1426
  839TIP3   OH226711   1.766   2.639   8.635  0.2306  0.0347 -0.5447
  839TIP3    H126712   1.829   2.688   8.582  0.7951  0.6917  0.6684
  839TIP3    H226713   1.703   2.705   8.664  1.0065  0.1065  1.1194
  840TIP3   OH226714   2.802   6.448   8.204  0.3701 -0.9846 -0.0498
  840TIP3    H126715   2.892   6.444   8.237  1.0455 -0.5875 -1.7231
  840TIP3    H226716   2.767   6.360   8.217  0.3281 -0.6673  2.3261
  841TIP3   OH226717   7.540   0.986   9.562 -0.1848  0.3380 -0.0785
  841TIP3    H126718   7.631   0.977   9.592 -0.7004 -1.3298  1.1030
  841TIP3    H226719   7.515   1.074   9.590  0.6479  0.3156  0.8288
  842TIP3   OH226720   3.349   5.527   6.731  0.3478 -0.5657 -0.1163
  842TIP3    H126721   3.297   5.450   6.709 -0.7328  0.7126 -2.3160
  842TIP3    H226722   3.427   5.520   6.676  2.1618 -1.9153  2.3956
  843TIP3   OH226723   6.267   5.109   8.268 -0.2889  0.1246  0.0269
  843TIP3    H126724   6.269   5.143   8.178  1.1941 -1.7882 -0.7319
  843TIP3    H226725   6.327   5.166   8.316 -0.1695  0.4286 -0.4719
  844TIP3   OH226726   3.073   3.009   9.145 -0.5749  0.5669  0.6277
  844TIP3    H126727   3.063   3.096   9.105  1.1785  0.2965 -0.5113
  844TIP3    H226728   3.029   2.950   9.084 -0.6745  0.5094  0.7550
  845TIP3   OH226729   3.610   4.464   7.151 -0.7823 -0.9632  0.5986
  845TIP3    H126730   3.656   4.508   7.222 -1.2550  0.6143 -0.0377
  845TIP3    H226731   3.650   4.498   7.071 -2.0743 -0.6153  0.0684
  846TIP3   OH226732   1.022   3.175   8.760  0.2946  0.6249 -0.2866
  846TIP3    H126733   1.053   3.184   8.670  0.6593  0.2250 -0.2074
  846TIP3    H226734   0.966   3.097   8.758  1.7529 -0.4908  0.1902
  847TIP3   OH226735   4.108   0.442   8.606 -0.3162  0.4880  0.2152
  847TIP3    H126736   4.200   0.414   8.604 -0.0184  1.4893 -0.4476
  847TIP3    H226737   4.104   0.504   8.679 -0.0438  1.8245 -0.8779
  848TIP3   OH226738   2.036   4.651   8.062 -0.3046  0.6905 -0.4772
  848TIP3    H126739   2.080   4.566   8.063 -0.0068  0.8362  0.4818
  848TIP3    H226740   2.107   4.715   8.064 -0.5309  0.9399  0.0787
  849TIP3   OH226741   1.831   0.375   7.647  0.0323  0.4565 -0.3351
  849TIP3    H126742   1.767   0.391   7.577  0.4189  1.3951 -0.4938
  849TIP3    H226743   1.786   0.318   7.709  0.5951 -2.8367 -2.6866
  850TIP3   OH226744   5.115   7.482   8.986  0.7031  0.4631  0.4628
  850TIP3    H126745   5.024   7.483   8.956  1.4171 -0.5663 -1.9553
  850TIP3    H226746   5.111   7.436   9.070 -1.1632  1.8089  1.1878
  851TIP3   OH226747   1.341   4.854   7.339  0.0941  0.2444  0.4144
  851TIP3    H126748   1.305   4.890   7.258  2.0271 -0.7680 -0.9937
  851TIP3    H226749   1.435   4.845   7.321  0.4609 -0.6818  2.5302
  852TIP3   OH226750   0.886   6.523   9.632  0.0752 -0.3243 -0.5049
  852TIP3    H126751   0.849   6.561   9.553 -1.2556  2.1742  1.1562
  852TIP3    H226752   0.970   6.567   9.644 -0.0437 -0.1798 -0.1807
  853TIP3   OH226753   5.875   0.110   8.879 -0.3883 -0.1074  0.0076
  853TIP3    H126754   5.790   0.088   8.917 -0.3098 -1.2790 -0.4401
  853TIP3    H226755   5.868   0.082   8.788 -0.0154  1.1514 -0.4226
  854TIP3   OH226756   0.413   2.331   8.887  0.1325 -0.1745  0.5616
  854TIP3    H126757   0.434   2.420   8.912 -2.6692  0.6049  0.5279
  854TIP3    H226758   0.463   2.315   8.807 -0.1533  1.8028 -0.0490
  855TIP3   OH226759   6.990   6.028   7.758  0.5442 -0.6152 -0.1725
  855TIP3    H126760   7.030   6.086   7.694 -0.3305 -0.9041 -1.0083
  855TIP3    H226761   6.914   6.077   7.791  0.0382 -1.0969 -0.5849
  856TIP3   OH226762   2.585   2.396   7.115  0.1543  0.1735 -0.5112
  856TIP3    H126763   2.606   2.334   7.045 -1.9123 -0.0587 -1.0042
  856TIP3    H226764   2.618   2.356   7.194 -0.7869 -1.4152 -0.8776
  857TIP3   OH226765   3.652   3.225   8.455  0.2930 -0.0645 -0.1737
  857TIP3    H126766   3.635   3.311   8.416 -2.0501  0.4825  1.8009
  857TIP3    H226767   3.603   3.164   8.400 -0.6234  0.3186  0.1925
  858TIP3   OH226768   1.959   4.914   9.352  0.6296  0.1532  0.2444
  858TIP3    H126769   2.027   4.848   9.344  0.1826 -0.1040 -4.8608
  858TIP3    H226770   1.877   4.864   9.353  0.3253  0.5832  2.6217
  859TIP3   OH226771   1.264   3.921   7.970 -0.3159 -0.4297  0.1076
  859TIP3    H126772   1.193   3.921   8.035  0.3411  1.1112  0.8699
  859TIP3    H226773   1.299   3.832   7.973 -0.2818 -0.3922  1.9254
  860TIP3   OH226774   7.350   6.718   9.224 -0.1885  0.6063  0.3028
  860TIP3    H126775   7.411   6.656   9.184  0.2613  0.7566  0.7498
  860TIP3    H226776   7.398   6.755   9.298 -1.3592 -0.4209  1.6266
  861TIP3   OH226777   6.131   3.289   7.527 -0.6382 -0.1817  0.0915
  861TIP3    H126778   6.158   3.357   7.589 -0.5165  0.5792 -0.7694
  861TIP3    H226779   6.115   3.212   7.581  3.1487 -0.7164  0.7273
  862TIP3   OH226780   1.213   6.314   8.186  0.2569 -0.4985  0.0005
  862TIP3    H126781   1.231   6.381   8.251  2.4183 -0.9138 -0.0677
  862TIP3    H226782   1.231   6.231   8.231  0.3581 -0.8621 -0.6860
  863TIP3   OH226783   1.514   5.462   9.370  0.2846 -0.2469  0.0965
  863TIP3    H126784   1.517   5.555   9.344  0.0545 -0.5557 -1.1164
  863TIP3    H226785   1.424   5.448   9.397  0.9022  0.4885  2.8012
  864TIP3   OH226786   2.076   5.295   7.792 -0.3406 -0.0385  0.0639
  864TIP3    H126787   2.045   5.363   7.851 -0.3617 -0.4813  0.5655
  864TIP3    H226788   2.088   5.340   7.708 -1.6976  0.2819  0.0262
  865TIP3   OH226789   0.938   1.702   9.038 -0.0322 -0.0367  0.1569
  865TIP3    H126790   0.924   1.621   9.087  1.7805 -1.6989 -1.8846
  865TIP3    H226791   1.027   1.695   9.004 -0.8365  1.4139 -2.5351
  866TIP3   OH226792   7.229   1.042   9.506 -0.2981 -0.2820  0.6344
  866TIP3    H126793   7.170   1.093   9.561  1.1093  1.3466  0.6953
  866TIP3    H226794   7.303   1.020   9.562 -0.1728 -1.0883  0.1755
  867TIP3   OH226795   4.985   4.633   7.122 -0.1220  0.2842  0.4170
  867TIP3    H126796   4.914   4.689   7.091 -0.1062  0.1414  0.1269
  867TIP3    H226797   5.009   4.580   7.047 -1.3477 -1.3802  1.1185
  868TIP3   OH226798   5.446   5.246   9.019  0.3182  0.0714  0.1919
  868TIP3    H126799   5.370   5.192   9.039 -0.0970  0.5540 -0.0637
  868TIP3    H226800   5.478   5.212   8.935 -0.3870  0.6827 -0.3436
  869TIP3   OH226801   5.823   5.031   8.160 -0.0291 -0.2407  0.1647
  869TIP3    H126802   5.864   4.979   8.229 -1.0923 -0.6669  0.5100
  869TIP3    H226803   5.754   4.974   8.125 -0.3480  0.4518 -0.3610
  870TIP3   OH226804   2.419   3.896   8.790  0.2129  0.3362 -0.1206
  870TIP3    H126805   2.361   3.887   8.866  0.3173  0.4752 -0.0237
  870TIP3    H226806   2.442   3.989   8.789  0.1186  0.3548 -0.3908
  871TIP3   OH226807   5.217   0.745   7.228 -0.0101  0.2976 -0.0781
  871TIP3    H126808   5.227   0.699   7.312 -2.9128 -1.9888 -0.8338
  871TIP3    H226809   5.172   0.826   7.251  1.7775  1.1092  0.8185
  872TIP3   OH226810   4.658   7.182   7.583  0.4152 -0.2106  0.4182
  872TIP3    H126811   4.706   7.243   7.526 -1.0028  0.8265  0.2713
  872TIP3    H226812   4.721   7.113   7.603  1.3593  0.0883 -1.3330
  873TIP3   OH226813   6.437   6.644   8.107 -0.6257  0.1076 -0.5007
  873TIP3    H126814   6.421   6.560   8.151 -0.8539 -0.2186 -1.1979
  873TIP3    H226815   6.502   6.625   8.040 -0.6613  0.4944 -0.6493
  874TIP3   OH226816   7.377   3.104   8.404 -0.2725 -0.0855 -0.0452
  874TIP3    H126817   7.304   3.119   8.465  1.5286  0.9949  1.9990
  874TIP3    H226818   7.395   3.010   8.412  0.0526  0.0588  1.3508
  875TIP3   OH226819   6.027   5.644   8.022 -0.0096 -0.0051  0.3273
  875TIP3    H126820   6.104   5.661   7.968 -1.4294  1.4594 -1.3728
  875TIP3    H226821   6.025   5.548   8.031  1.7867 -0.0899  0.1278
  876TIP3   OH226822   6.615   7.275   7.867 -0.2250 -0.1064 -0.2276
  876TIP3    H126823   6.526   7.244   7.848 -0.4118  0.6561 -0.6476
  876TIP3    H226824   6.603   7.356   7.916  0.2258  0.2556 -0.6971
  877TIP3   OH226825   2.705   7.656   7.681 -0.3309  0.0376 -0.0795
  877TIP3    H126826   2.715   7.633   7.773  0.5964  0.5119 -0.0471
  877TIP3    H226827   2.696   7.751   7.680 -0.2607  0.0441 -0.4803
  878TIP3   OH226828   7.485   4.485   8.950 -0.1380 -0.1427 -0.0016
  878TIP3    H126829   7.453   4.566   8.911 -0.4417 -0.1621  0.2006
  878TIP3    H226830   7.442   4.416   8.901  0.1780 -0.1835 -0.2218
  879TIP3   OH226831   5.620   0.086   6.867 -0.0427  0.2533 -0.2928
  879TIP3    H126832   5.655   0.140   6.796  4.3713 -2.5669 -0.6746
  879TIP3    H226833   5.577   0.013   6.822 -0.7475  0.4234  0.0889
  880TIP3   OH226834   0.234   2.812   8.265  0.1352  0.1045  0.0701
  880TIP3    H126835   0.148   2.849   8.250  0.2291 -0.1670 -1.2168
  880TIP3    H226836   0.275   2.809   8.179  1.2123 -0.3130  0.5717
  881TIP3   OH226837   1.764   3.090   9.455  0.5158 -0.0323  0.0586
  881TIP3    H126838   1.766   3.160   9.389  1.0369 -1.3433 -1.3749
  881TIP3    H226839   1.825   3.120   9.523  0.6157  0.9690 -0.4485
  882TIP3   OH226840   2.209   1.538   9.045  0.1349 -0.3779 -0.1422
  882TIP3    H126841   2.216   1.570   9.135  0.0043 -0.2192 -0.1879
  882TIP3    H226842   2.225   1.444   9.051  0.1804 -0.3572  0.0399
  883TIP3   OH226843   6.773   1.911   8.456 -0.2436  0.2534  0.7308
  883TIP3    H126844   6.699   1.933   8.512 -0.4726 -0.7255  0.8452
  883TIP3    H226845   6.748   1.828   8.415  0.5459  0.2014  0.3282
  884TIP3   OH226846   3.503   5.208   8.124 -0.0465 -0.1134  0.4953
  884TIP3    H126847   3.436   5.166   8.176 -0.1159  0.1363  0.6069
  884TIP3    H226848   3.577   5.147   8.126  0.3455  0.3661  1.7706
  885TIP3   OH226849   2.176   3.703   8.661  0.2118 -0.4242 -0.1164
  885TIP3    H126850   2.207   3.695   8.751  1.3101  1.3397 -0.2882
  885TIP3    H226851   2.084   3.729   8.669  0.4666  0.2912  0.5046
  886TIP3   OH226852   6.010   5.394   8.772 -0.0671  0.3232  0.2262
  886TIP3    H126853   6.035   5.342   8.696 -0.2909  2.2664 -1.2420
  886TIP3    H226854   5.933   5.348   8.808 -0.1723 -0.4456 -0.9126
  887TIP3   OH226855   0.616   1.551   9.191 -0.4210 -0.1185 -0.4557
  887TIP3    H126856   0.644   1.467   9.155 -0.9978  0.2191 -1.7376
  887TIP3    H226857   0.670   1.563   9.269 -0.5770 -1.8352 -0.0420
  888TIP3   OH226858   3.051   4.158   8.720 -0.6554 -0.2571 -0.6245
  888TIP3    H126859   3.023   4.239   8.762  0.6313 -0.0419 -0.1278
  888TIP3    H226860   3.123   4.185   8.662  1.3402 -1.3087  1.2285
  889TIP3   OH226861   3.727   7.150   7.401  0.2669 -0.0446 -0.0807
  889TIP3    H126862   3.773   7.141   7.485 -0.1023  1.0816  0.2552
  889TIP3    H226863   3.729   7.062   7.364  3.4026  0.0404 -0.4494
  890TIP3   OH226864   3.239   0.326   9.045  0.1095  0.2516 -0.0848
  890TIP3    H126865   3.207   0.242   9.076  1.5581 -1.0472 -1.8588
  890TIP3    H226866   3.218   0.326   8.951 -1.8278  2.8661  0.2346
  891TIP3   OH226867   3.045   6.840   8.352  0.1919  0.6425  0.2443
  891TIP3    H126868   3.119   6.895   8.326  0.2087  1.0372  1.0980
  891TIP3    H226869   3.051   6.764   8.294 -0.5853  2.0908 -1.8544
  892TIP3   OH226870   0.853   1.692   8.465 -0.0154  0.5415  0.3230
  892TIP3    H126871   0.851   1.664   8.374 -0.6056  0.2403  0.4265
  892TIP3    H226872   0.776   1.652   8.505 -0.2021  1.3098  0.7663
  893TIP3   OH226873   2.235   4.508   8.724 -0.4680 -0.4734 -0.5137
  893TIP3    H126874   2.287   4.431   8.702  0.3270  0.4496 -2.0657
  893TIP3    H226875   2.280   4.546   8.800  0.2120 -0.5564 -0.8625
  894TIP3   OH226876   0.465   0.912   8.536  0.0299  0.0994 -0.0197
  894TIP3    H126877   0.378   0.873   8.532 -0.6495  1.3656  1.5162
  894TIP3    H226878   0.516   0.863   8.471 -1.0232 -2.6275  1.0608
  895TIP3   OH226879   3.438   7.653   7.637  0.7088  0.0455 -0.2435
  895TIP3    H126880   3.402   7.734   7.672  0.2303  0.6218 -1.9391
  895TIP3    H226881   3.469   7.677   7.549  2.7175 -1.0828  0.1135
  896TIP3   OH226882   2.529   6.335   8.393  0.2291 -0.4801 -0.0706
  896TIP3    H126883   2.493   6.412   8.348 -0.1623 -0.3190  0.5106
  896TIP3    H226884   2.455   6.277   8.406 -0.0400  0.2244  1.8920
  897TIP3   OH226885   6.312   1.383   7.516 -0.0453 -0.5238  0.6812
  897TIP3    H126886   6.255   1.312   7.488 -2.0044  1.0189  0.4783
  897TIP3    H226887   6.290   1.395   7.609  2.0267 -1.6906  1.3789
  898TIP3   OH226888   2.212   1.270   9.091  0.1207 -0.3087 -0.2261
  898TIP3    H126889   2.277   1.202   9.111  2.1350  1.1273 -1.5056
  898TIP3    H226890   2.169   1.287   9.174  0.7680 -1.9343  0.4833
  899TIP3   OH226891   5.902   7.289   9.117  0.1893 -0.1786 -0.1719
  899TIP3    H126892   5.997   7.297   9.121  0.3349 -0.7570 -1.7757
  899TIP3    H226893   5.885   7.195   9.123 -0.0258 -0.4010 -2.9059
  900TIP3   OH226894   2.423   3.308   8.896 -0.7258  0.6152 -0.4946
  900TIP3    H126895   2.480   3.245   8.852 -1.3628 -1.9375  2.1079
  900TIP3    H226896   2.482   3.360   8.951 -0.5914 -0.2485  0.1883
  901TIP3   OH226897   4.032   2.349   9.264  0.1812 -0.5168  0.0709
  901TIP3    H126898   3.965   2.283   9.282 -0.5217  0.3709  0.8672
  901TIP3    H226899   3.992   2.431   9.293  1.0404  0.2598 -0.8609
  902TIP3   OH226900   0.944   1.486   9.224 -0.4636  0.0645  0.2716
  902TIP3    H126901   0.919   1.413   9.281  0.5339 -1.0218 -0.6298
  902TIP3    H226902   0.943   1.562   9.282  2.0667 -1.2149  2.2252
  903TIP3   OH226903   4.116   0.505   8.009 -0.7618 -0.2576  0.2059
  903TIP3    H126904   4.148   0.594   7.997  0.2021 -0.4586  1.1638
  903TIP3    H226905   4.032   0.515   8.053 -0.6911  0.1822  0.2410
  904TIP3   OH226906   3.895   3.998   9.181 -0.4680 -0.0473 -0.2565
  904TIP3    H126907   3.920   4.072   9.236  1.2419 -0.9455  0.2809
  904TIP3    H226908   3.812   4.024   9.141 -0.0485  2.0342  0.0952
  905TIP3   OH226909   5.369   3.048   7.645 -0.1529 -0.0331  0.6515
  905TIP3    H126910   5.359   2.977   7.709 -1.3550 -0.7783 -0.3157
  905TIP3    H226911   5.432   3.014   7.581  0.6963  0.5291  1.1742
  906TIP3   OH226912   2.276   1.370   7.639  0.1770 -0.0778  0.3995
  906TIP3    H126913   2.318   1.344   7.722 -0.7177 -2.7466  0.1136
  906TIP3    H226914   2.319   1.453   7.616  1.3238  0.1350  2.8863
  907TIP3   OH226915   0.581   7.117   7.499 -0.6275 -0.1732  0.3442
  907TIP3    H126916   0.649   7.090   7.560 -0.9257  0.2216  0.8587
  907TIP3    H226917   0.510   7.149   7.554 -2.0321 -2.2968 -0.0771
  908TIP3   OH226918   3.042   5.131   8.012 -0.2698  0.3238 -0.8108
  908TIP3    H126919   3.038   5.053   8.069 -1.1262  1.4207  0.6984
  908TIP3    H226920   3.000   5.103   7.931 -1.2830 -0.5752 -0.0143
  909TIP3   OH226921   4.985   7.340   7.833  0.1860  0.1274 -0.7828
  909TIP3    H126922   5.050   7.324   7.902  0.2558  0.8809 -0.6741
  909TIP3    H226923   5.023   7.410   7.780 -0.0534 -0.1678 -1.3533
  910TIP3   OH226924   6.926   4.223   7.973  0.0755 -0.1435 -0.0530
  910TIP3    H126925   6.888   4.293   7.920  0.3608 -0.0306 -0.1119
  910TIP3    H226926   6.963   4.269   8.049  1.0551 -0.1235 -0.5303
  911TIP3   OH226927   6.658   6.032   9.034 -0.0538  0.2557 -0.0317
  911TIP3    H126928   6.664   6.097   8.965  0.4225 -0.2549 -0.4829
  911TIP3    H226929   6.569   6.042   9.070 -0.4386  0.2707 -0.9691
  912TIP3   OH226930   2.031   5.639   7.677 -0.2307  0.2881  0.6202
  912TIP3    H126931   1.953   5.630   7.622 -0.6341 -0.4143  1.3032
  912TIP3    H226932   2.095   5.579   7.638 -0.0223  0.8475  0.0748
  913TIP3   OH226933   0.417   6.590   8.733  0.1579  0.0034 -0.0202
  913TIP3    H126934   0.503   6.609   8.770  0.7415 -0.4956 -1.0793
  913TIP3    H226935   0.361   6.578   8.809  1.0509  0.1944  0.6929
  914TIP3   OH226936   1.605   1.041   7.055  0.6629 -0.1619 -0.1907
  914TIP3    H126937   1.659   1.073   7.126  0.9210 -0.7161 -0.1293
  914TIP3    H226938   1.643   0.956   7.032 -1.6734 -1.8715  1.6293
  915TIP3   OH226939   7.261   4.181   7.731  0.1967  1.3089 -0.2252
  915TIP3    H126940   7.181   4.130   7.718 -0.0559  2.2490 -3.0559
  915TIP3    H226941   7.230   4.271   7.743  0.7622  1.2969  1.5587
  916TIP3   OH226942   0.223   1.797   6.904 -0.3249  0.4983 -0.8301
  916TIP3    H126943   0.239   1.891   6.912 -1.1232  0.4774  1.8372
  916TIP3    H226944   0.310   1.759   6.895  0.1229  1.3863 -0.3599
  917TIP3   OH226945   5.453   1.906   7.909 -0.0209  0.1608  0.0584
  917TIP3    H126946   5.463   1.899   7.814 -0.5544 -0.7709  0.0651
  917TIP3    H226947   5.479   1.996   7.929 -0.8267  0.6726 -1.0903
  918TIP3   OH226948   7.554   1.838   9.339  0.1904 -0.3967 -0.4390
  918TIP3    H126949   7.522   1.759   9.382  1.1881 -0.9886 -0.7262
  918TIP3    H226950   7.649   1.834   9.351  0.2315  0.9664 -0.1349
  919TIP3   OH226951   0.148   1.697   8.558  0.4161 -0.1461  0.5854
  919TIP3    H126952   0.153   1.772   8.617  1.2351 -0.5243  1.0241
  919TIP3    H226953   0.103   1.730   8.481 -0.8064  0.3246  1.4656
  920TIP3   OH226954   5.804   2.468   9.104 -0.0302  0.2841 -0.2483
  920TIP3    H126955   5.819   2.549   9.153 -0.1109 -0.0688  0.3693
  920TIP3    H226956   5.880   2.459   9.047  0.7402 -0.0032  0.7940
  921TIP3   OH226957   2.634   6.277   8.914  0.0088 -0.6378  0.7703
  921TIP3    H126958   2.653   6.315   8.999  1.0042  0.1954  0.1978
  921TIP3    H226959   2.548   6.311   8.890 -0.9744 -2.0741  2.0796
  922TIP3   OH226960   3.713   1.766   8.813 -0.2886  0.0023 -0.4385
  922TIP3    H126961   3.723   1.861   8.802 -0.6715  0.0491 -0.4160
  922TIP3    H226962   3.739   1.749   8.903  1.5018 -0.1743 -0.9627
  923TIP3   OH226963   0.390   6.523   8.489  0.3700  0.0938 -0.1239
  923TIP3    H126964   0.401   6.554   8.579 -0.7991  0.6740 -0.1546
  923TIP3    H226965   0.320   6.458   8.494 -2.0515  2.4505 -1.0153
  924TIP3   OH226966   2.872   2.587   8.719  0.1531 -0.5085 -0.2011
  924TIP3    H126967   2.799   2.634   8.760  0.5647  1.0992 -1.2016
  924TIP3    H226968   2.834   2.503   8.691 -1.3191  0.2514 -0.6386
  925TIP3   OH226969   0.654   5.651   7.188 -0.4769 -0.0162 -0.3102
  925TIP3    H126970   0.577   5.686   7.145 -0.5401  0.1275 -0.0802
  925TIP3    H226971   0.723   5.715   7.170 -0.5460  0.1323 -0.0513
  926TIP3   OH226972   3.681   6.077   8.655 -0.1421 -0.2577  0.0258
  926TIP3    H126973   3.719   6.163   8.675 -0.9904  0.3249 -0.7818
  926TIP3    H226974   3.658   6.040   8.741  1.0278 -0.0643  0.4313
  927TIP3   OH226975   5.965   6.929   7.174  0.0844 -0.2623  0.1671
  927TIP3    H126976   6.036   6.923   7.237  0.4553  1.9820  0.0492
  927TIP3    H226977   5.971   6.848   7.123  2.7549 -0.0131 -0.0505
  928TIP3   OH226978   3.845   0.394   9.260  0.1747  0.5427 -0.0088
  928TIP3    H126979   3.802   0.444   9.190 -2.4597 -1.5721 -0.0485
  928TIP3    H226980   3.778   0.334   9.291  1.4958  0.7830  3.8113
  929TIP3   OH226981   1.884   3.316   7.319  0.4234  0.1513  0.2776
  929TIP3    H126982   1.957   3.340   7.262 -0.0044  0.0772 -0.3084
  929TIP3    H226983   1.808   3.312   7.261  0.0551 -0.3279  0.7815
  930TIP3   OH226984   2.668   3.582   7.220 -0.5344 -0.0381  0.0532
  930TIP3    H126985   2.577   3.554   7.211 -0.5506 -0.1632  0.5777
  930TIP3    H226986   2.676   3.656   7.159 -0.6018 -0.8965 -1.0348
  931TIP3   OH226987   7.167   0.835   8.342 -0.1298 -0.5474  0.3168
  931TIP3    H126988   7.089   0.852   8.394 -0.0529 -0.1052  0.2872
  931TIP3    H226989   7.199   0.921   8.315 -0.5256 -0.7864 -1.0017
  932TIP3   OH226990   0.893   0.712   7.128  0.2839 -0.1191 -0.0730
  932TIP3    H126991   0.931   0.776   7.067  0.5036 -0.0224  0.1647
  932TIP3    H226992   0.853   0.646   7.071 -1.6332  1.1927 -0.3534
  933TIP3   OH226993   1.122   3.460   8.439  0.9862  0.0349 -0.5550
  933TIP3    H126994   1.147   3.421   8.523 -0.6437 -1.3373 -0.6477
  933TIP3    H226995   1.172   3.410   8.374  1.4225  0.3661 -0.4792
  934TIP3   OH226996   1.364   3.372   9.130  0.4011  0.0857  0.1052
  934TIP3    H126997   1.316   3.447   9.094  0.0338 -1.1024 -2.1266
  934TIP3    H226998   1.301   3.300   9.124  1.5757 -0.9368 -0.3216
  935TIP3   OH226999   0.707   1.305   9.080  0.1195 -0.0166  0.0481
  935TIP3    H127000   0.770   1.274   9.145  0.8245 -2.1374 -1.5432
  935TIP3    H227001   0.761   1.337   9.008 -0.6645  0.6417 -0.2685
  936TIP3   OH227002   4.504   4.075   7.890 -0.6729 -0.1782 -0.5700
  936TIP3    H127003   4.581   4.047   7.840  0.6673 -2.0458  2.2897
  936TIP3    H227004   4.487   4.164   7.859  1.9230 -0.1072 -2.1308
  937TIP3   OH227005   7.634   0.683   7.454 -0.1113 -0.3389 -0.6391
  937TIP3    H127006   7.655   0.724   7.537 -0.6484  1.1699 -1.2094
  937TIP3    H227007   7.698   0.612   7.444  0.9444  0.4599  0.3202
  938TIP3   OH227008   1.320   5.140   8.716  0.2472  0.0611 -0.2271
  938TIP3    H127009   1.234   5.159   8.678  0.8149  1.4153 -0.8942
  938TIP3    H227010   1.302   5.077   8.786 -1.0464 -1.2801 -1.6616
  939TIP3   OH227011   1.558   6.851   7.731  0.5505 -0.4836  0.2373
  939TIP3    H127012   1.505   6.790   7.679 -2.4251  2.5600 -0.6557
  939TIP3    H227013   1.502   6.876   7.804  1.9343  0.6586  0.9651
  940TIP3   OH227014   2.421   0.901   7.031 -0.4266 -0.0022  0.1296
  940TIP3    H127015   2.415   0.873   6.940  2.5699 -1.5768  0.2996
  940TIP3    H227016   2.400   0.822   7.082  0.2814  0.2015  0.7611
  941TIP3   OH227017   5.120   5.647   6.668  0.6335  0.0101  0.3286
  941TIP3    H127018   5.061   5.722   6.674  0.6754  0.0295  0.5114
  941TIP3    H227019   5.102   5.608   6.583  0.7542  0.3464  0.1494
  942TIP3   OH227020   0.812   2.005   9.353 -0.3616  0.5056  0.0135
  942TIP3    H127021   0.843   1.972   9.268  2.0103  0.5742  0.7806
  942TIP3    H227022   0.875   2.073   9.376  0.1700 -0.7700  2.6462
  943TIP3   OH227023   4.772   4.878   8.928 -0.5074  0.2700 -0.8077
  943TIP3    H127024   4.835   4.929   8.877  1.3925  0.5377  1.6468
  943TIP3    H227025   4.821   4.802   8.959 -1.7330 -0.1455  0.2063
  944TIP3   OH227026   7.324   6.153   8.270  0.7281 -0.5611  0.1936
  944TIP3    H127027   7.366   6.069   8.250 -0.2135 -1.0009 -0.0101
  944TIP3    H227028   7.343   6.208   8.194  1.8590 -0.3710  0.5899
  945TIP3   OH227029   4.488   0.635   6.615  0.2488 -0.1861  0.3037
  945TIP3    H127030   4.450   0.565   6.669 -0.1258  0.5004  0.9499
  945TIP3    H227031   4.559   0.592   6.567  0.3048 -0.9189  1.0095
  946TIP3   OH227032   3.448   4.285   7.390 -0.1004 -0.3031  0.2791
  946TIP3    H127033   3.459   4.371   7.349  0.1980 -0.2727  0.4160
  946TIP3    H227034   3.427   4.304   7.481  1.9434 -0.3557  0.8199
  947TIP3   OH227035   0.173   6.768   8.250 -0.0456  0.5221 -0.4065
  947TIP3    H127036   0.236   6.755   8.180 -0.0252  1.5374 -0.5893
  947TIP3    H227037   0.123   6.686   8.253  0.9406 -0.1095 -0.5822
  948TIP3   OH227038   7.152   7.170   8.992 -0.4609 -0.5610 -0.0126
  948TIP3    H127039   7.236   7.213   9.005 -1.2474  1.2395 -0.5849
  948TIP3    H227040   7.145   7.108   9.065  0.9397 -0.0646  0.5690
  949TIP3   OH227041   2.876   7.098   8.986 -0.4617  1.0823 -0.0067
  949TIP3    H127042   2.971   7.094   8.975 -0.6178  0.3366 -1.3301
  949TIP3    H227043   2.844   7.134   8.903 -1.4081  0.1347 -0.0727
  950TIP3   OH227044   6.750   6.187   7.852 -0.1098  0.3931 -0.2214
  950TIP3    H127045   6.732   6.146   7.936  0.2476  1.0944  0.2120
  950TIP3    H227046   6.665   6.194   7.809 -0.3557  0.4259  0.2710
  951TIP3   OH227047   1.824   2.342   7.786 -0.2329  0.2618  0.4357
  951TIP3    H127048   1.860   2.397   7.717  0.1505 -0.4836  0.0262
  951TIP3    H227049   1.739   2.312   7.751 -1.1971  1.8306  1.3037
  952TIP3   OH227050   6.855   2.419   7.441 -0.1433  0.1513 -0.3833
  952TIP3    H127051   6.822   2.450   7.357  1.2131 -0.5744 -1.2281
  952TIP3    H227052   6.948   2.443   7.440  0.2814 -1.3710  0.1665
  953TIP3   OH227053   0.968   5.666   8.042 -0.0815  0.8077  0.2427
  953TIP3    H127054   0.953   5.755   8.011  1.2570  1.2612  0.8360
  953TIP3    H227055   0.992   5.675   8.134 -0.9385 -0.2680  0.5986
  954TIP3   OH227056   0.750   5.410   7.627  0.0139 -0.2262  0.0440
  954TIP3    H127057   0.701   5.472   7.573  0.5453  0.1289 -0.0391
  954TIP3    H227058   0.694   5.394   7.702 -1.7614 -2.4400 -1.6086
  955TIP3   OH227059   6.310   7.226   9.157  0.1547  0.0517 -0.3990
  955TIP3    H127060   6.280   7.230   9.248  1.3008 -1.0601  0.0451
  955TIP3    H227061   6.366   7.303   9.148 -0.0292  0.2129 -0.1914
  956TIP3   OH227062   6.554   2.170   8.737 -0.2226  0.2289 -0.1602
  956TIP3    H127063   6.485   2.187   8.801  0.0935 -0.2291  0.3125
  956TIP3    H227064   6.575   2.077   8.750  1.6146  0.7450  0.8348
  957TIP3   OH227065   6.472   6.068   8.713 -0.2614  0.3507 -1.1086
  957TIP3    H127066   6.524   5.993   8.743  0.7647  0.4263 -2.5886
  957TIP3    H227067   6.385   6.052   8.749 -0.0863 -1.6097 -1.4243
  958TIP3   OH227068   4.324   4.810   8.407 -0.6434  0.3355 -0.3660
  958TIP3    H127069   4.269   4.868   8.461  1.7670  1.6999  0.7596
  958TIP3    H227070   4.407   4.856   8.399  0.3638 -1.6158 -2.0925
  959TIP3   OH227071   3.889   6.901   9.096  0.3510  0.2397  0.6448
  959TIP3    H127072   3.807   6.853   9.108  0.1853  0.8490  2.2419
  959TIP3    H227073   3.871   6.960   9.024 -0.8892  0.8722  1.4265
  960TIP3   OH227074   6.911   2.890   7.824 -0.3502  0.2982  0.2895
  960TIP3    H127075   6.963   2.894   7.905 -0.6539  2.1486  0.4462
  960TIP3    H227076   6.928   2.803   7.788  0.3425 -0.2992  1.9825
  961TIP3   OH227077   4.727   0.334   8.801  0.2383 -0.3106  0.7744
  961TIP3    H127078   4.750   0.415   8.754  0.1034 -1.0421 -0.6206
  961TIP3    H227079   4.632   0.340   8.815 -0.2235 -1.1944 -1.4222
  962TIP3   OH227080   6.515   6.353   9.017  0.1181 -0.1609 -0.2575
  962TIP3    H127081   6.440   6.374   8.962  0.3146  0.6688 -0.2252
  962TIP3    H227082   6.583   6.325   8.955 -0.2400 -0.9969 -0.2784
  963TIP3   OH227083   3.544   3.127   8.875  0.3177 -1.0235 -0.0045
  963TIP3    H127084   3.572   3.059   8.937 -1.1637  0.0794  1.9902
  963TIP3    H227085   3.613   3.193   8.879 -1.0255  0.3863  2.7859
  964TIP3   OH227086   5.168   5.393   8.652  0.4229  0.4515 -0.0691
  964TIP3    H127087   5.112   5.318   8.634  1.6405 -0.8442  1.2025
  964TIP3    H227088   5.256   5.356   8.658  0.8242  1.5730  2.6676
  965TIP3   OH227089   4.532   4.563   8.035  0.3512  0.3435 -0.1645
  965TIP3    H127090   4.448   4.578   8.079  0.2494 -0.3079 -0.1227
  965TIP3    H227091   4.515   4.492   7.973  0.8555  0.2457 -0.1992
  966TIP3   OH227092   3.743   6.699   8.355  0.0147 -0.4461  0.5817
  966TIP3    H127093   3.833   6.713   8.325  0.7686  0.2789  2.9847
  966TIP3    H227094   3.753   6.650   8.437 -1.7218  0.3533  1.3148
  967TIP3   OH227095   2.410   6.338   8.741 -0.4649 -0.6366 -0.5084
  967TIP3    H127096   2.325   6.377   8.724 -0.7629 -0.5240  1.0607
  967TIP3    H227097   2.469   6.380   8.679 -1.5096 -0.6235 -1.5299
  968TIP3   OH227098   1.404   0.955   7.199 -0.7631  0.0500 -0.2714
  968TIP3    H127099   1.321   0.946   7.152  0.3511 -2.0966 -2.0117
  968TIP3    H227100   1.462   0.998   7.136 -0.2200  0.4628  0.5000
  969TIP3   OH227101   2.378   4.302   8.647 -0.0086 -0.4544 -0.0619
  969TIP3    H127102   2.442   4.297   8.576  0.0234 -1.6024  0.0343
  969TIP3    H227103   2.302   4.254   8.615 -0.2953 -0.3099  0.3840
  970TIP3   OH227104   1.157   0.606   7.044  0.5911 -0.1819 -0.1888
  970TIP3    H127105   1.224   0.589   6.977  0.4816 -0.0022 -0.3458
  970TIP3    H227106   1.084   0.550   7.019  0.9168 -0.8549  0.3450
  971TIP3   OH227107   3.302   2.037   9.239 -0.2268 -0.2132  0.0071
  971TIP3    H127108   3.363   2.111   9.230 -0.5581  0.0268 -0.2899
  971TIP3    H227109   3.223   2.066   9.194 -0.5376 -0.5538  0.3274
  972TIP3   OH227110   1.589   0.437   8.599 -0.1245 -0.1495  0.2222
  972TIP3    H127111   1.521   0.412   8.661 -0.9269 -0.3217 -0.7031
  972TIP3    H227112   1.606   0.357   8.548 -0.2170  0.2508 -0.4530
  973TIP3   OH227113   4.816   0.773   8.391 -0.5827  0.6818  0.7059
  973TIP3    H127114   4.828   0.806   8.302 -0.7458 -0.9808  0.0205
  973TIP3    H227115   4.866   0.833   8.447 -0.6058  1.8383 -0.4784
  974TIP3   OH227116   4.890   5.451   8.017 -0.1470  0.6362 -0.5246
  974TIP3    H127117   4.825   5.388   8.049  2.1839 -1.5955  0.2193
  974TIP3    H227118   4.917   5.499   8.096  0.7235 -0.1072 -0.3432
  975TIP3   OH227119   0.692   2.315   7.975  0.1273 -0.0162 -0.8058
  975TIP3    H127120   0.743   2.316   7.894  1.9073 -0.5094  0.2693
  975TIP3    H227121   0.671   2.223   7.989 -0.8240  0.1466 -1.0644
  976TIP3   OH227122   2.295   0.179   8.942 -0.3168  0.0946 -0.1993
  976TIP3    H127123   2.351   0.104   8.961  0.3470  0.8968  1.1567
  976TIP3    H227124   2.237   0.148   8.872 -0.1778 -1.7273  0.4261
  977TIP3   OH227125   2.741   7.477   8.213 -0.0028  0.0917 -0.2054
  977TIP3    H127126   2.694   7.549   8.170  0.5638  0.2017 -0.6536
  977TIP3    H227127   2.759   7.510   8.302 -2.2542 -0.6098  0.5591
  978TIP3   OH227128   3.343   0.874   7.667 -0.2150 -0.0396  0.2513
  978TIP3    H127129   3.297   0.802   7.624 -0.2981  0.0993  0.1099
  978TIP3    H227130   3.401   0.831   7.730 -0.3543 -0.2250  0.2514
  979TIP3   OH227131   2.855   2.059   6.607 -0.3294  0.3168 -0.2870
  979TIP3    H127132   2.859   2.148   6.573  0.5857  0.4090  0.0196
  979TIP3    H227133   2.934   2.051   6.661 -0.9862 -0.3099  0.6072
  980TIP3   OH227134   3.177   5.134   8.494 -0.0525 -0.0664  0.3340
  980TIP3    H127135   3.240   5.129   8.422  0.1372  0.7702  0.4268
  980TIP3    H227136   3.114   5.200   8.466 -0.2493 -0.0851  0.7282
  981TIP3   OH227137   7.625   4.043   9.022  0.0474  0.0822 -0.0171
  981TIP3    H127138   7.557   4.070   9.083  0.7500  0.8074  0.4680
  981TIP3    H227139   7.707   4.074   9.062  0.8097 -1.8703  0.0404
  982TIP3   OH227140   3.556   1.040   8.946 -0.2212 -0.5175 -0.4270
  982TIP3    H127141   3.492   1.091   8.996  0.7573 -0.0491  0.3735
  982TIP3    H227142   3.525   1.045   8.856  1.0169  3.4663 -0.8322
  983TIP3   OH227143   2.584   5.302   8.547 -0.3324 -0.5020  0.0634
  983TIP3    H127144   2.653   5.329   8.608 -1.1972 -0.9039  1.2495
  983TIP3    H227145   2.632   5.270   8.470  0.7670  0.5633  0.2653
  984TIP3   OH227146   6.391   2.164   8.246 -0.1966 -0.4438  0.5068
  984TIP3    H127147   6.353   2.171   8.333 -0.0714  0.2267  0.5120
  984TIP3    H227148   6.345   2.229   8.194  1.9198  1.5230  0.8916
  985TIP3   OH227149   7.605   3.300   7.266 -0.8239 -0.0489 -0.2029
  985TIP3    H127150   7.677   3.261   7.216 -1.0037  0.5869 -0.9743
  985TIP3    H227151   7.526   3.261   7.228 -1.0232  1.2381 -1.1683
  986TIP3   OH227152   0.727   7.541   7.110 -0.0376  0.5026  0.1880
  986TIP3    H127153   0.699   7.488   7.185 -1.6309  0.8453 -0.1306
  986TIP3    H227154   0.806   7.498   7.079 -0.4693 -0.8220  0.8382
  987TIP3   OH227155   0.215   1.717   7.281  0.4470  0.4263  0.3639
  987TIP3    H127156   0.272   1.791   7.259 -1.0888  1.7645  0.6804
  987TIP3    H227157   0.185   1.737   7.370 -2.3381  1.0466 -0.6122
  988TIP3   OH227158   4.986   1.289   9.015 -0.6334  0.1399  0.5832
  988TIP3    H127159   5.068   1.258   8.976 -2.5694 -2.2240 -1.9445
  988TIP3    H227160   5.000   1.280   9.109  1.6004 -1.2799  0.1955
  989TIP3   OH227161   2.690   4.269   8.691 -0.2045  0.6108  0.6604
  989TIP3    H127162   2.718   4.192   8.741 -1.8767  0.1688  0.9561
  989TIP3    H227163   2.650   4.327   8.756  0.8878  1.7017  0.4144
  990TIP3   OH227164   3.367   1.920   7.879  1.2241 -0.8671 -0.3072
  990TIP3    H127165   3.346   1.882   7.794  1.5248 -1.6038 -0.0613
  990TIP3    H227166   3.456   1.952   7.870 -0.0100  2.7211 -1.5112
  991TIP3   OH227167   2.749   2.295   7.895 -0.0470 -0.0832 -0.2182
  991TIP3    H127168   2.736   2.221   7.837  1.7228  0.3041 -1.1737
  991TIP3    H227169   2.843   2.296   7.912 -0.1820  1.3394  0.6024
  992TIP3   OH227170   2.004   2.354   9.083  0.6141 -0.0743 -0.2491
  992TIP3    H127171   1.961   2.285   9.032 -0.0613 -0.0639  0.3024
  992TIP3    H227172   2.049   2.308   9.153  0.2003  0.0459  0.0934
  993TIP3   OH227173   3.207   2.062   9.757  0.3630  0.8434  0.8341
  993TIP3    H127174   3.222   2.128   9.689  1.9748  1.9961  2.2246
  993TIP3    H227175   3.133   2.095   9.807 -0.8802 -0.0482 -0.3521
  994TIP3   OH227176   6.326   6.717   8.775 -0.0658  0.0751  0.0032
  994TIP3    H127177   6.310   6.710   8.869  0.4147  1.8897  0.2589
  994TIP3    H227178   6.240   6.731   8.736 -0.3191 -1.1349  0.1065
  995TIP3   OH227179   5.873   0.803   8.061  0.4030  0.0284  0.1038
  995TIP3    H127180   5.792   0.783   8.109 -0.0368 -0.6081 -0.8817
  995TIP3    H227181   5.882   0.898   8.070  0.6309 -0.1321  1.8848
  996TIP3   OH227182   4.268   0.895   9.404 -0.2162 -0.1954  0.1649
  996TIP3    H127183   4.268   0.871   9.312  0.4425 -1.1184  0.3811
  996TIP3    H227184   4.235   0.817   9.449  0.5258 -0.1774  0.7784
  997TIP3   OH227185   1.750   0.766   7.098 -0.1999  0.0393 -0.3902
  997TIP3    H127186   1.833   0.720   7.112 -1.1240 -2.0268 -1.3216
  997TIP3    H227187   1.688   0.722   7.156 -0.8411  1.0210 -0.3034
  998TIP3   OH227188   4.849   7.243   8.524 -0.4186 -0.2661  0.3944
  998TIP3    H127189   4.916   7.206   8.580 -0.1125 -0.6017 -0.1866
  998TIP3    H227190   4.875   7.335   8.514  0.8767 -0.7506 -1.1267
  999TIP3   OH227191   2.088   2.913   6.582  0.0823 -0.2054  0.2534
  999TIP3    H127192   2.169   2.862   6.578  0.4672  0.3835  0.2185
  999TIP3    H227193   2.087   2.949   6.671 -0.3348 -0.5175  0.3743
 1000TIP3   OH227194   6.475   5.288   8.349  0.1956  0.5147  0.1536
 1000TIP3    H127195   6.531   5.279   8.271 -1.3828  2.3010 -1.2844
 1000TIP3    H227196   6.534   5.318   8.417  1.4088  0.0912 -0.6703
 1001TIP3   OH227197   1.829   3.934   8.845  0.5132 -0.2468  0.2300
 1001TIP3    H127198   1.889   3.984   8.899 -0.1606  0.3988  0.3971
 1001TIP3    H227199   1.789   3.998   8.787  1.6444 -1.0049 -1.4777
 1002TIP3   OH227200   0.664   5.599   7.978  0.2368 -0.1344 -0.0148
 1002TIP3    H127201   0.618   5.563   8.054  0.6267 -0.9544 -0.1517
 1002TIP3    H227202   0.742   5.544   7.970  0.4932  0.3153 -0.6645
 1003TIP3   OH227203   2.009   5.516   7.961 -0.0772 -0.3520  0.5252
 1003TIP3    H127204   2.048   5.595   7.998  0.4426  1.6604 -3.6541
 1003TIP3    H227205   1.934   5.548   7.910 -1.1434 -2.8743  0.3519
 1004TIP3   OH227206   4.097   1.108   6.953  0.5133 -0.4801  0.6503
 1004TIP3    H127207   4.156   1.182   6.934  0.0885 -0.9236 -3.0974
 1004TIP3    H227208   4.140   1.033   6.914 -1.6734 -1.1426 -0.6099
 1005TIP3   OH227209   2.808   0.563   7.759 -0.0714  0.2880 -0.4712
 1005TIP3    H127210   2.733   0.584   7.704  0.4476  0.7710 -1.0076
 1005TIP3    H227211   2.776   0.574   7.849  0.0750  3.2081 -0.6872
 1006TIP3   OH227212   6.288   0.971   9.398 -0.3139  1.2697 -0.0399
 1006TIP3    H127213   6.320   1.021   9.473 -2.5275  0.2246  1.7121
 1006TIP3    H227214   6.236   1.034   9.347 -1.2245  1.3336  0.9338
 1007TIP3   OH227215   4.485   1.971   7.137  0.1187  0.2542 -0.2651
 1007TIP3    H127216   4.516   1.957   7.047 -1.7493 -2.4502 -0.5984
 1007TIP3    H227217   4.411   2.030   7.128 -0.8643 -1.0092 -0.7152
 1008TIP3   OH227218   1.288   3.892   7.273 -0.2150  0.1460  0.3357
 1008TIP3    H127219   1.205   3.889   7.225  0.5483  0.3043 -1.0318
 1008TIP3    H227220   1.299   3.984   7.297  0.0514  0.3078 -0.3829
 1009TIP3   OH227221   5.275   0.544   9.132  0.5956  0.3544 -0.3017
 1009TIP3    H127222   5.261   0.594   9.212  0.8933 -0.3838  0.2287
 1009TIP3    H227223   5.190   0.547   9.086 -0.1962 -0.8813  1.0181
 1010TIP3   OH227224   0.799   4.761   6.602  0.3884  0.0667  0.1405
 1010TIP3    H127225   0.746   4.825   6.649  1.7621  0.1205  1.6983
 1010TIP3    H227226   0.858   4.813   6.548  0.7339  0.0929  0.5393
 1011TIP3   OH227227   1.796   2.061   9.628 -0.2403 -0.0013 -0.2665
 1011TIP3    H127228   1.869   2.044   9.567  0.0438 -1.6842  0.4811
 1011TIP3    H227229   1.795   2.156   9.638  2.0632  0.0592 -0.0728
 1012TIP3   OH227230   0.318   2.107   8.640  0.3475 -0.1326  0.4780
 1012TIP3    H127231   0.226   2.082   8.649  0.6812 -1.2299  0.9800
 1012TIP3    H227232   0.335   2.163   8.716  0.2852 -0.5520  0.8077
 1013TIP3   OH227233   6.291   1.052   6.747  0.0522 -0.0655 -0.7148
 1013TIP3    H127234   6.252   1.091   6.669  0.6014 -0.2137 -1.0736
 1013TIP3    H227235   6.242   0.971   6.761 -0.4725  0.2824 -0.5239
 1014TIP3   OH227236   1.593   1.734   6.912  0.6380  0.1428  0.0748
 1014TIP3    H127237   1.623   1.743   6.822  1.0870 -1.7888 -0.0078
 1014TIP3    H227238   1.499   1.717   6.905  0.5523  0.6127  0.0260
 1015TIP3   OH227239   0.080   0.807   7.913  0.4700 -0.1821 -0.0190
 1015TIP3    H127240   0.081   0.770   8.001 -1.9534  1.2648  0.7286
 1015TIP3    H227241   0.039   0.739   7.859 -0.2965 -0.1657  0.5192
 1016TIP3   OH227242   3.117   2.951   7.843 -0.2545 -0.6897  0.2249
 1016TIP3    H127243   3.143   2.916   7.928 -0.0635 -0.9603  0.0580
 1016TIP3    H227244   3.095   3.042   7.860 -0.1840 -0.7338  0.5587
 1017TIP3   OH227245   5.944   7.415   9.451  0.0067  0.3706 -0.2084
 1017TIP3    H127246   5.884   7.340   9.449  1.1720 -0.5967 -0.0989
 1017TIP3    H227247   5.903   7.480   9.393 -1.1268 -0.2602 -0.1426
 1018TIP3   OH227248   0.111   7.195   9.240  0.2978 -0.3813  0.7952
 1018TIP3    H127249   0.108   7.105   9.208 -0.0690 -0.3417  0.7152
 1018TIP3    H227250   0.106   7.186   9.335  0.6621 -0.4615  0.8094
 1019TIP3   OH227251   3.232   7.024   8.256 -0.0211 -0.5583 -0.1861
 1019TIP3    H127252   3.198   7.079   8.185  1.5558  0.8097  0.0568
 1019TIP3    H227253   3.277   6.952   8.211  0.7365  0.1523 -0.5859
 1020TIP3   OH227254   5.949   1.638   8.332 -0.6462 -0.1386 -0.3261
 1020TIP3    H127255   5.888   1.708   8.310 -0.1519  0.4300  0.0754
 1020TIP3    H227256   6.029   1.684   8.357 -1.0260 -0.7287  2.2507
 1021TIP3   OH227257   4.468   1.445   9.115 -0.6467  0.1636 -0.2893
 1021TIP3    H127258   4.448   1.352   9.107 -1.5822  0.4037 -1.0543
 1021TIP3    H227259   4.549   1.449   9.165 -2.0528 -0.9315  2.2152
 1022TIP3   OH227260   1.377   5.212   7.955 -0.0410  0.1645  0.5131
 1022TIP3    H127261   1.384   5.138   7.895  0.5264 -0.4478  1.3312
 1022TIP3    H227262   1.346   5.175   8.037  0.1324  0.8515  0.8994
 1023TIP3   OH227263   4.330   2.153   8.206 -0.4818  0.1433 -0.1962
 1023TIP3    H127264   4.262   2.145   8.141  0.1514 -0.4763 -0.8015
 1023TIP3    H227265   4.368   2.240   8.192 -1.8897  0.9916  0.9212
 1024TIP3   OH227266   3.115   0.209   6.855 -0.5372  0.6335  0.7037
 1024TIP3    H127267   3.072   0.126   6.875  1.3448 -0.6816 -0.4057
 1024TIP3    H227268   3.208   0.187   6.849 -0.0172  2.7751  0.0667
 1025TIP3   OH227269   7.321   6.093   8.582 -0.0082  0.3713 -0.3747
 1025TIP3    H127270   7.308   6.000   8.601  1.8637  0.4889  1.8561
 1025TIP3    H227271   7.258   6.138   8.639  1.7178  0.5386  1.4900
 1026TIP3   OH227272   5.267   5.876   8.184 -0.5629  0.6481 -0.0326
 1026TIP3    H127273   5.286   5.807   8.121 -0.6650  1.1131 -0.5818
 1026TIP3    H227274   5.332   5.944   8.165  0.2638  0.2597  1.2280
 1027TIP3   OH227275   5.359   4.319   7.478 -1.0987 -0.3933 -0.4538
 1027TIP3    H127276   5.325   4.398   7.437  0.3911 -0.1175 -1.2288
 1027TIP3    H227277   5.434   4.294   7.424  2.3072  1.1396  3.0617
 1028TIP3   OH227278   4.593   1.600   8.691 -0.4138  0.6576 -0.4626
 1028TIP3    H127279   4.605   1.511   8.723  0.3077  0.7448 -0.4757
 1028TIP3    H227280   4.682   1.632   8.674 -0.5287  1.9426  1.0671
 1029TIP3   OH227281   6.300   3.267   8.324 -0.8329 -0.6235  0.1446
 1029TIP3    H127282   6.325   3.340   8.269 -1.2707  0.2519  1.0769
 1029TIP3    H227283   6.380   3.246   8.374 -1.2136  0.5048  1.2751
 1030TIP3   OH227284   7.032   5.741   8.225  0.1644  0.0130 -0.0963
 1030TIP3    H127285   6.991   5.723   8.309  2.2548 -0.1616  0.9471
 1030TIP3    H227286   7.083   5.820   8.239 -1.6287  1.6360 -2.0481
 1031TIP3   OH227287   1.692   2.908   6.731  0.1882 -0.1081 -0.0242
 1031TIP3    H127288   1.722   2.874   6.646 -0.0610 -0.3045 -0.0335
 1031TIP3    H227289   1.746   2.862   6.795  1.9352  1.6126 -0.1428
 1032TIP3   OH227290   3.756   3.508   7.098 -0.0312 -0.4549 -0.3550
 1032TIP3    H127291   3.720   3.539   7.014 -0.3403  0.4254  0.0950
 1032TIP3    H227292   3.802   3.584   7.134 -0.3907 -0.6600  0.5468
 1033TIP3   OH227293   3.663   3.407   8.257  0.1408  1.1196  0.4747
 1033TIP3    H127294   3.639   3.447   8.174 -2.3573  0.4727  0.8209
 1033TIP3    H227295   3.713   3.329   8.232 -1.7564  0.1503 -0.5496
 1034TIP3   OH227296   3.620   4.244   9.205 -0.9016 -0.1639 -0.4875
 1034TIP3    H127297   3.600   4.155   9.234 -0.4545 -0.3094 -0.6190
 1034TIP3    H227298   3.654   4.233   9.116 -0.4985  0.0987 -0.3711
 1035TIP3   OH227299   4.033   5.598   7.960  0.3554  0.0114 -0.1724
 1035TIP3    H127300   4.078   5.682   7.947  1.4328 -0.3201  1.1702
 1035TIP3    H227301   3.956   5.620   8.013 -0.8907  0.5151 -2.0985
 1036TIP3   OH227302   5.777   1.609   7.624  0.3929 -0.9025  0.0517
 1036TIP3    H127303   5.790   1.572   7.711  0.1257  0.8205  0.8581
 1036TIP3    H227304   5.723   1.544   7.578 -0.1146 -1.4821  1.4182
 1037TIP3   OH227305   4.516   4.157   6.666  0.0606 -0.7147  0.4880
 1037TIP3    H127306   4.544   4.163   6.575  0.0025 -0.0869  0.5046
 1037TIP3    H227307   4.596   4.140   6.715  0.1302 -0.8014  0.3441
 1038TIP3   OH227308   5.921   7.230   7.128 -0.6157 -0.0653  0.0441
 1038TIP3    H127309   5.919   7.146   7.173 -0.9445  0.9911  2.1153
 1038TIP3    H227310   5.928   7.208   7.035 -0.9836 -2.3554  0.5193
 1039TIP3   OH227311   6.293   2.633   8.824  0.4598 -0.4690 -0.3747
 1039TIP3    H127312   6.277   2.560   8.884  0.9652 -0.7001 -0.5157
 1039TIP3    H227313   6.366   2.604   8.770  1.5648  0.6654  0.4608
 1040TIP3   OH227314   7.597   2.411   8.105  0.2808 -0.0054 -0.6847
 1040TIP3    H127315   7.677   2.365   8.129  1.3783  1.6286 -1.0684
 1040TIP3    H227316   7.625   2.501   8.087 -1.6959  0.7023 -0.4878
 1041TIP3   OH227317   2.227   5.213   9.167 -0.1061  0.0562 -0.0450
 1041TIP3    H127318   2.305   5.180   9.212  1.3466  1.6212 -1.2825
 1041TIP3    H227319   2.153   5.173   9.214  1.4255 -1.8798  0.8546
 1042TIP3   OH227320   6.094   7.045   7.553 -0.1338 -0.6036 -0.0053
 1042TIP3    H127321   6.097   6.981   7.483 -0.5193  0.3813 -0.9501
 1042TIP3    H227322   6.094   7.130   7.508  1.2532  0.1008  1.2227
 1043TIP3   OH227323   0.825   5.272   8.539 -0.5215 -0.9100  0.5995
 1043TIP3    H127324   0.755   5.231   8.589 -0.5610 -2.7865 -0.8723
 1043TIP3    H227325   0.781   5.312   8.464 -0.1426 -1.2613  0.1796
 1044TIP3   OH227326   7.135   4.378   7.387 -0.1603 -0.2413 -0.4808
 1044TIP3    H127327   7.174   4.407   7.469 -0.5584  0.6096 -0.5823
 1044TIP3    H227328   7.112   4.459   7.341  0.3422 -0.6905 -1.5724
 1045TIP3   OH227329   5.702   2.679   9.292  0.7866  0.3929 -0.1310
 1045TIP3    H127330   5.618   2.703   9.331  0.7304  1.6732 -0.9825
 1045TIP3    H227331   5.748   2.631   9.361 -0.2407  0.5556  0.6841
 1046TIP3   OH227332   4.463   0.603   8.075 -0.6206  0.0176 -0.1469
 1046TIP3    H127333   4.488   0.630   7.986  0.7971 -0.2373  0.1446
 1046TIP3    H227334   4.547   0.593   8.121 -1.3518  2.1135  1.8235
 1047TIP3   OH227335   1.889   0.665   6.686 -0.1180 -0.0598  0.4634
 1047TIP3    H127336   1.969   0.695   6.729 -0.2496 -0.4436  0.9943
 1047TIP3    H227337   1.876   0.726   6.614 -1.2773  2.2187  2.4321
 1048TIP3   OH227338   0.834   2.385   8.261  0.2548  0.2614 -0.0867
 1048TIP3    H127339   0.875   2.365   8.177  1.0898  0.4026  0.2793
 1048TIP3    H227340   0.769   2.316   8.273 -0.3650  0.6355 -1.1680
 1049TIP3   OH227341   3.120   6.524   7.787 -0.3149 -0.6618  0.2635
 1049TIP3    H127342   3.209   6.529   7.822  0.3746 -1.5482 -1.2610
 1049TIP3    H227343   3.071   6.477   7.855 -0.0912  1.3102  1.8900
 1050TIP3   OH227344   7.030   2.619   7.841  0.2922 -0.3156 -0.1084
 1050TIP3    H127345   7.103   2.585   7.892  0.8657 -0.4958 -1.0142
 1050TIP3    H227346   6.981   2.542   7.815 -1.3663 -0.0833  2.1037
 1051TIP3   OH227347   3.558   6.231   8.174 -0.6521 -0.2437 -0.1246
 1051TIP3    H127348   3.653   6.239   8.185 -0.8184  1.2429  0.3820
 1051TIP3    H227349   3.525   6.320   8.178 -2.0955 -0.7396 -0.2514
 1052TIP3   OH227350   3.628   0.460   7.989 -0.3752 -0.0200 -0.1115
 1052TIP3    H127351   3.600   0.544   7.952  0.2991 -0.0239 -0.6478
 1052TIP3    H227352   3.619   0.398   7.916  0.9979 -0.0233 -0.2907
 1053TIP3   OH227353   5.965   6.149   8.024  0.4625 -0.3201  0.6877
 1053TIP3    H127354   5.979   6.127   7.932  0.2113  2.3767 -0.0671
 1053TIP3    H227355   5.943   6.065   8.065 -0.2863 -1.4649 -1.8504
 1054TIP3   OH227356   2.074   4.716   7.616 -0.7856  0.1182 -0.0110
 1054TIP3    H127357   2.164   4.735   7.590 -1.4074  0.9851 -1.6780
 1054TIP3    H227358   2.079   4.629   7.656  0.8813  0.4375  0.5624
 1055TIP3   OH227359   5.863   2.051   9.428  0.1656 -0.0965  0.3817
 1055TIP3    H127360   5.867   2.016   9.339  0.2854  0.6205  0.0891
 1055TIP3    H227361   5.901   2.139   9.420 -1.1600  0.5477  0.8513
 1056TIP3   OH227362   3.703   6.643   7.854 -0.5763  0.5860 -0.0145
 1056TIP3    H127363   3.691   6.569   7.914 -1.6249  1.4929  0.9398
 1056TIP3    H227364   3.783   6.686   7.884  1.6841 -1.7058 -2.3177
 1057TIP3   OH227365   5.611   6.972   7.087 -0.4268 -0.0687  0.3862
 1057TIP3    H127366   5.584   6.880   7.076 -0.7537  0.1108 -0.3912
 1057TIP3    H227367   5.672   6.988   7.015  0.4807  0.0228  1.1494
 1058TIP3   OH227368   0.762   3.904   9.075 -0.3504  0.1058 -0.1429
 1058TIP3    H127369   0.819   3.935   9.146 -1.0692 -1.3385  1.1298
 1058TIP3    H227370   0.818   3.904   8.997  0.5963  1.2780  0.5068
 1059TIP3   OH227371   5.669   5.707   7.214 -0.1362  0.1813 -0.0841
 1059TIP3    H127372   5.729   5.778   7.236 -1.3452  1.2966 -0.3001
 1059TIP3    H227373   5.705   5.630   7.260  1.9850  0.5671 -0.9901
 1060TIP3   OH227374   5.252   4.478   8.570 -0.4794 -0.0143 -0.0912
 1060TIP3    H127375   5.306   4.437   8.502 -0.5525  2.7345 -1.9390
 1060TIP3    H227376   5.163   4.447   8.551 -0.2469 -0.7371 -0.0455
 1061TIP3   OH227377   6.998   6.865   8.432  0.0083 -0.3014 -0.1029
 1061TIP3    H127378   6.916   6.815   8.431 -0.2463  0.1119 -0.9802
 1061TIP3    H227379   7.049   6.826   8.503 -0.8583 -0.7136  0.3116
 1062TIP3   OH227380   7.399   0.332   8.877 -0.0024  0.1321  0.4241
 1062TIP3    H127381   7.462   0.262   8.862  1.8785  1.4621  1.7240
 1062TIP3    H227382   7.317   0.286   8.899  0.8703 -1.6330  0.1457
 1063TIP3   OH227383   7.165   4.678   6.841  0.6895 -0.1577 -0.4284
 1063TIP3    H127384   7.235   4.652   6.781  1.4470  0.5493  0.1091
 1063TIP3    H227385   7.199   4.757   6.883  0.3300 -0.8182  1.1659
 1064TIP3   OH227386   1.805   5.355   8.856  0.3506  1.0450 -0.0691
 1064TIP3    H127387   1.806   5.337   8.950 -1.0892 -4.0003 -0.7319
 1064TIP3    H227388   1.712   5.359   8.833  0.6689  1.1656 -1.4201
 1065TIP3   OH227389   7.017   5.671   8.639 -0.3895 -0.5096  0.2426
 1065TIP3    H127390   7.019   5.576   8.625 -1.0228 -0.3423 -1.2246
 1065TIP3    H227391   7.107   5.694   8.660  0.5195 -1.0592 -2.5811
 1066TIP3   OH227392   6.369   6.084   7.632 -0.5241  0.1451 -0.3617
 1066TIP3    H127393   6.304   6.021   7.599 -0.3113  0.2475 -1.0069
 1066TIP3    H227394   6.450   6.033   7.638  0.1527  0.7725 -2.8229
 1067TIP3   OH227395   7.649   6.353   9.327  0.1193  0.0064 -0.0729
 1067TIP3    H127396   7.583   6.370   9.394 -0.0687 -0.2590 -0.1911
 1067TIP3    H227397   7.655   6.434   9.277 -1.5453 -0.5908 -1.3150
 1068TIP3   OH227398   0.228   4.064   8.091 -0.6183 -0.2101 -0.0857
 1068TIP3    H127399   0.203   4.096   8.004 -0.2231  2.0931  0.5844
 1068TIP3    H227400   0.153   4.086   8.147 -0.6209 -1.1381  0.2910
 1069TIP3   OH227401   1.129   1.336   7.577 -0.2405  0.9358  0.6471
 1069TIP3    H127402   1.195   1.308   7.514  0.1096 -1.1173  1.8397
 1069TIP3    H227403   1.071   1.394   7.527  0.2096 -0.3307 -1.4581
 1070TIP3   OH227404   5.613   3.716   6.991 -0.1300 -0.2210  0.2917
 1070TIP3    H127405   5.597   3.722   6.897  1.3156 -1.8083 -0.1162
 1070TIP3    H227406   5.680   3.648   6.999 -0.7871 -0.6837  2.5358
 1071TIP3   OH227407   4.857   3.547   7.662  0.1360  0.1970  0.0122
 1071TIP3    H127408   4.835   3.484   7.594  0.8910 -0.3379  0.2539
 1071TIP3    H227409   4.803   3.624   7.642 -2.3835 -1.2215  0.9133
 1072TIP3   OH227410   1.362   3.814   9.440  0.2747  0.0685  0.0999
 1072TIP3    H127411   1.295   3.759   9.398  0.4446 -0.6437  0.7391
 1072TIP3    H227412   1.435   3.755   9.456 -0.1991 -0.0211  2.4181
 1073TIP3   OH227413   1.497   0.864   8.463  0.4082  0.3583  0.1685
 1073TIP3    H127414   1.561   0.895   8.527 -0.3697  0.1989  1.0385
 1073TIP3    H227415   1.430   0.932   8.462 -0.1715 -0.2024  0.3966
 1074TIP3   OH227416   3.070   5.567   8.764  0.2459 -0.0681  0.4056
 1074TIP3    H127417   3.034   5.556   8.676  0.1808 -0.5139  0.4846
 1074TIP3    H227418   3.013   5.632   8.805 -0.4058 -0.6889  0.4937
 1075TIP3   OH227419   4.311   2.606   7.631 -0.1762  1.0144  0.2669
 1075TIP3    H127420   4.384   2.600   7.570  0.0293 -1.6092  0.6575
 1075TIP3    H227421   4.234   2.583   7.579 -0.1882  0.1665  0.6383
 1076TIP3   OH227422   5.100   0.088   8.864  0.0977 -0.3954  0.5620
 1076TIP3    H127423   5.037   0.050   8.803  1.0287 -0.1159 -0.6203
 1076TIP3    H227424   5.074   0.055   8.950 -2.4340  0.7374  0.3098
 1077TIP3   OH227425   6.570   0.927   8.453  0.0043  0.2031 -0.1857
 1077TIP3    H127426   6.638   0.993   8.464  0.2113 -0.0644  0.1418
 1077TIP3    H227427   6.574   0.904   8.360  1.6011 -1.1354  0.1660
 1078TIP3   OH227428   6.709   1.234   7.051 -0.8966 -0.4577 -0.5210
 1078TIP3    H127429   6.757   1.152   7.038 -1.4372 -1.0384  0.9213
 1078TIP3    H227430   6.621   1.216   7.016 -1.0218 -0.5141 -0.1841
 1079TIP3   OH227431   2.607   3.974   7.624  0.5025  0.2453 -0.2206
 1079TIP3    H127432   2.646   3.918   7.556  0.4229  0.9084 -0.8323
 1079TIP3    H227433   2.661   3.959   7.701  0.1024 -1.1489 -0.1789
 1080TIP3   OH227434   2.121   6.665   9.242 -0.3472 -0.0421 -0.8769
 1080TIP3    H127435   2.170   6.747   9.245  0.5774 -0.5665 -0.9729
 1080TIP3    H227436   2.189   6.597   9.252 -1.1583 -0.7709 -0.0932
 1081TIP3   OH227437   7.049   0.451   8.011 -0.3945  0.2858 -0.0902
 1081TIP3    H127438   7.095   0.370   8.029  0.7344  0.4585 -1.8997
 1081TIP3    H227439   7.095   0.517   8.063 -0.2286  0.0312  0.0868
 1082TIP3   OH227440   0.930   2.277   9.054  0.0333 -0.5912  0.1100
 1082TIP3    H127441   0.995   2.259   8.986  1.0976 -0.3649  1.0358
 1082TIP3    H227442   0.860   2.215   9.037  0.1049 -0.3015 -1.4067
 1083TIP3   OH227443   6.696   6.495   7.503  0.1983  0.0935  0.6692
 1083TIP3    H127444   6.748   6.436   7.557  0.5857  1.0821  1.3921
 1083TIP3    H227445   6.698   6.579   7.549  0.1186  0.8272 -0.6129
 1084TIP3   OH227446   0.631   2.803   8.474 -0.3787 -0.4011  0.3244
 1084TIP3    H127447   0.544   2.780   8.509 -0.7634  0.2910 -0.1444
 1084TIP3    H227448   0.633   2.762   8.388 -0.7280  0.5497 -0.1587
 1085TIP3   OH227449   2.555   4.593   7.630 -0.1415 -0.0856 -0.0877
 1085TIP3    H127450   2.588   4.504   7.645 -1.0820 -0.4385  0.0058
 1085TIP3    H227451   2.625   4.638   7.583 -0.9323 -1.9089 -3.3329
 1086TIP3   OH227452   5.249   3.744   7.197  0.5068  0.4483  0.1182
 1086TIP3    H127453   5.210   3.750   7.109  0.8053 -0.0051 -0.0437
 1086TIP3    H227454   5.175   3.723   7.254  0.7063 -1.9651 -0.3951
 1087TIP3   OH227455   0.187   2.036   7.958  0.3118 -0.0014 -0.3590
 1087TIP3    H127456   0.173   2.021   8.052 -1.9109 -0.5853 -0.7229
 1087TIP3    H227457   0.210   1.951   7.923  0.1083 -0.0041 -0.4906
 1088TIP3   OH227458   5.259   6.033   9.550  0.1753 -0.1154  0.1062
 1088TIP3    H127459   5.220   6.081   9.477  0.7291 -1.3129 -1.0122
 1088TIP3    H227460   5.207   6.059   9.626 -2.2831 -1.0171 -1.1712
 1089TIP3   OH227461   2.429   4.591   6.414 -0.0901 -0.3407  0.0852
 1089TIP3    H127462   2.403   4.579   6.505 -0.7348 -0.4859 -0.1058
 1089TIP3    H227463   2.418   4.504   6.375 -1.6732  0.1113 -0.5624
 1090TIP3   OH227464   5.511   2.062   7.040 -0.2871  0.0370  0.3297
 1090TIP3    H127465   5.510   2.130   6.972 -1.1911 -0.5335 -0.2473
 1090TIP3    H227466   5.431   2.013   7.026  0.4087 -1.2376  0.6510
 1091TIP3   OH227467   5.774   1.241   7.933  0.1539  0.2986  0.0039
 1091TIP3    H127468   5.831   1.196   7.996 -0.5448 -0.1891  0.2946
 1091TIP3    H227469   5.685   1.222   7.963 -0.1797  2.4946  0.5873
 1092TIP3   OH227470   4.782   5.458   8.866  0.3690  0.4539  0.5222
 1092TIP3    H127471   4.770   5.542   8.909  0.8634  0.8092 -0.0210
 1092TIP3    H227472   4.863   5.423   8.902 -0.4513 -0.3815  1.6661
 1093TIP3   OH227473   7.028   4.609   7.233 -0.2524 -0.1015 -0.2492
 1093TIP3    H127474   7.073   4.689   7.260  1.7317 -0.6998 -1.5394
 1093TIP3    H227475   6.980   4.634   7.154 -1.4762  0.2959  0.5801
 1094TIP3   OH227476   1.876   0.821   8.227 -0.5865 -0.2922  0.1249
 1094TIP3    H127477   1.854   0.742   8.179 -0.6090 -0.4423  0.3845
 1094TIP3    H227478   1.942   0.865   8.172 -3.1911  1.3984 -1.9204
 1095TIP3   OH227479   3.617   0.330   7.518  0.5985 -0.1806  0.6084
 1095TIP3    H127480   3.646   0.399   7.577  0.0103 -0.1026  0.8148
 1095TIP3    H227481   3.593   0.376   7.438  0.4297 -0.1724  0.6636
 1096TIP3   OH227482   4.946   0.627   9.280 -0.3722 -0.1382 -0.2262
 1096TIP3    H127483   4.872   0.687   9.288 -1.2084 -1.1272 -0.2696
 1096TIP3    H227484   4.907   0.547   9.244  0.4075 -1.2555  1.3423
 1097TIP3   OH227485   2.858   4.257   6.564  0.0698  0.1804  0.2308
 1097TIP3    H127486   2.823   4.177   6.524  0.8678  0.7085 -1.6184
 1097TIP3    H227487   2.946   4.233   6.593  1.1656  0.8625 -2.2643
 1098TIP3   OH227488   1.269   5.871   8.850  0.1138 -0.0548 -0.1240
 1098TIP3    H127489   1.310   5.842   8.768  0.6424 -1.2407  0.5439
 1098TIP3    H227490   1.175   5.855   8.837 -0.0870  1.7150 -1.2634
 1099TIP3   OH227491   6.339   6.526   7.691  0.2801 -0.3242  0.2414
 1099TIP3    H127492   6.273   6.541   7.759  0.5832  0.5451  0.3624
 1099TIP3    H227493   6.304   6.570   7.614  0.2516 -0.7350  0.0175
 1100TIP3   OH227494   6.223   6.125   8.844 -0.5414  0.2221  0.9272
 1100TIP3    H127495   6.248   6.213   8.817  1.6888 -0.6089  0.0891
 1100TIP3    H227496   6.233   6.126   8.939 -0.4840  0.8487  0.9210
 1101TIP3   OH227497   6.942   0.354   9.270  0.4953 -0.4606  0.0207
 1101TIP3    H127498   7.020   0.396   9.234 -0.0407  0.0149 -0.6029
 1101TIP3    H227499   6.972   0.314   9.351  1.3293 -0.0474 -0.0737
 1102TIP3   OH227500   1.423   1.840   8.286 -0.1226 -0.3013 -0.0623
 1102TIP3    H127501   1.511   1.873   8.270 -0.0547  1.2144  2.7326
 1102TIP3    H227502   1.431   1.788   8.366 -1.3244 -2.4831 -1.2573
 1103TIP3   OH227503   6.332   6.969   9.356 -0.3173 -0.0490  0.3226
 1103TIP3    H127504   6.267   7.037   9.344  1.3486  1.8976  1.5925
 1103TIP3    H227505   6.282   6.889   9.370 -2.4021  1.3398  1.1639
 1104TIP3   OH227506   2.488   0.159   7.440 -0.0340  0.2624 -0.2320
 1104TIP3    H127507   2.433   0.184   7.365  1.1963  1.6337 -0.7116
 1104TIP3    H227508   2.478   0.231   7.502 -1.0419 -0.8594  0.9852
 1105TIP3   OH227509   5.613   0.768   8.204  0.3026  0.2063 -0.1306
 1105TIP3    H127510   5.574   0.840   8.253 -0.1884 -0.5689  0.6500
 1105TIP3    H227511   5.610   0.694   8.264 -0.7179 -0.8923 -1.4717
 1106TIP3   OH227512   3.493   2.119   8.529 -0.1672 -1.0814  0.1643
 1106TIP3    H127513   3.553   2.045   8.540  0.6408 -0.4424  0.1657
 1106TIP3    H227514   3.415   2.081   8.488  0.9012 -1.6444 -1.4479
 1107TIP3   OH227515   4.298   1.919   7.996 -0.2993  0.1932  0.2096
 1107TIP3    H127516   4.350   1.965   8.061  0.0693 -0.3817  0.3242
 1107TIP3    H227517   4.280   1.833   8.035 -0.0139 -0.1844 -0.4596
 1108TIP3   OH227518   5.020   1.922   8.344  0.3628  0.1995  0.1367
 1108TIP3    H127519   4.977   1.863   8.406 -0.2708 -0.6055 -1.0279
 1108TIP3    H227520   4.957   1.993   8.332  1.5134  1.6757  2.2560
 1109TIP3   OH227521   2.906   4.263   9.473 -0.5487  0.7567  0.0089
 1109TIP3    H127522   2.812   4.248   9.464 -0.3098 -0.3225 -0.8039
 1109TIP3    H227523   2.933   4.302   9.390 -0.2168  0.7315  0.1018
 1110TIP3   OH227524   4.870   3.676   8.913  0.2281  0.4320 -0.4408
 1110TIP3    H127525   4.849   3.589   8.880  0.3042  0.1135  0.3239
 1110TIP3    H227526   4.785   3.720   8.922  0.0397 -0.1189  0.6506
 1111TIP3   OH227527   0.610   4.403   8.908 -0.3830 -0.7045 -0.9330
 1111TIP3    H127528   0.590   4.471   8.973 -1.8152 -1.1257 -0.9041
 1111TIP3    H227529   0.595   4.321   8.955 -2.6777 -1.0207 -2.1208
 1112TIP3   OH227530   2.543   4.277   8.415  0.0594  0.6590 -0.6237
 1112TIP3    H127531   2.570   4.364   8.387 -2.2393  2.8035  2.9169
 1112TIP3    H227532   2.614   4.246   8.472  0.7265  0.3089 -1.6216
 1113TIP3   OH227533   5.577   3.888   8.273  0.2578 -0.0926 -0.1585
 1113TIP3    H127534   5.623   3.827   8.331  2.3889 -0.8169 -2.4223
 1113TIP3    H227535   5.646   3.928   8.220 -1.2680  2.9073 -0.1145
 1114TIP3   OH227536   3.325   6.819   8.085 -0.2524  0.3832 -0.1404
 1114TIP3    H127537   3.412   6.798   8.052 -0.2065 -1.6711  1.1257
 1114TIP3    H227538   3.275   6.844   8.008  0.7218 -1.0451 -1.2806
 1115TIP3   OH227539   1.564   7.020   8.419  0.3344 -0.0819 -0.1423
 1115TIP3    H127540   1.648   7.036   8.376  0.3999 -0.2374 -0.0729
 1115TIP3    H227541   1.499   7.062   8.363  0.1471 -2.2518 -1.6857
 1116TIP3   OH227542   3.080   5.507   7.189  0.0064  0.0605 -0.2518
 1116TIP3    H127543   2.986   5.501   7.210  0.2979  0.4756  1.2415
 1116TIP3    H227544   3.081   5.535   7.097 -1.3506  1.1983  0.0410
 1117TIP3   OH227545   7.181   1.216   8.644  0.3872  0.2000  0.5033
 1117TIP3    H127546   7.252   1.183   8.699  0.9877  0.3343 -0.1792
 1117TIP3    H227547   7.101   1.188   8.689  0.8749 -0.8823  0.7281
 1118TIP3   OH227548   3.990   3.419   7.728 -0.6767  0.4914  0.1637
 1118TIP3    H127549   4.078   3.455   7.735  0.3060 -1.7538  0.3385
 1118TIP3    H227550   3.937   3.490   7.693  1.2953  1.7718 -0.3592
 1119TIP3   OH227551   5.694   0.725   9.496  0.2997 -0.1883 -0.5291
 1119TIP3    H127552   5.711   0.788   9.566  0.4720  0.3713 -1.0672
 1119TIP3    H227553   5.600   0.709   9.501  0.1320  0.6590 -0.8348
 1120TIP3   OH227554   6.662   2.321   8.544 -0.1417 -0.3311 -0.3973
 1120TIP3    H127555   6.632   2.250   8.601 -0.7476  0.0178 -0.2675
 1120TIP3    H227556   6.699   2.277   8.468  2.6253 -0.8824  1.1490
 1121TIP3   OH227557   3.442   7.170   9.008  0.4912 -0.3247  0.6303
 1121TIP3    H127558   3.506   7.225   9.053  2.2877 -0.1615 -1.9272
 1121TIP3    H227559   3.444   7.200   8.917 -0.5374 -2.7472 -0.2775
 1122TIP3   OH227560   6.884   2.310   6.650  0.2325  0.0945 -0.5855
 1122TIP3    H127561   6.861   2.217   6.643 -1.1332  0.3099  0.4752
 1122TIP3    H227562   6.978   2.310   6.668  0.5395 -1.0049 -2.0465
 1123TIP3   OH227563   1.169   1.948   9.124  0.1117  0.5843 -0.2862
 1123TIP3    H127564   1.097   2.000   9.089 -0.7530 -0.7011 -0.4619
 1123TIP3    H227565   1.162   1.956   9.219  0.0440  0.8559 -0.3148
 1124TIP3   OH227566   7.077   3.445   7.926 -0.4247 -0.5403 -0.7037
 1124TIP3    H127567   7.167   3.453   7.958 -0.7854  3.1196 -0.1443
 1124TIP3    H227568   7.080   3.479   7.836 -1.2620 -0.2350 -0.6242
 1125TIP3   OH227569   1.887   2.245   7.416  0.0892 -1.0774 -0.1394
 1125TIP3    H127570   1.952   2.179   7.441 -0.2841 -0.8524  1.5541
 1125TIP3    H227571   1.936   2.307   7.361  1.1408 -1.2979  0.5113
 1126TIP3   OH227572   0.781   3.411   8.634  0.4849 -0.4797  0.1241
 1126TIP3    H127573   0.799   3.409   8.728 -0.7275 -0.1643  0.3804
 1126TIP3    H227574   0.735   3.329   8.617  1.3764 -0.8903 -0.3506
 1127TIP3   OH227575   1.048   1.061   6.656 -0.3324  0.0700  0.5892
 1127TIP3    H127576   1.080   1.043   6.568  3.1864 -2.9220  2.2256
 1127TIP3    H227577   0.974   1.002   6.668  0.3051 -0.8419  0.1636
 1128TIP3   OH227578   5.298   0.618   7.468  0.0810 -0.3656  0.4587
 1128TIP3    H127579   5.323   0.548   7.529 -0.3050  0.1165  1.1947
 1128TIP3    H227580   5.307   0.699   7.519 -2.4922 -0.1074  0.6716
 1129TIP3   OH227581   5.926   7.026   9.189  0.0717 -0.1793  0.1801
 1129TIP3    H127582   6.016   7.022   9.155  0.1515  2.3912 -0.1366
 1129TIP3    H227583   5.875   6.974   9.127  0.9806  0.4418 -1.1609
 1130TIP3   OH227584   7.659   1.213   8.307  0.3164 -0.1463  0.3694
 1130TIP3    H127585   7.673   1.251   8.394  1.1552  0.3058  0.0494
 1130TIP3    H227586   7.698   1.126   8.312 -0.2585 -0.3931  0.6485
 1131TIP3   OH227587   1.269   1.534   7.746  0.0832  0.6111 -0.2303
 1131TIP3    H127588   1.214   1.476   7.694  0.4730  0.0793 -0.0514
 1131TIP3    H227589   1.334   1.568   7.685  0.2802  0.3183 -0.1832
 1132TIP3   OH227590   6.127   4.266   8.920 -0.0534 -0.1862 -0.1807
 1132TIP3    H127591   6.082   4.315   8.851 -0.1759  1.8603  1.2735
 1132TIP3    H227592   6.199   4.222   8.874  0.7534  2.2627 -1.4462
 1133TIP3   OH227593   7.162   0.225   8.140  0.1055 -0.1323  0.1172
 1133TIP3    H127594   7.185   0.270   8.221 -0.6272  0.7869 -0.1645
 1133TIP3    H227595   7.246   0.200   8.102  0.4458 -0.8365  1.2893
 1134TIP3   OH227596   2.576   5.288   7.070 -0.3008 -0.3495 -0.2453
 1134TIP3    H127597   2.595   5.381   7.080 -0.0628 -0.5459  1.5535
 1134TIP3    H227598   2.652   5.253   7.024  0.7163 -0.0270  1.1331
 1135TIP3   OH227599   1.261   5.777   9.169  0.7253 -0.4187 -0.2872
 1135TIP3    H127600   1.191   5.764   9.234  1.1784 -0.1918  0.2600
 1135TIP3    H227601   1.264   5.872   9.157 -0.8398 -0.5480 -2.3247
 1136TIP3   OH227602   1.466   2.591   9.331 -0.1826  0.0745  0.1342
 1136TIP3    H127603   1.497   2.657   9.268  1.5829 -0.8178  0.0132
 1136TIP3    H227604   1.391   2.550   9.287 -1.4518  2.0684  0.2894
 1137TIP3   OH227605   1.759   3.476   8.849  0.3001 -0.3189  0.7412
 1137TIP3    H127606   1.742   3.519   8.934 -0.6339 -0.3584  0.5855
 1137TIP3    H227607   1.675   3.479   8.804  0.1813 -2.3821  0.7444
 1138TIP3   OH227608   2.467   7.521   7.622 -1.1691 -0.2761  0.0538
 1138TIP3    H127609   2.398   7.587   7.631 -0.8303  0.0531  0.2619
 1138TIP3    H227610   2.549   7.572   7.624 -0.9293 -0.6438 -0.3746
 1139TIP3   OH227611   2.247   4.800   8.082 -0.0771 -0.4265 -0.2824
 1139TIP3    H127612   2.286   4.887   8.088 -1.5265  0.2918 -0.8768
 1139TIP3    H227613   2.288   4.751   8.154  2.3605  0.0538 -1.2589
 1140TIP3   OH227614   7.281   6.909   8.758  0.1034  0.0198  0.3059
 1140TIP3    H127615   7.217   6.877   8.822 -0.0043 -1.2724 -0.4275
 1140TIP3    H227616   7.232   6.972   8.705  0.2619  1.3000  1.6297
 1141TIP3   OH227617   1.629   1.777   9.140 -0.0119  0.4227 -0.0379
 1141TIP3    H127618   1.658   1.743   9.056 -0.9284 -0.8247  0.1297
 1141TIP3    H227619   1.710   1.801   9.186  0.5143  0.6468 -1.0605
 1142TIP3   OH227620   1.408   0.951   6.784 -0.7693 -0.0472  0.1926
 1142TIP3    H127621   1.348   0.888   6.745  0.6512 -0.9040 -0.7226
 1142TIP3    H227622   1.478   0.897   6.821  0.9405  0.9628 -1.3871
 1143TIP3   OH227623   6.355   6.107   8.453  0.2903 -0.4844  0.5149
 1143TIP3    H127624   6.291   6.178   8.454  1.0203  0.1930  0.3451
 1143TIP3    H227625   6.384   6.100   8.544  0.8493  0.0419  0.3898
 1144TIP3   OH227626   6.859   3.354   7.497  0.2007  0.6863  0.1799
 1144TIP3    H127627   6.852   3.261   7.518 -1.7445  0.6825 -0.2638
 1144TIP3    H227628   6.926   3.358   7.428  0.4215 -0.3603  0.3227
 1145TIP3   OH227629   4.960   6.884   9.049  0.2161  0.0386  0.4833
 1145TIP3    H127630   4.968   6.913   9.140  1.4530 -1.0865  0.7715
 1145TIP3    H227631   5.035   6.826   9.036  0.9508  1.3875 -1.7437
 1146TIP3   OH227632   0.465   4.583   8.706  0.3156  0.2796 -0.1335
 1146TIP3    H127633   0.450   4.545   8.619 -2.0617  0.0364  0.2978
 1146TIP3    H227634   0.506   4.513   8.756  1.5831  0.3787 -0.9857
 1147TIP3   OH227635   6.117   6.336   8.252 -0.4823  0.0228  0.3186
 1147TIP3    H127636   6.210   6.314   8.263 -0.6901 -0.6904  0.6739
 1147TIP3    H227637   6.086   6.276   8.184 -1.0950 -0.9339  1.4203
 1148TIP3   OH227638   6.630   2.283   8.071  0.4586  0.1892 -0.4356
 1148TIP3    H127639   6.608   2.255   7.982 -0.8415  2.1696 -0.7909
 1148TIP3    H227640   6.546   2.281   8.118  0.6491  1.6251  0.0066
 1149TIP3   OH227641   1.492   3.887   9.067 -0.0179  0.1495 -0.4369
 1149TIP3    H127642   1.521   3.979   9.068 -0.5103  0.3074  0.7854
 1149TIP3    H227643   1.571   3.837   9.087 -0.0444  0.4120  0.3507
 1150TIP3   OH227644   5.798   5.414   9.709  0.5589 -0.0214  0.2141
 1150TIP3    H127645   5.861   5.441   9.642 -0.6694 -2.1836 -1.9790
 1150TIP3    H227646   5.851   5.396   9.787  2.5275 -0.6672 -1.1968
 1151TIP3   OH227647   4.475   0.560   9.417  0.1877 -0.1740  0.1691
 1151TIP3    H127648   4.394   0.599   9.449  0.1083  0.4106 -0.7182
 1151TIP3    H227649   4.523   0.535   9.497 -0.6105 -0.0170  0.7060
 1152TIP3   OH227650   0.525   3.659   8.626 -0.3691 -0.0839  0.0595
 1152TIP3    H127651   0.607   3.609   8.633 -0.6724 -0.6598 -0.4243
 1152TIP3    H227652   0.458   3.593   8.606 -0.8922  0.4306  0.0760
 1153TIP3   OH227653   4.768   4.395   8.613  0.0134  0.0444 -0.3461
 1153TIP3    H127654   4.715   4.462   8.656  0.4012 -0.9101  1.7143
 1153TIP3    H227655   4.736   4.313   8.649  3.2114 -0.5577  1.4892
 1154TIP3   OH227656   7.198   2.776   8.848  0.0724 -0.2666 -0.7384
 1154TIP3    H127657   7.254   2.849   8.824  0.1359 -0.3325 -0.7891
 1154TIP3    H227658   7.169   2.796   8.937  3.4881 -2.2513  0.9762
 1155TIP3   OH227659   6.795   3.696   8.593 -0.1851 -0.5566  0.0862
 1155TIP3    H127660   6.721   3.725   8.646 -0.1715  1.0339 -0.6966
 1155TIP3    H227661   6.756   3.672   8.509  0.1461  0.1386 -0.2772
 1156TIP3   OH227662   0.706   3.414   9.171  0.3665  0.0880 -0.5016
 1156TIP3    H127663   0.667   3.442   9.088 -0.0486 -0.2827 -0.4378
 1156TIP3    H227664   0.800   3.423   9.158  0.2676  2.3238 -0.1977
 1157TIP3   OH227665   7.336   5.525   7.945  0.4917 -0.0709 -0.5927
 1157TIP3    H127666   7.367   5.597   7.890  1.6557  1.6349  2.0557
 1157TIP3    H227667   7.415   5.475   7.965  0.5438  0.6045  1.1330
 1158TIP3   OH227668   4.390   2.431   8.436  0.3182  0.3226  0.0080
 1158TIP3    H127669   4.375   2.433   8.341 -1.8191 -0.1230  0.3073
 1158TIP3    H227670   4.438   2.512   8.453  0.2318  0.6964 -1.3686
 1159TIP3   OH227671   7.130   6.401   8.023  0.5935  0.2732  0.2768
 1159TIP3    H127672   7.072   6.333   8.057  1.9983 -1.2446 -0.2189
 1159TIP3    H227673   7.106   6.409   7.931  3.2737 -2.8862 -0.8993
 1160TIP3   OH227674   3.878   3.232   7.903  0.1919  0.0587  0.0286
 1160TIP3    H127675   3.925   3.286   7.840 -0.7931  0.6096 -0.2557
 1160TIP3    H227676   3.875   3.145   7.864  1.3467 -0.0910  0.2561
 1161TIP3   OH227677   5.502   0.381   7.244  0.3813 -0.3857 -0.0663
 1161TIP3    H127678   5.511   0.475   7.230  2.1223 -0.2624  1.4432
 1161TIP3    H227679   5.468   0.347   7.162  0.8166  1.4174 -1.0372
 1162TIP3   OH227680   0.885   0.825   8.446  0.2537  0.3128  0.1583
 1162TIP3    H127681   0.822   0.773   8.497  0.7271  0.5125  0.9773
 1162TIP3    H227682   0.967   0.818   8.496  0.6998  0.6373 -0.5125
 1163TIP3   OH227683   6.087   3.460   8.895  0.4197 -0.0561  0.5844
 1163TIP3    H127684   6.014   3.520   8.908 -0.6293 -1.7787  3.4390
 1163TIP3    H227685   6.138   3.466   8.975  1.2198 -1.7298  0.2462
 1164TIP3   OH227686   6.253   6.774   7.871  0.6644 -0.1122  0.0149
 1164TIP3    H127687   6.274   6.792   7.963 -0.9168  0.3916  0.3082
 1164TIP3    H227688   6.336   6.787   7.825  0.9949  1.9905  1.0593
 1165TIP3   OH227689   0.607   5.753   8.258 -0.7591  0.1211 -0.0036
 1165TIP3    H127690   0.695   5.734   8.290 -0.4177  0.4187 -0.7533
 1165TIP3    H227691   0.610   5.846   8.234 -1.1014 -0.0147 -0.5866
 1166TIP3   OH227692   3.124   6.262   8.505 -0.6246 -0.2826 -0.0786
 1166TIP3    H127693   3.209   6.219   8.514 -0.4080 -0.1923 -1.5270
 1166TIP3    H227694   3.099   6.285   8.595  1.8827  1.6287  0.2402
 1167TIP3   OH227695   2.243   4.514   8.424 -0.0368  0.1888 -0.1997
 1167TIP3    H127696   2.160   4.553   8.398 -0.1201 -0.3597 -0.7818
 1167TIP3    H227697   2.249   4.532   8.518  0.1029  1.8991 -0.4914
 1168TIP3   OH227698   1.273   7.331   9.462  0.2926 -0.1589 -0.4915
 1168TIP3    H127699   1.189   7.292   9.485  0.4100 -0.7946 -1.0960
 1168TIP3    H227700   1.255   7.425   9.454 -0.0735 -0.1254  0.6290
 1169TIP3   OH227701   3.501   6.817   7.843  0.1763  0.7997 -0.2058
 1169TIP3    H127702   3.524   6.894   7.791 -0.8497  0.7258 -0.7966
 1169TIP3    H227703   3.571   6.754   7.825 -0.9225  0.1890 -2.7774
 1170TIP3   OH227704   5.039   4.462   6.908  0.1858  0.1565 -0.6455
 1170TIP3    H127705   5.041   4.370   6.881 -2.1646 -0.9750  2.4162
 1170TIP3    H227706   4.985   4.505   6.841 -1.6291 -1.5105 -0.3693
 1171TIP3   OH227707   0.092   2.853   7.412  0.5955 -0.1387  0.3652
 1171TIP3    H127708   0.030   2.898   7.354  0.9182 -2.7662 -2.2145
 1171TIP3    H227709   0.053   2.767   7.427  1.8162 -0.4577  1.9264
 1172TIP3   OH227710   4.544   5.716   8.694  0.3590 -0.0790 -0.1469
 1172TIP3    H127711   4.471   5.688   8.638  0.8161  0.0978 -0.8433
 1172TIP3    H227712   4.621   5.676   8.655  0.6977  0.1100  0.3174
 1173TIP3   OH227713   4.320   3.262   7.613  0.6354 -0.3506  0.1299
 1173TIP3    H127714   4.363   3.190   7.659 -0.0936  0.6826  2.5731
 1173TIP3    H227715   4.229   3.233   7.603  0.2552  0.3042  1.4318
 1174TIP3   OH227716   5.593   3.230   8.406  0.4584 -0.1364 -0.1681
 1174TIP3    H127717   5.586   3.293   8.334  0.9163 -1.0915 -1.0710
 1174TIP3    H227718   5.503   3.215   8.434  0.4108  1.8291  0.8963
 1175TIP3   OH227719   1.450   4.697   7.088  0.2761 -0.2866 -0.0368
 1175TIP3    H127720   1.376   4.758   7.086  1.6680  1.5601  1.0715
 1175TIP3    H227721   1.472   4.683   6.996  0.0782  1.1394 -0.3256
 1176TIP3   OH227722   6.525   1.226   7.437  0.2648 -0.5118  0.3544
 1176TIP3    H127723   6.493   1.256   7.352 -0.1797 -0.8571  0.3981
 1176TIP3    H227724   6.484   1.285   7.500  0.9447  0.0291  0.3061
 1177TIP3   OH227725   3.772   2.054   7.585  0.4831 -0.5609  0.1455
 1177TIP3    H127726   3.842   2.067   7.650  0.5375  1.0714 -0.1983
 1177TIP3    H227727   3.813   2.075   7.501  0.7662 -3.8771 -0.6561
 1178TIP3   OH227728   2.904   1.632   6.495 -0.1554  0.2928 -0.3160
 1178TIP3    H127729   2.918   1.540   6.518 -1.5585  0.1127 -0.1023
 1178TIP3    H227730   2.983   1.656   6.447 -0.1541 -1.2948 -1.2005
 1179TIP3   OH227731   5.598   0.940   9.693  0.1675 -0.3107  0.0856
 1179TIP3    H127732   5.560   0.980   9.771 -0.2528 -0.5949  0.0320
 1179TIP3    H227733   5.692   0.939   9.710  0.3665  2.1077 -0.5784
 1180TIP3   OH227734   4.788   2.569   7.609 -0.0739 -0.2992  0.0912
 1180TIP3    H127735   4.809   2.539   7.521 -2.2460  0.4125 -0.7337
 1180TIP3    H227736   4.830   2.655   7.616  1.4699 -1.0570  0.3860
 1181TIP3   OH227737   3.308   6.415   7.137  0.0332  0.4195  0.1552
 1181TIP3    H127738   3.274   6.331   7.105  0.5145 -0.0686  0.8662
 1181TIP3    H227739   3.363   6.447   7.066 -0.2392  0.1861 -0.1681
 1182TIP3   OH227740   5.891   0.535   6.558  0.1375  0.0754 -0.4380
 1182TIP3    H127741   5.891   0.588   6.478 -0.0501 -0.7241 -0.9766
 1182TIP3    H227742   5.856   0.451   6.531 -0.1041 -0.1504  0.5331
 1183TIP3   OH227743   5.528   2.384   7.287 -0.8416  0.0508  0.0922
 1183TIP3    H127744   5.518   2.465   7.337 -3.5326 -0.0046 -0.1751
 1183TIP3    H227745   5.454   2.385   7.226  0.3267 -1.5814 -1.4596
 1184TIP3   OH227746   6.769   1.445   8.465  0.0700 -0.7263  0.0699
 1184TIP3    H127747   6.835   1.512   8.480 -2.2413  1.0788  3.6007
 1184TIP3    H227748   6.716   1.479   8.392  1.8154 -1.3276 -1.5613
 1185TIP3   OH227749   0.032   1.302   8.043  0.5431  0.2872 -0.3753
 1185TIP3    H127750   0.029   1.282   8.137 -1.7401  0.2367 -0.4082
 1185TIP3    H227751   0.002   1.222   8.001  0.7171  0.6034 -1.1101
 1186TIP3   OH227752   5.516   0.642   7.147  0.1292  0.4119 -0.3565
 1186TIP3    H127753   5.495   0.687   7.065  1.7566  1.6515 -0.1538
 1186TIP3    H227754   5.499   0.707   7.215 -2.2755 -0.9554  0.4711
 1187TIP3   OH227755   0.635   7.024   8.562 -0.0469 -0.3438  0.3904
 1187TIP3    H127756   0.602   7.074   8.636  1.7229  0.3690  0.7516
 1187TIP3    H227757   0.672   6.945   8.601  3.2372  1.1825  0.7068
 1188TIP3   OH227758   6.593   5.801   7.319  0.3053  0.3807 -0.0046
 1188TIP3    H127759   6.667   5.741   7.313 -0.6072 -0.6559 -2.7481
 1188TIP3    H227760   6.633   5.888   7.323  1.6355 -0.2659  2.0848
 1189TIP3   OH227761   2.029   6.844   7.755  0.6703  0.0615 -0.2245
 1189TIP3    H127762   2.070   6.758   7.748  2.3369  0.9237 -1.9016
 1189TIP3    H227763   1.937   6.829   7.733  0.6738 -1.4393  0.6616
 1190TIP3   OH227764   7.293   4.468   7.868  0.4784 -0.3213  0.1769
 1190TIP3    H127765   7.200   4.456   7.849  0.3455 -1.0880  1.2113
 1190TIP3    H227766   7.304   4.563   7.876  0.0061 -0.1521 -0.9538
 1191TIP3   OH227767   3.341   4.563   8.016  0.0984 -0.1478  0.2737
 1191TIP3    H127768   3.436   4.558   8.026 -0.0062  0.1306  1.5891
 1191TIP3    H227769   3.311   4.473   8.029  0.1006 -0.0401  1.1450
 1192TIP3   OH227770   3.246   6.425   6.756  0.1597 -0.0750  0.1951
 1192TIP3    H127771   3.183   6.380   6.812  1.3121 -0.6303  1.1028
 1192TIP3    H227772   3.323   6.437   6.812  0.6552  1.1082 -0.6966
 1193TIP3   OH227773   7.641   6.368   7.107 -0.0796 -0.3511  0.3414
 1193TIP3    H127774   7.617   6.450   7.063 -1.7171 -0.2553  1.3361
 1193TIP3    H227775   7.624   6.300   7.042 -0.3522 -0.0383  0.0789
 1194TIP3   OH227776   1.398   1.511   8.214 -0.3999  0.8338 -0.7589
 1194TIP3    H127777   1.419   1.605   8.221 -0.8690  1.1222 -2.6850
 1194TIP3    H227778   1.400   1.493   8.120  1.9458 -1.6596 -0.3572
 1195TIP3   OH227779   5.736   5.870   7.486  0.4065 -0.4444 -0.7670
 1195TIP3    H127780   5.700   5.927   7.554 -1.4646 -1.3782 -0.9001
 1195TIP3    H227781   5.761   5.930   7.415 -2.9296  0.2240 -1.5355
 1196TIP3   OH227782   6.045   2.106   8.285 -0.1789 -0.0571 -0.6153
 1196TIP3    H127783   6.077   2.068   8.203  1.8060  0.9702 -0.3798
 1196TIP3    H227784   6.018   2.194   8.262  2.5028  1.0612  0.1376
 1197TIP3   OH227785   7.218   0.811   7.441  0.0007  0.1638  0.2314
 1197TIP3    H127786   7.209   0.813   7.346 -2.0857  2.4233  0.3887
 1197TIP3    H227787   7.243   0.720   7.460 -0.2023 -0.5340 -2.3972
 1198TIP3   OH227788   4.735   4.027   6.440  0.4629 -0.0669  0.3619
 1198TIP3    H127789   4.777   4.075   6.510  0.1771  0.3736  0.2348
 1198TIP3    H227790   4.795   3.955   6.420 -0.0680 -1.0134  1.9739
 1199TIP3   OH227791   5.244   0.136   7.939 -0.1427 -0.4578 -0.0186
 1199TIP3    H127792   5.238   0.040   7.931 -4.1067 -0.2118 -3.6287
 1199TIP3    H227793   5.177   0.159   8.004  1.2557 -0.0533  1.3430
 1200TIP3   OH227794   0.870   4.828   7.517 -0.8985 -0.0940  0.2016
 1200TIP3    H127795   0.835   4.847   7.604 -1.2133 -1.0057  0.2831
 1200TIP3    H227796   0.907   4.740   7.524  2.0547  1.0513  0.3039
 1201TIP3   OH227797   2.104   2.063   7.917  0.3616 -0.6214  1.1171
 1201TIP3    H127798   2.125   2.057   7.824 -1.6886 -0.9579  0.6418
 1201TIP3    H227799   2.185   2.095   7.957  1.1305  0.0163 -0.8289
 1202TIP3   OH227800   3.026   4.254   7.988 -0.3309 -0.2171  0.6620
 1202TIP3    H127801   2.990   4.178   8.034 -0.9783 -0.1148  0.3418
 1202TIP3    H227802   2.995   4.245   7.898  0.3039 -0.0217  0.4166
 1203TIP3   OH227803   5.272   1.218   6.661  0.5503  0.1015 -0.4576
 1203TIP3    H127804   5.344   1.273   6.692  0.7622 -0.5039  0.1371
 1203TIP3    H227805   5.193   1.268   6.683  0.7045 -0.2048  0.8579
 1204TIP3   OH227806   3.266   5.567   8.062 -0.4156 -0.1211  0.3994
 1204TIP3    H127807   3.229   5.630   8.124 -0.8990  1.0919 -1.0835
 1204TIP3    H227808   3.339   5.527   8.110  1.5034  3.2810  0.6324
 1205TIP3   OH227809   3.554   0.666   8.556  0.1239  0.7818  0.3232
 1205TIP3    H127810   3.461   0.664   8.578 -0.2193  0.1361 -1.0515
 1205TIP3    H227811   3.589   0.739   8.607 -0.3610 -1.0547  3.5671
 1206TIP3   OH227812   2.895   4.031   8.061  0.6218  0.0119 -0.6158
 1206TIP3    H127813   2.827   4.097   8.046  0.5511  0.6076  1.9869
 1206TIP3    H227814   2.869   3.987   8.141  1.6127 -2.0442 -1.3559
 1207TIP3   OH227815   6.990   3.302   8.789 -0.3094  0.1645  0.2048
 1207TIP3    H127816   6.913   3.344   8.751  0.0196 -0.1301 -0.8242
 1207TIP3    H227817   6.963   3.212   8.805 -0.0262 -0.0908 -0.6851
 1208TIP3   OH227818   2.472   0.560   7.461  0.1417  0.1860  0.0472
 1208TIP3    H127819   2.437   0.509   7.534 -1.0795  1.5090  0.4230
 1208TIP3    H227820   2.510   0.638   7.502 -0.0624  0.6841 -0.6907
 1209TIP3   OH227821   5.290   0.838   9.048 -0.3159  0.6343  0.0937
 1209TIP3    H127822   5.207   0.806   9.012 -0.2285  0.7448 -0.2083
 1209TIP3    H227823   5.347   0.760   9.048 -0.2027  0.7109 -0.3489
 1210TIP3   OH227824   6.388   5.804   8.134  0.4924 -0.1165  0.6127
 1210TIP3    H127825   6.385   5.709   8.130 -0.7176 -0.0635 -0.1825
 1210TIP3    H227826   6.438   5.831   8.057  1.3364 -0.1096  1.1451
 1211TIP3   OH227827   5.619   4.832   8.054 -0.2229 -0.0226  0.0980
 1211TIP3    H127828   5.567   4.876   7.987  2.4554  1.8082 -0.9619
 1211TIP3    H227829   5.662   4.760   8.008  2.0517  1.5641 -0.4816
 1212TIP3   OH227830   5.051   2.421   9.165 -0.2461  0.2336 -0.0890
 1212TIP3    H127831   5.078   2.412   9.073 -1.7960 -0.9007 -0.4761
 1212TIP3    H227832   5.119   2.377   9.215 -0.4769 -1.0802 -0.8877
 1213TIP3   OH227833   0.741   2.392   9.736 -0.8616  0.6076 -0.6493
 1213TIP3    H127834   0.817   2.437   9.700 -0.0392  0.4816  0.8514
 1213TIP3    H227835   0.673   2.458   9.740 -1.0083  0.6231 -2.4007
 1214TIP3   OH227836   0.894   6.473   8.098 -1.0708 -0.2006  0.5990
 1214TIP3    H127837   0.939   6.471   8.182 -4.1576  2.0877  2.5189
 1214TIP3    H227838   0.929   6.549   8.053  0.2109 -1.1255 -0.0119
 1215TIP3   OH227839   2.736   2.194   9.762  0.2659  0.4254 -0.1768
 1215TIP3    H127840   2.708   2.104   9.751 -0.4874  0.6199  0.0841
 1215TIP3    H227841   2.718   2.214   9.854 -0.4173  1.1106 -0.4396
 1216TIP3   OH227842   6.536   4.029   7.190  0.1257  0.1281  0.0213
 1216TIP3    H127843   6.534   4.069   7.277 -0.1174  0.6997 -0.2407
 1216TIP3    H227844   6.615   4.064   7.149 -1.1295  2.0099 -0.9607
 1217TIP3   OH227845   7.501   2.487   9.192  0.2580  0.1050  0.2622
 1217TIP3    H127846   7.505   2.391   9.188  2.2809  0.1003  1.0401
 1217TIP3    H227847   7.416   2.506   9.232 -0.7286 -1.2807 -1.0741
 1218TIP3   OH227848   0.036   3.570   9.475  0.3896  0.0941  0.1493
 1218TIP3    H127849   0.112   3.544   9.528 -1.0820 -0.6420  2.0309
 1218TIP3    H227850  -0.014   3.490   9.463 -1.4704  1.0001  1.3479
 1219TIP3   OH227851   1.527   6.252   7.064  0.7706 -0.2610  0.1847
 1219TIP3    H127852   1.440   6.274   7.029 -0.0311  0.2768  2.3548
 1219TIP3    H227853   1.556   6.178   7.010 -0.0229  0.9388 -2.0306
 1220TIP3   OH227854   2.576   3.257   6.983  0.9901 -0.3534  0.4077
 1220TIP3    H127855   2.592   3.195   6.911 -0.8258  0.7408 -1.0381
 1220TIP3    H227856   2.607   3.341   6.950 -0.0857  0.2058  0.7603
 1221TIP3   OH227857   0.761   2.895   7.583  0.1698  0.4662 -0.0661
 1221TIP3    H127858   0.784   2.808   7.551 -1.7753 -0.6284  1.3118
 1221TIP3    H227859   0.814   2.907   7.662 -1.4513 -0.6663  1.2601
 1222TIP3   OH227860   1.192   3.958   9.634 -0.3335 -0.0257  0.2673
 1222TIP3    H127861   1.267   3.925   9.585 -1.3348 -0.6907 -0.8906
 1222TIP3    H227862   1.118   3.905   9.603 -1.2333  0.4237  1.5684
 1223TIP3   OH227863   7.408   6.834   6.885 -0.6629 -0.3810  0.2479
 1223TIP3    H127864   7.467   6.891   6.935  0.6286 -0.8018 -0.7362
 1223TIP3    H227865   7.365   6.893   6.823  2.3249 -0.6256 -2.3259
 1224TIP3   OH227866   5.670   0.040   8.002 -0.0314 -0.3337  0.5522
 1224TIP3    H127867   5.647   0.076   7.916  1.7245 -0.3404  0.0407
 1224TIP3    H227868   5.748   0.089   8.028 -0.4477 -0.4439  2.0917
 1225TIP3   OH227869   7.263   1.922   8.442  0.2494  0.8482 -0.4658
 1225TIP3    H127870   7.232   1.851   8.387 -1.1357 -0.8197  2.3124
 1225TIP3    H227871   7.217   1.912   8.525  1.9043  3.4754  0.9327
 1226TIP3   OH227872   1.819   0.098   6.880  0.3160  0.5736 -0.4726
 1226TIP3    H127873   1.904   0.054   6.879 -1.2410 -2.8045  0.6233
 1226TIP3    H227874   1.825   0.160   6.953  1.5115 -0.3700  0.2657
 1227TIP3   OH227875   7.528   6.231   8.475 -0.5347 -0.2117 -0.3079
 1227TIP3    H127876   7.460   6.182   8.521  1.6492 -2.1668  1.1034
 1227TIP3    H227877   7.554   6.299   8.537 -0.9426  0.3026 -0.6972
 1228TIP3   OH227878   0.287   2.078   6.913 -0.4431 -0.4950 -0.1933
 1228TIP3    H127879   0.271   2.172   6.904  0.6380 -0.0557  1.7252
 1228TIP3    H227880   0.345   2.057   6.840 -1.1357  0.2027 -0.9613
 1229TIP3   OH227881   4.656   7.049   7.999  0.1373 -0.1864 -0.0572
 1229TIP3    H127882   4.592   7.015   7.936  0.7394  0.9279 -1.2987
 1229TIP3    H227883   4.739   7.047   7.952  0.7308 -0.0230  0.9683
 1230TIP3   OH227884   6.338   2.897   7.472 -0.0199  0.1756  0.1556
 1230TIP3    H127885   6.414   2.914   7.528  0.4303  1.4170 -0.7507
 1230TIP3    H227886   6.276   2.851   7.527  1.5841 -1.3490  0.7960
 1231TIP3   OH227887   3.270   0.741   9.547 -0.2902  0.6497 -0.0950
 1231TIP3    H127888   3.344   0.764   9.491  0.0942 -0.1122  0.0756
 1231TIP3    H227889   3.270   0.808   9.615  1.8310 -0.6702  1.3424
 1232TIP3   OH227890   5.402   1.170   9.138 -0.3189  0.1011 -0.1098
 1232TIP3    H127891   5.391   1.098   9.200  0.4690  2.0149  2.3968
 1232TIP3    H227892   5.485   1.153   9.095 -0.1906 -0.5325  0.3766
 1233TIP3   OH227893   7.386   0.582   7.424 -0.3554 -0.6722  0.0800
 1233TIP3    H127894   7.476   0.596   7.455  0.3907 -2.2015 -1.1951
 1233TIP3    H227895   7.397   0.554   7.333 -2.0733 -1.7391  0.1556
 1234TIP3   OH227896   1.103   0.447   7.572  0.6402  0.0746 -0.5405
 1234TIP3    H127897   1.069   0.456   7.483  0.5906 -1.8981 -0.7669
 1234TIP3    H227898   1.188   0.492   7.570  0.0426  1.1988 -1.1986
 1235TIP3   OH227899   6.165   7.202   9.382  0.2087 -0.7592  0.2274
 1235TIP3    H127900   6.128   7.286   9.410 -0.0344 -1.1417  1.0757
 1235TIP3    H227901   6.100   7.137   9.408  0.4825 -1.2332 -0.2511
 1236TIP3   OH227902   2.945   0.486   9.184  0.1046  0.3341 -0.1967
 1236TIP3    H127903   2.934   0.393   9.165  0.5945  0.3033 -0.3211
 1236TIP3    H227904   3.038   0.503   9.171  0.5697  0.2244  2.4747
 1237TIP3   OH227905   4.775   6.525   8.160  0.1446 -0.2646  0.6591
 1237TIP3    H127906   4.793   6.485   8.244  1.1606 -2.6871 -0.6088
 1237TIP3    H227907   4.686   6.498   8.138 -0.0044  0.1040  0.7996
 1238TIP3   OH227908   3.413   3.337   8.098  0.0059  0.2097 -0.2831
 1238TIP3    H127909   3.344   3.304   8.156 -0.9142  0.7939 -1.0108
 1238TIP3    H227910   3.457   3.259   8.066 -0.2512 -0.1678  0.2616
 1239TIP3   OH227911   4.302   4.253   8.129 -0.0915  0.0646  0.3961
 1239TIP3    H127912   4.386   4.244   8.174 -0.0689  0.5046  0.4470
 1239TIP3    H227913   4.325   4.281   8.040 -0.1661 -0.2125  0.2885
 1240TIP3   OH227914   0.708   6.677   7.571  0.5823  0.8169 -0.0642
 1240TIP3    H127915   0.772   6.734   7.528  0.2182 -0.1144 -1.9462
 1240TIP3    H227916   0.678   6.618   7.502 -1.2121  0.2534  1.1195
 1241TIP3   OH227917   5.221   2.643   9.206 -0.3940  0.1538  0.4958
 1241TIP3    H127918   5.181   2.730   9.209  0.0672  0.3448  1.6223
 1241TIP3    H227919   5.148   2.582   9.213 -0.6067  0.4802  1.2324
 1242TIP3   OH227920   6.159   6.234   7.782  0.0553  0.1595  0.0538
 1242TIP3    H127921   6.198   6.212   7.866 -0.5983 -1.4102 -0.0314
 1242TIP3    H227922   6.209   6.184   7.717  1.7587  2.7203 -0.7807
 1243TIP3   OH227923   5.972   7.362   7.933  0.1020  0.2371  0.1995
 1243TIP3    H127924   5.978   7.324   8.021 -0.2610  0.3744  0.2874
 1243TIP3    H227925   5.979   7.456   7.947  1.1626  0.2080 -0.0334
 1244TIP3   OH227926   2.923   3.119   9.625 -0.0489 -0.4045  0.2961
 1244TIP3    H127927   2.958   3.031   9.640  0.2954 -0.3320 -0.0956
 1244TIP3    H227928   2.935   3.135   9.532 -0.2076  0.0195  0.3456
 1245TIP3   OH227929   5.771   3.064   7.734 -0.0706  0.5152  0.4962
 1245TIP3    H127930   5.767   3.151   7.693 -2.2119  0.0372 -0.4498
 1245TIP3    H227931   5.717   3.072   7.813 -0.7352 -0.0679  0.1135
 1246TIP3   OH227932   2.032   1.051   6.978  0.5022 -0.1105  0.1140
 1246TIP3    H127933   2.093   1.078   7.047 -0.6299  1.7317  0.4390
 1246TIP3    H227934   2.055   1.104   6.902 -0.4719  0.3863  0.1465
 1247TIP3   OH227935   4.444   3.513   9.058  0.0346  0.0448  0.1270
 1247TIP3    H127936   4.384   3.546   9.125 -0.4098 -0.8727  0.1950
 1247TIP3    H227937   4.408   3.545   8.976 -0.8743 -0.9178  0.1159
 1248TIP3   OH227938   3.822   1.745   7.587 -0.0612 -0.2954  0.4210
 1248TIP3    H127939   3.772   1.780   7.513  1.0347  0.3830 -0.0307
 1248TIP3    H227940   3.901   1.799   7.589 -0.4588  0.2753  2.6515
 1249TIP3   OH227941   6.274   3.598   8.369  0.1948  0.2620 -0.1019
 1249TIP3    H127942   6.279   3.657   8.444 -1.4217  1.4554 -0.8850
 1249TIP3    H227943   6.361   3.603   8.329  1.6547 -1.6736  2.5433
 1250TIP3   OH227944   1.733   4.777   6.539  0.2585 -0.8555 -0.2301
 1250TIP3    H127945   1.653   4.817   6.573  0.7561 -0.8975  1.0575
 1250TIP3    H227946   1.713   4.684   6.533  0.0663 -0.8070 -0.3442
 1251TIP3   OH227947   6.282   5.423   8.875  0.6529  0.2260  0.2471
 1251TIP3    H127948   6.295   5.502   8.823  0.4284 -0.9855 -1.7460
 1251TIP3    H227949   6.189   5.402   8.864  0.7217 -0.3500  0.7239
 1252TIP3   OH227950   2.469   2.648   9.236 -0.3052 -0.3267  0.6199
 1252TIP3    H127951   2.494   2.736   9.265 -0.6026 -0.7033  2.0931
 1252TIP3    H227952   2.388   2.662   9.186 -0.2287  0.2675  0.6534
 1253TIP3   OH227953   5.698   5.335   7.654  0.0188 -0.0988  0.2898
 1253TIP3    H127954   5.658   5.324   7.567  0.7569  0.8311 -0.1899
 1253TIP3    H227955   5.682   5.427   7.675 -1.5165 -0.6746  1.8607
 1254TIP3   OH227956   5.875   6.726   8.046  1.0405  0.5116 -0.2365
 1254TIP3    H127957   5.839   6.753   7.962  1.1236 -1.0537 -0.7959
 1254TIP3    H227958   5.963   6.694   8.026  1.4778  1.1288  0.6219
 1255TIP3   OH227959   3.853   0.227   7.649  0.3874  1.2131  0.1155
 1255TIP3    H127960   3.930   0.251   7.597 -0.4787  2.1498 -0.7780
 1255TIP3    H227961   3.779   0.238   7.589 -0.4371  0.0148  0.8543
 1256TIP3   OH227962   4.739   0.159   6.775  0.0194 -0.3238 -0.0839
 1256TIP3    H127963   4.727   0.254   6.769  0.6624 -0.1922  0.5303
 1256TIP3    H227964   4.821   0.149   6.823  0.1009 -1.1928 -0.3991
 1257TIP3   OH227965   3.758   3.679   7.929  0.4476  0.7976  0.4628
 1257TIP3    H127966   3.765   3.769   7.897  0.4184  0.1901 -1.3812
 1257TIP3    H227967   3.842   3.663   7.972  1.1443  1.1743 -0.7011
 1258TIP3   OH227968   4.314   5.382   7.476 -0.5022 -0.4212  0.3844
 1258TIP3    H127969   4.408   5.395   7.490 -0.2452 -1.8162  0.1233
 1258TIP3    H227970   4.285   5.462   7.433  0.6346 -0.0868  0.2092
 1259TIP3   OH227971   3.190   0.924   9.056 -0.1416 -0.1333 -0.2753
 1259TIP3    H127972   3.125   0.921   9.125 -0.4863  0.5422 -0.5539
 1259TIP3    H227973   3.259   0.865   9.084 -0.6574 -0.4892  0.2498
 1260TIP3   OH227974   4.102   4.726   9.039 -0.8489 -0.6896  0.2232
 1260TIP3    H127975   4.043   4.662   9.078  0.6740 -1.5349  1.2286
 1260TIP3    H227976   4.189   4.701   9.069  0.1535  0.0155 -1.8776
 1261TIP3   OH227977   7.396   1.998   9.177  0.0354  0.1961  0.2707
 1261TIP3    H127978   7.329   2.023   9.241  0.6145  0.2266  0.8780
 1261TIP3    H227979   7.444   1.927   9.220 -1.4271 -1.9110 -1.3096
 1262TIP3   OH227980   3.274   3.942   8.864  0.7881  0.4002  0.3179
 1262TIP3    H127981   3.186   3.936   8.827  0.8778  0.9510  0.0011
 1262TIP3    H227982   3.260   3.937   8.959  0.4499  0.1289  0.2550
 1263TIP3   OH227983   2.066   3.090   8.695  0.0628  0.1758 -0.0501
 1263TIP3    H127984   2.100   3.171   8.733  0.1455 -0.3307  0.9890
 1263TIP3    H227985   2.144   3.038   8.675 -0.0225 -0.5482  1.3551
 1264TIP3   OH227986   2.700   6.341   9.566 -0.4738  0.1437 -0.8570
 1264TIP3    H127987   2.784   6.297   9.579 -0.9989 -0.4731  0.6371
 1264TIP3    H227988   2.723   6.430   9.542  0.6129 -0.6489 -3.0806
 1265TIP3   OH227989   6.707   2.583   9.146  0.4835  0.0510 -0.6922
 1265TIP3    H127990   6.745   2.508   9.193  3.5163  0.9990 -1.4361
 1265TIP3    H227991   6.641   2.618   9.206 -0.3439 -2.5834  0.0676
 1266TIP3   OH227992   6.357   0.691   9.799  0.0475 -0.0157 -0.1782
 1266TIP3    H127993   6.303   0.658   9.870  0.1542 -2.3268 -1.0787
 1266TIP3    H227994   6.294   0.719   9.732 -0.0417 -0.3591 -0.2380
 1267TIP3   OH227995   2.938   5.599   9.493  0.2404 -0.0802  0.4523
 1267TIP3    H127996   2.987   5.679   9.474  0.9456 -0.9267 -1.5993
 1267TIP3    H227997   2.848   5.618   9.466 -0.5139  1.2238  3.5223
 1268TIP3   OH227998   5.727   4.233   8.359  0.0195 -0.3766 -0.3097
 1268TIP3    H127999   5.638   4.211   8.330  0.3091  0.6580 -2.1186
 1268TIP3    H228000   5.782   4.218   8.282  1.4542 -1.0808  0.8013
 1269TIP3   OH228001   2.545   1.969   8.454 -0.0949  0.4437 -0.1560
 1269TIP3    H128002   2.628   1.995   8.494  1.0509  0.5332 -2.4035
 1269TIP3    H228003   2.518   2.045   8.403 -0.4781 -0.2770 -1.0576
 1270TIP3   OH228004   4.799   1.790   7.699  0.2504 -0.1469  0.3439
 1270TIP3    H128005   4.779   1.810   7.791 -0.9147  1.2369 -0.1648
 1270TIP3    H228006   4.826   1.874   7.662  1.9670 -0.9370 -0.3098
 1271TIP3   OH228007   3.015   0.714   8.827  0.1210  0.3494 -0.3832
 1271TIP3    H128008   3.057   0.725   8.911 -0.2181 -2.2877  0.2201
 1271TIP3    H228009   3.042   0.627   8.797 -1.8802  0.1034 -1.7129
 1272TIP3   OH228010   1.274   2.501   9.180 -0.1803 -0.4245  0.3008
 1272TIP3    H128011   1.313   2.414   9.176 -1.3238 -0.9222 -0.9829
 1272TIP3    H228012   1.180   2.485   9.186 -0.3926  0.7293  0.2999
 1273TIP3   OH228013   5.696   4.890   8.803  1.2200  0.3850 -0.3489
 1273TIP3    H128014   5.641   4.820   8.839  2.3175 -1.3511 -1.8946
 1273TIP3    H228015   5.778   4.883   8.852  1.7367 -0.2065 -1.2572
 1274TIP3   OH228016   7.566   1.215   6.877 -0.1250 -0.1695  0.7389
 1274TIP3    H128017   7.573   1.294   6.931  2.0559 -0.2916  0.7221
 1274TIP3    H228018   7.545   1.145   6.938 -0.7093  0.1882  0.9553
 1275TIP3   OH228019   4.130   6.082   9.218 -0.7139  0.1536  0.0239
 1275TIP3    H128020   4.215   6.111   9.252 -0.8747 -0.2570  0.8055
 1275TIP3    H228021   4.152   6.026   9.144 -0.3054  0.1220  0.1625
 1276TIP3   OH228022   6.596   7.248   9.308 -0.6321 -0.3753  0.6709
 1276TIP3    H128023   6.519   7.306   9.306 -1.0467 -0.8896  1.2261
 1276TIP3    H228024   6.637   7.265   9.392 -0.2107 -0.2059  0.4336
 1277TIP3   OH228025   4.348   6.177   7.652 -1.0038 -0.1975  0.3091
 1277TIP3    H128026   4.422   6.117   7.662 -0.3684  0.4906 -0.2110
 1277TIP3    H228027   4.356   6.211   7.563 -1.9230 -0.0798  0.2599
 1278TIP3   OH228028   0.963   6.267   7.547  0.3231  0.5994 -0.5708
 1278TIP3    H128029   1.034   6.231   7.600  0.8044  1.9687 -0.2347
 1278TIP3    H228030   0.909   6.191   7.523  1.6423 -0.4041 -0.4574
 1279TIP3   OH228031   6.675   5.469   7.847  0.1421 -0.4964 -0.0118
 1279TIP3    H128032   6.615   5.416   7.900  1.2376 -2.0754 -0.2793
 1279TIP3    H228033   6.742   5.498   7.909  0.0449 -0.1980 -0.0456
 1280TIP3   OH228034   2.474   6.367   8.043 -0.3146 -0.2246 -0.0613
 1280TIP3    H128035   2.543   6.404   7.988 -0.1641 -0.2558  0.1061
 1280TIP3    H228036   2.442   6.442   8.094 -1.2381  0.0507 -1.0016
 1281TIP3   OH228037   7.448   1.244   9.631  0.3185  0.2427  0.4141
 1281TIP3    H128038   7.392   1.307   9.675  0.3639 -0.6972  1.8811
 1281TIP3    H228039   7.534   1.286   9.626  0.0014  0.8651  0.0119
 1282TIP3   OH228040   0.434   3.777   9.533 -0.9526 -0.3946 -0.1306
 1282TIP3    H128041   0.475   3.719   9.598  0.0389  0.1099 -0.2899
 1282TIP3    H228042   0.435   3.726   9.451 -0.2591 -0.2256 -0.2271
 1283TIP3   OH228043   7.513   3.427   8.704  0.3241  0.1787 -0.6572
 1283TIP3    H128044   7.539   3.335   8.708  0.3336  0.1656 -1.0049
 1283TIP3    H228045   7.595   3.474   8.685  1.3720  0.7753  4.0820
 1284TIP3   OH228046   6.867   7.189   7.811  0.4300  0.1289  0.1267
 1284TIP3    H128047   6.866   7.204   7.716 -0.7833  0.2384  0.1421
 1284TIP3    H228048   6.785   7.227   7.842  0.9536  0.3556  1.2700
 1285TIP3   OH228049   3.801   7.118   7.673  0.5295  0.2681 -0.7996
 1285TIP3    H128050   3.863   7.057   7.714  0.6942  0.8324 -0.1904
 1285TIP3    H228051   3.813   7.200   7.721 -1.3925  0.1387 -0.0137
 1286TIP3   OH228052   7.430   5.915   8.170 -0.0550 -0.1741 -0.2726
 1286TIP3    H128053   7.505   5.915   8.110  1.3337  2.0211  1.3110
 1286TIP3    H228054   7.357   5.886   8.117  1.4813 -0.2176 -2.4990
 1287TIP3   OH228055   4.833   2.804   7.916 -0.4922 -0.3833  0.3684
 1287TIP3    H128056   4.863   2.866   7.982  0.5769 -0.3795 -0.1076
 1287TIP3    H228057   4.907   2.745   7.903 -0.3407  0.1565 -1.4729
 1288TIP3   OH228058   2.564   2.634   6.328  0.2815  0.0675 -0.0460
 1288TIP3    H128059   2.517   2.581   6.263 -1.0017 -0.1081  0.9781
 1288TIP3    H228060   2.495   2.676   6.378  1.2764  2.0830 -0.2804
 1289TIP3   OH228061   6.585   6.449   9.426 -0.1718  0.8936 -0.0327
 1289TIP3    H128062   6.657   6.402   9.383 -0.4087 -0.5583  1.0848
 1289TIP3    H228063   6.626   6.527   9.462  0.4585  1.0286 -0.9842
 1290TIP3   OH228064   2.829   0.306   8.866  0.5452 -0.6040 -0.0200
 1290TIP3    H128065   2.883   0.356   8.806 -1.9855  1.1477 -1.0185
 1290TIP3    H228066   2.767   0.370   8.901 -1.1887 -2.5542  0.6803
 1291TIP3   OH228067   3.065   6.302   9.137 -0.5953  0.0461 -0.5693
 1291TIP3    H128068   3.107   6.236   9.082  0.8992  0.4145  0.0846
 1291TIP3    H228069   3.131   6.327   9.201 -1.6664  1.0079  0.2215
 1292TIP3   OH228070   5.115   3.751   7.542 -0.4308 -0.0609 -0.5559
 1292TIP3    H128071   5.118   3.763   7.637 -2.5834 -0.7016 -0.3684
 1292TIP3    H228072   5.179   3.682   7.525 -0.4938 -0.4047  0.5105
 1293TIP3   OH228073   3.619   6.041   8.920 -0.3743 -0.5754 -0.4490
 1293TIP3    H128074   3.555   6.028   8.990  0.2112  0.0170  0.2139
 1293TIP3    H228075   3.702   6.057   8.966 -0.2233  1.1141 -1.2524
 1294TIP3   OH228076   3.916   4.814   7.906 -0.4739  0.4210 -0.0342
 1294TIP3    H128077   3.830   4.819   7.947 -0.5664  0.7035 -0.2658
 1294TIP3    H228078   3.977   4.836   7.976 -0.6324  0.9352 -0.0586
 1295TIP3   OH228079   7.189   0.333   9.739  0.0909  0.7805 -0.7810
 1295TIP3    H128080   7.132   0.389   9.794  0.9164  0.5788  0.3123
 1295TIP3    H228081   7.191   0.249   9.785  1.1915  0.7578 -0.8438
 1296TIP3   OH228082   1.934   4.098   8.168 -0.2638  0.5121  0.0233
 1296TIP3    H128083   1.911   4.012   8.203 -1.1619  0.8787  0.3737
 1296TIP3    H228084   2.029   4.095   8.156 -0.4212 -0.9350 -1.1199
 1297TIP3   OH228085   1.914   1.526   7.855  0.1245  0.1246  0.3444
 1297TIP3    H128086   1.926   1.577   7.935 -0.9908  1.2806 -0.1866
 1297TIP3    H228087   1.838   1.566   7.812 -0.0240 -1.2157 -0.7170
 1298TIP3   OH228088   4.082   4.823   8.130 -0.2299 -0.7085 -0.0228
 1298TIP3    H128089   4.152   4.881   8.101 -0.6875 -0.4076 -0.5404
 1298TIP3    H228090   4.023   4.879   8.181 -1.2735 -0.4431 -1.4775
 1299TIP3   OH228091   0.102   4.226   8.310 -0.7515  0.2035 -0.0012
 1299TIP3    H128092   0.152   4.227   8.392 -1.0570  0.4893  0.1833
 1299TIP3    H228093   0.013   4.251   8.336 -0.6070  1.3512 -0.5664
 1300TIP3   OH228094   3.687   1.549   8.394  0.1876 -0.1503  0.3910
 1300TIP3    H128095   3.707   1.503   8.312 -1.9082  0.6382 -0.6303
 1300TIP3    H228096   3.759   1.611   8.405 -0.7548  1.6013 -2.3602
 1301TIP3   OH228097   4.310   5.349   8.418  0.4883 -0.9340  0.2119
 1301TIP3    H128098   4.329   5.268   8.370 -0.0380 -0.8596 -0.1306
 1301TIP3    H228099   4.216   5.344   8.437  0.3213 -0.1434 -0.3285
 1302TIP3   OH228100   7.137   7.194   7.898 -0.3502 -0.5463 -0.3956
 1302TIP3    H128101   7.152   7.135   7.972 -1.3335 -0.5701 -0.1978
 1302TIP3    H228102   7.044   7.184   7.877 -0.6333  1.1426 -0.1550
 1303TIP3   OH228103   0.036   1.270   7.215  0.1005 -0.2733 -0.9461
 1303TIP3    H128104   0.118   1.253   7.170  0.1501 -4.0810  0.2526
 1303TIP3    H228105  -0.031   1.232   7.159 -0.9827  2.6744 -1.8481
 1304TIP3   OH228106   7.560   3.775   7.207 -0.6340  0.4478  0.6536
 1304TIP3    H128107   7.530   3.806   7.122  0.6703 -1.4437 -0.5817
 1304TIP3    H228108   7.631   3.834   7.231  0.9231 -0.6508 -1.0099
 1305TIP3   OH228109   7.046   0.090   7.154  0.2908  0.2214  0.4815
 1305TIP3    H128110   6.972   0.109   7.213  0.1037  0.8919  0.0387
 1305TIP3    H228111   7.010   0.104   7.066  0.6912 -0.3504  0.2240
 1306TIP3   OH228112   6.087   4.195   8.382  0.1414 -0.7756  0.2752
 1306TIP3    H128113   6.085   4.113   8.333 -2.1058 -0.7557  0.2399
 1306TIP3    H228114   6.025   4.182   8.453 -1.9229  1.5543 -0.9370
 1307TIP3   OH228115   5.125   4.942   7.534 -0.1388  0.0111  0.2667
 1307TIP3    H128116   5.162   4.894   7.460 -1.8767 -2.3435  0.7719
 1307TIP3    H228117   5.085   5.019   7.495  1.5134  0.3599 -0.8132
 1308TIP3   OH228118   4.840   2.860   7.641  0.9882 -0.6484  0.0659
 1308TIP3    H128119   4.913   2.918   7.663 -0.0326  0.8859 -0.4025
 1308TIP3    H228120   4.801   2.837   7.726  0.4768  0.6502  0.2093
 1309TIP3   OH228121   6.066   5.373   8.077  0.1248 -0.2021  0.1453
 1309TIP3    H128122   6.044   5.282   8.056  2.7843 -0.8583 -0.2589
 1309TIP3    H228123   6.088   5.372   8.170 -2.0421  0.5673  0.7051
 1310TIP3   OH228124   5.021   6.135   8.741 -0.1143 -0.2691 -0.2949
 1310TIP3    H128125   4.962   6.067   8.773  1.5843 -0.9473  1.6242
 1310TIP3    H228126   5.100   6.088   8.713  0.7596  0.8051  0.2605
 1311TIP3   OH228127   3.473   1.405   9.464 -0.0201  0.3012  0.1804
 1311TIP3    H128128   3.388   1.392   9.420  0.2891 -1.0819 -0.0490
 1311TIP3    H228129   3.461   1.485   9.515 -1.6697 -0.1656  0.6024
 1312TIP3   OH228130   3.338   5.833   7.892  0.3068  0.4433  0.3778
 1312TIP3    H128131   3.332   5.914   7.942  2.8471  0.2550  1.1458
 1312TIP3    H228132   3.350   5.765   7.958  2.5938  0.0476 -0.3490
 1313TIP3   OH228133   3.837   1.518   9.216  0.1920  0.0410 -0.3026
 1313TIP3    H128134   3.858   1.458   9.146 -0.6195  0.0234 -0.5396
 1313TIP3    H228135   3.819   1.601   9.172  0.1818  0.1606 -0.0748
 1314TIP3   OH228136   7.344   3.477   8.072  0.0589  0.1509  0.1102
 1314TIP3    H128137   7.422   3.511   8.027 -0.9152  0.6915 -1.2479
 1314TIP3    H228138   7.355   3.382   8.069  1.0443  0.2358  0.6537
 1315TIP3   OH228139   1.348   6.455   7.976  0.1127 -0.1409 -0.0689
 1315TIP3    H128140   1.289   6.419   8.042  0.6122  0.8502  0.9644
 1315TIP3    H228141   1.293   6.468   7.899 -0.4532 -1.4567  0.0785
 1316TIP3   OH228142   7.601   0.870   8.807  0.2807 -0.0865  0.2558
 1316TIP3    H128143   7.528   0.888   8.867  0.3669  0.9265  0.0730
 1316TIP3    H228144   7.660   0.944   8.818  0.3726  0.0382 -0.9747
 1317TIP3   OH228145   5.386   3.622   7.592 -0.3695  0.1527  0.3825
 1317TIP3    H128146   5.347   3.561   7.655 -0.7991 -0.5733 -0.5529
 1317TIP3    H228147   5.479   3.624   7.614 -0.5663  0.1991  1.2590
 1318TIP3   OH228148   4.107   3.791   7.484  0.4929 -0.2172  0.2640
 1318TIP3    H128149   4.105   3.850   7.409 -1.2821  0.6825  0.9445
 1318TIP3    H228150   4.083   3.706   7.448  1.8297 -0.2939 -0.5171
 1319TIP3   OH228151   5.397   0.242   7.025 -0.0383  0.1653  1.3260
 1319TIP3    H128152   5.452   0.189   6.968  2.1495  4.2311 -0.7897
 1319TIP3    H228153   5.313   0.249   6.979  0.7850  1.1469 -0.1067
 1320TIP3   OH228154   5.494   6.097   7.270  0.0113  0.0598  0.2394
 1320TIP3    H128155   5.575   6.063   7.232 -2.0434 -3.0134 -1.8043
 1320TIP3    H228156   5.462   6.161   7.206 -0.5124 -0.7442 -0.3089
 1321TIP3   OH228157   5.275   5.425   8.056  0.9667 -0.0622  0.7507
 1321TIP3    H128158   5.360   5.445   8.093  0.6708 -0.3620  1.6145
 1321TIP3    H228159   5.217   5.414   8.132 -0.2641  1.8773  0.1971
 1322TIP3   OH228160   2.603   2.985   8.074  0.0857 -0.0644 -1.0084
 1322TIP3    H128161   2.513   2.974   8.043  0.0188  0.2983 -0.9538
 1322TIP3    H228162   2.628   2.899   8.107 -0.5612  0.0544 -0.1845
 1323TIP3   OH228163   0.603   0.836   6.970 -0.1584  0.1774  0.1488
 1323TIP3    H128164   0.573   0.861   7.057  1.2808  0.8917  0.4690
 1323TIP3    H228165   0.614   0.919   6.923  2.0521  0.0523  0.3260
 1324TIP3   OH228166   0.760   1.026   7.325 -0.2330 -0.1119 -0.0145
 1324TIP3    H128167   0.841   1.038   7.275 -0.1095  0.0940  0.2322
 1324TIP3    H228168   0.746   1.110   7.369  0.1426 -0.5580  0.9913
 1325TIP3   OH228169   6.676   6.483   8.208  0.2288  0.0044  0.3299
 1325TIP3    H128170   6.732   6.413   8.239  0.0489 -0.2502  0.0865
 1325TIP3    H228171   6.623   6.443   8.139  0.8349  0.6272 -0.5233
 1326TIP3   OH228172   6.922   0.473   9.008 -0.1288 -0.2320  0.0581
 1326TIP3    H128173   7.012   0.504   8.995  0.6069 -1.9092  0.9084
 1326TIP3    H228174   6.919   0.446   9.100 -1.6453  0.1791  0.1576
 1327TIP3   OH228175   2.028   4.469   7.745 -0.2894  0.3408 -0.1898
 1327TIP3    H128176   2.026   4.470   7.841  1.5008  0.6829 -0.1224
 1327TIP3    H228177   1.937   4.458   7.719 -0.6389 -1.5113  1.5749
 1328TIP3   OH228178   2.485   4.323   8.889 -0.1271 -0.1020 -0.3214
 1328TIP3    H128179   2.441   4.308   8.806 -1.0366 -0.6200  0.2380
 1328TIP3    H228180   2.424   4.290   8.955 -0.0706  1.6307  0.6548
 1329TIP3   OH228181   6.537   3.072   7.604 -0.0012  0.0854  0.3323
 1329TIP3    H128182   6.505   3.150   7.650 -0.0891 -0.2207  0.7966
 1329TIP3    H228183   6.633   3.082   7.606  0.0015  0.0122  0.6966
 1330TIP3   OH228184   2.595   2.276   7.375  0.2584  0.3644  0.2762
 1330TIP3    H128185   2.659   2.299   7.441  1.6530 -0.3023 -0.7944
 1330TIP3    H228186   2.636   2.205   7.325 -0.9743  0.4744 -0.9490
 1331TIP3   OH228187   7.585   3.107   9.735  0.2922  0.5270 -0.0379
 1331TIP3    H128188   7.588   3.011   9.736 -1.2063  0.3975  2.6353
 1331TIP3    H228189   7.503   3.129   9.692  0.8538  0.6737 -1.0726
 1332TIP3   OH228190   0.606   0.317   9.725 -0.0289 -0.0266 -0.1636
 1332TIP3    H128191   0.664   0.348   9.795 -0.0292  0.7514 -0.4932
 1332TIP3    H228192   0.529   0.282   9.771  0.3423 -0.3086  0.2462
 1333TIP3   OH228193   4.756   2.407   8.899  0.7092 -0.2869  0.0071
 1333TIP3    H128194   4.755   2.331   8.958  1.7672 -1.0618 -0.9213
 1333TIP3    H228195   4.793   2.373   8.818  0.9096  1.1698 -0.5342
 1334TIP3   OH228196   5.939   3.688   8.891 -0.4706 -0.3244 -0.0727
 1334TIP3    H128197   5.917   3.680   8.798  0.6385 -1.5321 -0.2659
 1334TIP3    H228198   5.867   3.644   8.937 -2.8602  3.2164 -0.0345
 1335TIP3   OH228199   5.517   6.622   7.757  0.2853  0.3152  0.6301
 1335TIP3    H128200   5.428   6.588   7.768 -0.6121  2.0421 -0.6734
 1335TIP3    H228201   5.572   6.544   7.748 -1.2734 -0.7998  0.3463
 1336TIP3   OH228202   5.426   4.888   7.870  0.8494 -0.0110 -0.9599
 1336TIP3    H128203   5.377   4.811   7.843 -1.4188  0.8377  0.4482
 1336TIP3    H228204   5.384   4.961   7.825 -0.4267  0.9422  1.5564
 1337TIP3   OH228205   7.304   3.711   9.015  0.2862 -0.5394  0.6759
 1337TIP3    H128206   7.392   3.735   8.988 -0.1650  1.2614  0.6607
 1337TIP3    H228207   7.271   3.656   8.944  0.4060  1.1728 -0.7780
 1338TIP3   OH228208   2.143   4.306   7.426 -0.2509 -0.1934 -0.0370
 1338TIP3    H128209   2.202   4.336   7.496 -0.1331 -2.0749  0.7173
 1338TIP3    H228210   2.103   4.387   7.394  1.5773  0.9950  0.4572
 1339TIP3   OH228211   2.528   7.269   9.249  0.4705  0.0444 -0.1769
 1339TIP3    H128212   2.456   7.266   9.186  0.0628  0.4263  0.2646
 1339TIP3    H228213   2.579   7.190   9.230 -1.8500 -2.0864  1.5732
 1340TIP3   OH228214   5.671   2.238   9.524  0.4811  0.2131  0.2706
 1340TIP3    H128215   5.632   2.158   9.487  1.1212  0.2900 -0.5835
 1340TIP3    H228216   5.741   2.206   9.581 -0.0522  0.1282  0.9035
 1341TIP3   OH228217   0.349   2.833   9.333  0.0600 -0.0789  0.2201
 1341TIP3    H128218   0.325   2.922   9.358 -0.4607 -0.5042  1.2831
 1341TIP3    H228219   0.307   2.777   9.398  0.3095 -1.1149 -0.4770
 1342TIP3   OH228220   6.392   5.773   7.501  0.4474 -0.0497 -0.6628
 1342TIP3    H128221   6.442   5.806   7.426  0.2567 -1.8362 -1.6343
 1342TIP3    H228222   6.450   5.709   7.542 -0.1679 -0.4740 -0.4336
 1343TIP3   OH228223   1.112   3.002   8.350 -0.4278 -0.1792 -0.4662
 1343TIP3    H128224   1.031   2.974   8.391 -0.5759  2.1059  1.0364
 1343TIP3    H228225   1.089   3.020   8.259 -0.9739 -1.9321 -0.6900
 1344TIP3   OH228226   6.767   2.019   9.074  0.3075  0.3760 -0.0322
 1344TIP3    H128227   6.744   2.093   9.019  0.1073 -0.6413 -1.3816
 1344TIP3    H228228   6.850   1.987   9.039  0.2327 -0.2303  0.3113
 1345TIP3   OH228229   1.565   3.623   9.458  0.0790 -0.1442 -0.3741
 1345TIP3    H128230   1.654   3.594   9.440  1.0530  1.2642  1.7212
 1345TIP3    H228231   1.515   3.542   9.471  1.9159 -1.0392  1.9961
 1346TIP3   OH228232   7.614   7.340   7.010  0.0584 -0.5630 -0.1586
 1346TIP3    H128233   7.519   7.334   7.001  0.0340  0.6438 -0.9446
 1346TIP3    H228234   7.638   7.268   7.069 -1.4308 -0.3675  0.7201
 1347TIP3   OH228235   7.345   1.599   6.500  0.2846  0.3072 -0.2776
 1347TIP3    H128236   7.249   1.608   6.506  0.3110  1.3910 -1.0895
 1347TIP3    H228237   7.367   1.536   6.568 -0.9364  0.5782  0.4144
 1348TIP3   OH228238   3.522   3.848   8.237 -0.2177  0.3610  0.1223
 1348TIP3    H128239   3.432   3.822   8.257 -0.2562  0.8430  0.6073
 1348TIP3    H228240   3.546   3.906   8.309  0.0009  1.3401 -0.7303
 1349TIP3   OH228241   7.659   3.062   9.459 -0.3336 -0.2790  0.2685
 1349TIP3    H128242   7.726   3.061   9.528  0.0012  0.6344 -0.0285
 1349TIP3    H228243   7.623   3.150   9.463  0.7843  0.3309 -1.7558
 1350TIP3   OH228244   4.630   5.677   7.250 -0.0324 -0.0375  0.2329
 1350TIP3    H128245   4.559   5.648   7.192 -0.3277  0.0785  0.5323
 1350TIP3    H228246   4.707   5.628   7.221 -0.3300 -0.4662  0.1626
 1351TIP3   OH228247   0.357   4.774   9.054  0.3025  0.2105  0.5228
 1351TIP3    H128248   0.357   4.869   9.041 -2.4305  0.5415  2.2101
 1351TIP3    H228249   0.266   4.748   9.044  0.3611 -1.6547  3.4237
 1352TIP3   OH228250   1.798   5.628   8.651  0.4641  0.0255 -0.0913
 1352TIP3    H128251   1.829   5.537   8.653 -3.1694 -1.3969  2.0385
 1352TIP3    H228252   1.744   5.632   8.572  0.9065  0.4899 -0.3778
 1353TIP3   OH228253   5.681   7.369   7.019 -0.7324  0.2195 -0.2384
 1353TIP3    H128254   5.748   7.316   7.063 -1.5365 -0.2312  0.4663
 1353TIP3    H228255   5.680   7.335   6.929 -3.7266 -3.6428  0.9774
 1354TIP3   OH228256   2.986   0.826   7.344  0.4973  0.3810  0.2649
 1354TIP3    H128257   2.977   0.900   7.284 -1.8961  0.2128  0.3337
 1354TIP3    H228258   3.006   0.751   7.287 -3.0129 -0.0401 -0.6561
 1355TIP3   OH228259   3.948   4.291   8.941 -0.2507 -0.1862  0.5841
 1355TIP3    H128260   3.949   4.343   8.861  1.1555 -2.0524 -0.7092
 1355TIP3    H228261   3.866   4.241   8.937  0.1185 -0.7645 -0.0756
 1356TIP3   OH228262   0.446   7.403   8.678 -0.3268 -0.2264 -0.1453
 1356TIP3    H128263   0.428   7.468   8.610  1.0297  1.6559  1.2223
 1356TIP3    H228264   0.540   7.406   8.690 -0.5944  0.0593  2.3605
 1357TIP3   OH228265   3.868   5.674   8.157  0.3043  0.4984 -0.4798
 1357TIP3    H128266   3.874   5.725   8.238  1.3481  2.0047 -1.4561
 1357TIP3    H228267   3.774   5.667   8.139  0.1273  2.5791 -0.5859
 1358TIP3   OH228268   3.130   4.690   6.969  0.0458 -0.1424  0.1999
 1358TIP3    H128269   3.117   4.730   7.055 -0.3799  0.9353 -0.3470
 1358TIP3    H228270   3.189   4.750   6.923 -0.8909  0.0884 -0.7654
 1359TIP3   OH228271   2.214   4.802   7.232 -0.5471 -0.2747  0.1932
 1359TIP3    H128272   2.145   4.754   7.186  0.3213  0.4890 -2.0494
 1359TIP3    H228273   2.279   4.735   7.255 -0.5777 -0.5605 -0.5304
 1360TIP3   OH228274   4.726   0.335   7.958  0.3840  0.1323 -0.2195
 1360TIP3    H128275   4.814   0.305   7.981  0.9241  2.0472  0.3847
 1360TIP3    H228276   4.717   0.419   8.003 -1.4428  0.3735 -0.9623
 1361TIP3   OH228277   4.164   4.158   7.793  0.1547  0.0550 -0.6207
 1361TIP3    H128278   4.171   4.081   7.850  0.9367 -0.1905 -1.0400
 1361TIP3    H228279   4.247   4.205   7.805  0.2300  0.1281 -1.3727
 1362TIP3   OH228280   3.639   5.066   8.472 -0.4856  0.0641  0.0394
 1362TIP3    H128281   3.713   5.012   8.501 -0.1740  0.0834 -0.7023
 1362TIP3    H228282   3.677   5.152   8.456 -0.9428  0.4545  1.0082
 1363TIP3   OH228283   4.210   3.298   7.287 -0.3728  0.3433  0.0809
 1363TIP3    H128284   4.119   3.295   7.316  0.1774 -0.2334  1.8575
 1363TIP3    H228285   4.261   3.285   7.367  1.3235  2.3300 -0.5781
 1364TIP3   OH228286   3.282   4.538   8.337 -0.2859 -0.5669  0.2811
 1364TIP3    H128287   3.317   4.533   8.425 -0.5417  0.1403  0.4305
 1364TIP3    H228288   3.299   4.452   8.299  0.2590 -0.7161  0.8515
 1365TIP3   OH228289   1.449   3.710   7.622  0.3677 -0.4696 -0.8891
 1365TIP3    H128290   1.460   3.674   7.534  2.0826 -1.1765 -0.4091
 1365TIP3    H228291   1.535   3.743   7.646 -0.6553  2.1278 -0.4661
 1366TIP3   OH228292   3.547   1.873   8.367 -0.8506  0.0450 -0.4812
 1366TIP3    H128293   3.575   1.858   8.457  1.6062 -1.6950 -1.4156
 1366TIP3    H228294   3.463   1.827   8.360 -0.5815 -0.6637  0.6863
 1367TIP3   OH228295   6.366   3.857   8.454 -0.2601 -0.4862  0.1041
 1367TIP3    H128296   6.296   3.910   8.492  0.4824  0.0772  0.7219
 1367TIP3    H228297   6.388   3.902   8.372 -2.2170 -1.9884 -1.3626
 1368TIP3   OH228298   0.269   6.266   8.530 -0.0710  0.1427  0.1843
 1368TIP3    H128299   0.211   6.200   8.568 -0.7745  0.1471 -0.8389
 1368TIP3    H228300   0.332   6.286   8.599 -0.2603 -1.1054  0.7382
 1369TIP3   OH228301   1.514   0.743   6.519  0.2173  0.3845  0.2642
 1369TIP3    H128302   1.496   0.654   6.548  0.9155 -0.2889 -1.2297
 1369TIP3    H228303   1.428   0.781   6.502 -0.0672 -0.8535 -1.3774
 1370TIP3   OH228304   6.207   0.176   8.033  0.0439 -0.2314 -0.2914
 1370TIP3    H128305   6.209   0.224   7.950  1.7088 -0.4341 -0.3991
 1370TIP3    H228306   6.226   0.243   8.099  1.0092 -0.4794 -0.3092
 1371TIP3   OH228307   3.588   3.009   9.284  0.2282  0.4145  0.3464
 1371TIP3    H128308   3.500   3.043   9.274 -1.0215 -3.0251 -2.1758
 1371TIP3    H228309   3.588   2.964   9.368 -1.3207 -1.5615 -0.6287
 1372TIP3   OH228310   3.441   5.942   7.437 -0.3549  0.7747 -0.2409
 1372TIP3    H128311   3.443   5.930   7.532  1.7482 -0.6833 -0.3951
 1372TIP3    H228312   3.381   5.875   7.405  1.1363 -0.7179 -0.0826
 1373TIP3   OH228313   1.876   0.442   7.280  0.2622 -0.2636  0.3438
 1373TIP3    H128314   1.866   0.379   7.208  0.9287  0.4109 -0.3593
 1373TIP3    H228315   1.787   0.463   7.306 -0.1188  1.3344 -1.9396
 1374TIP3   OH228316   0.016   1.375   9.615  0.5300  0.3998  0.3925
 1374TIP3    H128317   0.065   1.301   9.651 -0.4342 -1.0437 -1.0850
 1374TIP3    H228318   0.078   1.420   9.558  0.6187 -0.4353 -0.1902
 1375TIP3   OH228319   1.095   0.130   8.248  0.8956  0.3605 -0.0087
 1375TIP3    H128320   1.145   0.208   8.273  0.3493  0.5179  0.6297
 1375TIP3    H228321   1.004   0.152   8.270  0.3052  0.6192 -2.4676
 1376TIP3   OH228322   0.156   2.426   8.703  0.3339  0.3826  0.1579
 1376TIP3    H128323   0.188   2.427   8.612  0.3587  1.3515  0.1666
 1376TIP3    H228324   0.151   2.333   8.725  1.1797  0.1531 -0.5378
 1377TIP3   OH228325   1.864   7.482   8.094  0.0187  0.1939  0.1764
 1377TIP3    H128326   1.942   7.529   8.124 -1.8222  4.1014 -0.4870
 1377TIP3    H228327   1.833   7.435   8.172  0.7413  2.0578  1.6865
 1378TIP3   OH228328   7.381   6.809   7.198 -0.2124 -0.1412 -0.4689
 1378TIP3    H128329   7.428   6.885   7.231 -0.6210 -1.2615  3.2257
 1378TIP3    H228330   7.300   6.844   7.162 -0.3874  1.2433  1.1404
 1379TIP3   OH228331   6.428   4.089   8.244 -0.2835 -0.3804 -0.0284
 1379TIP3    H128332   6.505   4.099   8.188 -0.9184  1.5363 -0.6262
 1379TIP3    H228333   6.389   4.177   8.248 -0.9817 -0.7311  2.4001
 1380TIP3   OH228334   2.798   2.000   9.174  0.0787  0.0807  0.1944
 1380TIP3    H128335   2.782   2.074   9.232 -1.4779  0.5700 -0.7743
 1380TIP3    H228336   2.806   1.925   9.232 -1.9695  0.4671  1.0537
 1381TIP3   OH228337   3.620   4.802   7.778  0.2076  0.0620 -0.5561
 1381TIP3    H128338   3.701   4.813   7.728  0.2776 -2.5037 -1.1503
 1381TIP3    H228339   3.589   4.714   7.755 -0.7789 -0.5047  2.5035
 1382TIP3   OH228340   5.266   1.308   9.413  0.0608  0.2195  0.2419
 1382TIP3    H128341   5.252   1.376   9.479 -0.2241  1.3041 -0.8858
 1382TIP3    H228342   5.345   1.336   9.367 -0.2114 -0.0547 -0.4038
 1383TIP3   OH228343   2.494   1.951   6.627  0.3207 -0.5006  0.2895
 1383TIP3    H128344   2.556   1.878   6.627  0.3670 -0.5198  2.3184
 1383TIP3    H228345   2.413   1.914   6.664 -0.6516 -0.2444 -1.4693
 1384TIP3   OH228346   2.316   3.301   8.361 -0.7575 -0.5924 -0.5052
 1384TIP3    H128347   2.313   3.381   8.414  0.2486 -2.4419  2.5545
 1384TIP3    H228348   2.409   3.285   8.348 -0.9555 -1.2353 -1.2056
 1385TIP3   OH228349   6.796   4.641   8.692 -0.4871  0.4451 -0.3592
 1385TIP3    H128350   6.772   4.548   8.689  0.7294  0.1148 -0.4137
 1385TIP3    H228351   6.712   4.687   8.700 -1.1218 -0.6427 -0.5179
 1386TIP3   OH228352   4.907   7.145   6.745  0.6238  0.4641  0.1391
 1386TIP3    H128353   4.872   7.084   6.810  0.5121  0.3605 -0.0186
 1386TIP3    H228354   4.853   7.224   6.755  0.4170  0.3440 -0.0278
 1387TIP3   OH228355   6.482   0.829   7.578  0.1686 -0.0844 -0.3474
 1387TIP3    H128356   6.417   0.898   7.562 -0.3301 -0.6410 -0.7718
 1387TIP3    H228357   6.538   0.831   7.501  1.4399  1.2106  0.5485
 1388TIP3   OH228358   2.145   3.209   9.682 -0.6135  0.4172  0.5550
 1388TIP3    H128359   2.116   3.125   9.718 -1.1565 -0.0744 -0.9125
 1388TIP3    H228360   2.235   3.193   9.655 -0.9318  0.0690 -0.3465
 1389TIP3   OH228361   4.087   2.240   8.021 -0.0250 -0.3896 -0.2728
 1389TIP3    H128362   4.018   2.232   8.086  0.9388  1.9211  1.1575
 1389TIP3    H228363   4.045   2.220   7.937 -2.7517  2.0232  0.3810
 1390TIP3   OH228364   3.073   4.560   7.277 -0.0958  0.0395 -0.7036
 1390TIP3    H128365   3.077   4.526   7.366  0.1174  0.3507 -0.5914
 1390TIP3    H228366   3.118   4.645   7.282  2.8410 -1.3291 -1.7714
 1391TIP3   OH228367   0.838   5.143   7.643 -0.8401 -0.1167  0.2065
 1391TIP3    H128368   0.812   5.110   7.557 -2.2144 -0.6574  0.8037
 1391TIP3    H228369   0.802   5.232   7.646 -0.7090 -0.0627  0.2002
 1392TIP3   OH228370   6.465   0.928   8.155 -0.5767 -0.2820 -0.2556
 1392TIP3    H128371   6.458   0.988   8.081 -1.3407  0.7073  0.5800
 1392TIP3    H228372   6.383   0.940   8.203 -1.3738 -2.9663 -0.7408
 1393TIP3   OH228373   4.274   0.827   9.153  0.3616 -0.2864  0.2780
 1393TIP3    H128374   4.204   0.831   9.088  1.5526  2.0147 -1.0285
 1393TIP3    H228375   4.338   0.766   9.116  0.8881  0.7729 -0.6210
 1394TIP3   OH228376   4.949   0.358   6.558 -0.2461 -0.3022 -0.5058
 1394TIP3    H128377   4.977   0.277   6.515 -1.8144 -1.2911  0.2432
 1394TIP3    H228378   4.950   0.338   6.651 -2.1646 -0.0308 -0.3774
 1395TIP3   OH228379   5.990   2.508   8.466 -0.2086 -0.0784 -0.3620
 1395TIP3    H128380   6.084   2.501   8.482  0.1464  1.7425 -1.3888
 1395TIP3    H228381   5.950   2.475   8.547  1.2976 -0.5589  0.2265
 1396TIP3   OH228382   3.907   6.139   9.019  0.5525 -0.1563 -0.2267
 1396TIP3    H128383   3.895   6.072   9.086  0.5284 -1.2698 -1.2939
 1396TIP3    H228384   3.928   6.089   8.940 -3.0251  0.7513 -1.9748
 1397TIP3   OH228385   6.051   5.236   8.555 -0.3797  0.1700 -0.1268
 1397TIP3    H128386   6.076   5.144   8.549  1.0040  0.3621  1.6960
 1397TIP3    H228387   6.026   5.260   8.465  0.1993 -1.6929 -0.8406
 1398TIP3   OH228388   6.281   3.950   8.039  0.0730  0.7303 -0.4299
 1398TIP3    H128389   6.352   4.009   8.063 -0.9372  2.4191 -1.3963
 1398TIP3    H228390   6.277   3.955   7.943 -0.3197 -0.5830 -0.4932
 1399TIP3   OH228391   6.617   6.975   9.352 -0.3510  0.2608 -0.1574
 1399TIP3    H128392   6.620   7.068   9.375 -2.0150 -0.0869  1.7946
 1399TIP3    H228393   6.526   6.960   9.328 -0.7609 -1.3153  2.0212
 1400TIP3   OH228394   1.679   4.484   6.531  0.2169  0.6950  0.0903
 1400TIP3    H128395   1.593   4.446   6.549  0.2388  0.9749  0.8338
 1400TIP3    H228396   1.741   4.422   6.567  0.3217  0.6167 -0.2196
 1401TIP3   OH228397   5.600   0.475   6.882  0.5401  0.0385 -0.2559
 1401TIP3    H128398   5.640   0.525   6.954  2.2035 -1.4572 -0.0775
 1401TIP3    H228399   5.597   0.385   6.914 -0.8132 -0.2869 -1.2246
 1402TIP3   OH228400   1.817   0.150   8.636 -0.7390  0.4565  0.3603
 1402TIP3    H128401   1.870   0.073   8.617  1.9046  1.4639  2.8364
 1402TIP3    H228402   1.740   0.142   8.580  1.4113 -1.8030 -2.5415
 1403TIP3   OH228403   4.344   6.605   9.219 -0.6730  0.0687  0.0112
 1403TIP3    H128404   4.359   6.511   9.210 -2.8603 -0.3816  0.3859
 1403TIP3    H228405   4.369   6.625   9.309  0.1406 -0.0636 -0.1789
 1404TIP3   OH228406   3.750   7.536   9.404 -0.1438  1.3402 -0.3107
 1404TIP3    H128407   3.657   7.557   9.411 -0.0929  1.1293  1.2354
 1404TIP3    H228408   3.794   7.606   9.452  0.3205  0.1693  1.0391
 1405TIP3   OH228409   2.738   3.893   7.850  0.5170  0.3125  0.0419
 1405TIP3    H128410   2.800   3.926   7.914 -0.1732 -0.1982  0.9986
 1405TIP3    H228411   2.653   3.897   7.894  0.1945 -1.1423 -0.3914
 1406TIP3   OH228412   6.445   2.892   7.776 -0.0535 -0.2253  0.1264
 1406TIP3    H128413   6.505   2.862   7.845 -0.1625  1.9327  1.2456
 1406TIP3    H228414   6.496   2.956   7.727 -1.0725  0.8493  0.4344
 1407TIP3   OH228415   3.274   5.407   8.841  0.0365  0.3125 -0.1541
 1407TIP3    H128416   3.201   5.465   8.818 -0.1501 -0.1152 -0.6597
 1407TIP3    H228417   3.268   5.399   8.936  0.3246  1.4540 -0.0238
 1408TIP3   OH228418   2.847   4.680   8.836 -0.0533 -0.4523  0.0637
 1408TIP3    H128419   2.874   4.655   8.748 -1.2022 -0.0792 -0.4147
 1408TIP3    H228420   2.913   4.744   8.864 -0.7700  0.9800 -1.3499
 1409TIP3   OH228421   2.476   6.575   7.520  0.1981 -0.0774 -0.0146
 1409TIP3    H128422   2.496   6.621   7.439 -0.0539  1.2628  0.6688
 1409TIP3    H228423   2.562   6.556   7.558  0.3015 -0.1789 -0.2952
 1410TIP3   OH228424   4.000   6.474   8.871 -0.9883  0.1181 -0.1630
 1410TIP3    H128425   4.011   6.441   8.960 -2.3958 -0.1730 -0.0697
 1410TIP3    H228426   4.059   6.549   8.866 -2.3537  1.4170  1.6965
 1411TIP3   OH228427   5.188   4.826   7.285  0.1390 -0.2299 -0.4472
 1411TIP3    H128428   5.266   4.785   7.246 -0.3623 -2.2535  0.5584
 1411TIP3    H228429   5.116   4.799   7.228 -0.1510 -0.4599  0.0231
 1412TIP3   OH228430   2.832   5.014   8.646  0.1747  0.0015  0.4897
 1412TIP3    H128431   2.900   4.997   8.711  1.5144 -0.3159 -0.9297
 1412TIP3    H228432   2.825   5.110   8.642  0.8347  0.0474  0.3652
 1413TIP3   OH228433   3.492   1.796   9.121 -0.6922  0.6851  0.1125
 1413TIP3    H128434   3.519   1.705   9.115  0.7080  1.0307  0.8206
 1413TIP3    H228435   3.420   1.804   9.059 -0.3998 -0.7394 -0.4355
 1414TIP3   OH228436   0.261   5.542   8.896 -0.0113 -0.4091 -0.2478
 1414TIP3    H128437   0.203   5.482   8.944 -1.2766  0.2094 -0.9616
 1414TIP3    H228438   0.212   5.624   8.891  1.7301  0.7555  0.7858
 1415TIP3   OH228439   5.120   5.807   8.390 -0.1644  0.4254  0.2232
 1415TIP3    H128440   5.181   5.829   8.319  0.8909 -2.1360  0.2343
 1415TIP3    H228441   5.050   5.758   8.348 -1.5416  2.1278  0.4427
 1416TIP3   OH228442   3.315   5.441   7.488 -0.1434  0.2634 -0.1039
 1416TIP3    H128443   3.410   5.442   7.493 -0.1978  0.1377  1.3794
 1416TIP3    H228444   3.288   5.385   7.561 -1.3351 -0.1856 -0.8637
 1417TIP3   OH228445   3.347   1.524   8.712  0.0476 -0.0742  0.2303
 1417TIP3    H128446   3.363   1.611   8.675 -0.8624  0.4005  0.9125
 1417TIP3    H228447   3.393   1.464   8.653  1.1967  0.9052  0.0831
 1418TIP3   OH228448   2.769   1.741   9.626 -0.1513 -0.2922  0.6328
 1418TIP3    H128449   2.717   1.813   9.663  0.8459 -0.1907  1.8770
 1418TIP3    H228450   2.858   1.759   9.654  0.8398  0.1875 -2.4759
 1419TIP3   OH228451   5.802   2.035   8.390  0.3423  0.2435  0.0798
 1419TIP3    H128452   5.736   2.050   8.322  1.2246  0.4925 -0.7400
 1419TIP3    H228453   5.882   2.075   8.355  0.7693  0.5410  1.3446
 1420TIP3   OH228454   0.652   2.674   8.244 -0.5465  0.5593  0.0490
 1420TIP3    H128455   0.739   2.685   8.204 -0.4181  0.5502  0.3244
 1420TIP3    H228456   0.611   2.603   8.194 -0.8036  1.2695 -0.7747
 1421TIP3   OH228457   1.829   3.354   8.294 -0.3527  0.5761  0.0247
 1421TIP3    H128458   1.879   3.396   8.364  0.4247  0.0708 -0.2163
 1421TIP3    H228459   1.826   3.261   8.319  0.0927  0.3593 -0.6972
 1422TIP3   OH228460   7.372   3.217   6.701  0.5166  0.4892  1.0488
 1422TIP3    H128461   7.286   3.228   6.741 -0.8117  0.3388 -1.5747
 1422TIP3    H228462   7.387   3.297   6.652  1.2501 -0.0348  0.3829
 1423TIP3   OH228463   6.601   4.851   7.692  0.2992  0.6567  0.7762
 1423TIP3    H128464   6.683   4.807   7.713 -1.2053 -1.7755  1.9736
 1423TIP3    H228465   6.569   4.808   7.614 -1.8408 -1.5444  2.6969
 1424TIP3   OH228466   2.021   1.140   7.326 -0.3140 -0.1559 -0.5447
 1424TIP3    H128467   2.036   1.143   7.421 -0.0201 -0.2171 -0.5876
 1424TIP3    H228468   2.109   1.134   7.289 -0.3956  0.5279 -0.8508
 1425TIP3   OH228469   4.125   0.234   6.468  0.3191 -0.2863  1.4122
 1425TIP3    H128470   4.219   0.223   6.482  0.4003  0.1668  1.2303
 1425TIP3    H228471   4.103   0.170   6.400  0.2873 -1.1412  2.2014
 1426TIP3   OH228472   2.314   2.474   7.152  0.2312  0.2709 -0.1093
 1426TIP3    H128473   2.311   2.563   7.118 -0.1625  0.6634  0.9275
 1426TIP3    H228474   2.407   2.458   7.170  0.0951  1.2681  1.6901
 1427TIP3   OH228475   3.971   3.571   9.289  0.3865  0.1054  0.5609
 1427TIP3    H128476   3.975   3.480   9.261  2.0185  0.1082  0.6499
 1427TIP3    H228477   3.955   3.566   9.383 -0.1707 -0.0608  0.4600
 1428TIP3   OH228478   1.400   2.250   9.077  0.2037 -0.5858  0.0322
 1428TIP3    H128479   1.426   2.159   9.064 -0.5876 -0.6269 -1.5904
 1428TIP3    H228480   1.420   2.292   8.994  0.2941  0.6643  0.6758
 1429TIP3   OH228481   0.216   7.268   8.731 -0.0709 -0.1695 -0.0760
 1429TIP3    H128482   0.205   7.210   8.656  2.0983 -2.6850  1.3691
 1429TIP3    H228483   0.274   7.338   8.700 -0.4088 -0.3301 -1.1064
 1430TIP3   OH228484   4.068   1.415   7.294 -0.9278  0.1000  0.3218
 1430TIP3    H128485   3.985   1.442   7.333 -1.3327 -1.3051  0.4761
 1430TIP3    H228486   4.050   1.413   7.199 -1.9964 -2.9369  0.4805
 1431TIP3   OH228487   4.882   3.507   7.933 -0.0972 -0.2331  0.2052
 1431TIP3    H128488   4.852   3.541   7.849  1.5833  1.1020  0.0949
 1431TIP3    H228489   4.820   3.540   7.997 -1.2142 -1.0071 -0.4498
 1432TIP3   OH228490   1.048   0.728   7.590  0.1483  0.4463 -0.2068
 1432TIP3    H128491   0.998   0.663   7.639  1.4559 -1.4099 -1.1877
 1432TIP3    H228492   0.986   0.764   7.527 -0.6308  0.2352  0.4293
 1433TIP3   OH228493   2.840   0.845   8.672  0.6033 -0.3646 -0.2285
 1433TIP3    H128494   2.909   0.792   8.712  0.7038  0.9926  1.4956
 1433TIP3    H228495   2.758   0.802   8.699  0.6332  1.0417  2.3185
 1434TIP3   OH228496   7.433   5.234   8.449 -0.0377  0.0797  0.0595
 1434TIP3    H128497   7.490   5.176   8.400 -0.2184 -0.6507  0.6881
 1434TIP3    H228498   7.487   5.311   8.468  0.5827 -0.3963  0.2474
 1435TIP3   OH228499   3.655   7.224   8.056 -0.7523 -0.1643 -0.3098
 1435TIP3    H128500   3.658   7.314   8.024  1.1987 -0.5225 -1.3264
 1435TIP3    H228501   3.745   7.193   8.047 -1.3872 -2.2340 -0.0423
 1436TIP3   OH228502   1.162   1.957   6.898 -0.6726 -0.1046  0.1273
 1436TIP3    H128503   1.142   1.879   6.846 -0.6386 -0.5839  0.8101
 1436TIP3    H228504   1.242   1.992   6.860 -0.6619 -0.4384 -0.1610
 1437TIP3   OH228505   6.791   2.326   9.201 -0.6135 -0.5202  0.2036
 1437TIP3    H128506   6.767   2.286   9.117  2.0795 -2.4478  0.2266
 1437TIP3    H228507   6.811   2.252   9.258  2.2544  0.7263  1.0148
 1438TIP3   OH228508   2.675   2.347   6.639  0.5899  0.2923  0.0855
 1438TIP3    H128509   2.694   2.383   6.552 -0.3324  0.8094  0.0881
 1438TIP3    H228510   2.640   2.420   6.688  1.1646  0.0170  0.9334
 1439TIP3   OH228511   1.824   1.041   7.815 -0.3599  0.2514  0.0006
 1439TIP3    H128512   1.873   1.089   7.882 -0.5902 -0.2740  0.5577
 1439TIP3    H228513   1.856   1.076   7.732 -1.2317  2.0801  0.3865
 1440TIP3   OH228514   3.723   0.741   8.039 -0.5509  0.2529  1.0623
 1440TIP3    H128515   3.678   0.806   8.092  1.3325 -0.2546  3.4140
 1440TIP3    H228516   3.786   0.700   8.098  2.3607  0.2710 -1.7625
 1441TIP3   OH228517   6.583   6.853   7.812  0.2167 -0.1821 -0.5579
 1441TIP3    H128518   6.544   6.923   7.865  0.3324  0.2528 -1.0421
 1441TIP3    H228519   6.627   6.796   7.876  0.9888  0.7379 -0.2460
 1442TIP3   OH228520   3.787   5.196   7.877  0.2494 -0.0740  0.4727
 1442TIP3    H128521   3.765   5.162   7.963  0.6323 -0.2428  0.5079
 1442TIP3    H228522   3.717   5.165   7.820  0.8462 -1.3764  0.4028
 1443TIP3   OH228523   1.506   3.302   8.678  0.1431  0.4557  0.3494
 1443TIP3    H128524   1.437   3.292   8.744 -0.2700  1.7248  0.1504
 1443TIP3    H228525   1.539   3.214   8.664 -1.6069 -0.2436  0.2843
 1444TIP3   OH228526   6.119   6.628   8.320  0.1283 -0.2079 -0.3609
 1444TIP3    H128527   6.150   6.561   8.260  1.5368  0.2690 -0.1945
 1444TIP3    H228528   6.024   6.615   8.323  0.3792 -2.2497 -0.2306
 1445TIP3   OH228529   5.079   6.413   8.110 -0.3019  0.1638  0.8745
 1445TIP3    H128530   5.121   6.355   8.174 -1.5181 -0.6529  0.9543
 1445TIP3    H228531   4.998   6.440   8.152 -0.0168  1.5206  0.6107
 1446TIP3   OH228532   1.830   5.874   8.556 -0.3787 -0.1210  0.3469
 1446TIP3    H128533   1.829   5.783   8.587  2.3139  0.5614  2.8074
 1446TIP3    H228534   1.901   5.876   8.492 -1.9747 -0.1703 -1.5160
 1447TIP3   OH228535   7.368   7.220   7.756  0.0617 -0.4786 -0.2867
 1447TIP3    H128536   7.294   7.196   7.812  0.9852  1.5863  2.0076
 1447TIP3    H228537   7.327   7.244   7.672 -1.4549 -2.8400 -0.3215
 1448TIP3   OH228538   3.301   3.239   8.507 -0.0464  0.0733  0.1195
 1448TIP3    H128539   3.355   3.316   8.490 -0.4268  0.3966  0.3653
 1448TIP3    H228540   3.223   3.273   8.550 -1.1428 -0.1762 -1.5488
 1449TIP3   OH228541   6.126   5.208   9.496  0.2285 -0.1557  1.0564
 1449TIP3    H128542   6.111   5.192   9.403  1.1472  1.2108  0.6384
 1449TIP3    H228543   6.220   5.223   9.502  0.1168  0.1600  2.1413
 1450TIP3   OH228544   1.778   5.193   8.395 -0.7657 -0.1702 -0.1506
 1450TIP3    H128545   1.776   5.164   8.487  0.1248  1.3992  0.4130
 1450TIP3    H228546   1.835   5.269   8.396  0.9102 -1.2827 -2.3804
 1451TIP3   OH228547   2.330   3.733   9.446 -0.1996 -0.0962  0.3672
 1451TIP3    H128548   2.246   3.744   9.491 -0.0714  1.6318  0.2643
 1451TIP3    H228549   2.344   3.639   9.443 -2.0767 -0.4161  0.5084
 1452TIP3   OH228550   7.608   5.931   7.442  0.7811  0.0305 -0.0526
 1452TIP3    H128551   7.648   5.944   7.357  2.8793 -0.3509  0.8274
 1452TIP3    H228552   7.656   5.990   7.501 -1.2408  1.0097  0.7512
 1453TIP3   OH228553   2.336   2.150   8.006 -0.5442 -0.7345  0.5297
 1453TIP3    H128554   2.422   2.107   8.008 -0.8010 -1.2381  1.8824
 1453TIP3    H228555   2.321   2.177   8.097 -2.9861 -3.0420  0.9222
 1454TIP3   OH228556   7.284   7.664   9.646 -0.2838 -0.2762  0.4897
 1454TIP3    H128557   7.228   7.704   9.713  0.4039  0.9250  0.3796
 1454TIP3    H228558   7.371   7.701   9.661  0.1574 -0.9442 -0.2901
 1455TIP3   OH228559   2.827   5.662   8.914  0.4884  0.1558 -0.2655
 1455TIP3    H128560   2.861   5.740   8.871  1.1400  0.6391  1.0665
 1455TIP3    H228561   2.887   5.646   8.986 -1.1639  0.0698  1.1768
 1456TIP3   OH228562   3.392   2.685   9.409  0.3408  0.1038  0.0100
 1456TIP3    H128563   3.374   2.739   9.332  0.2414 -1.1549 -0.8795
 1456TIP3    H228564   3.306   2.664   9.445  0.3196 -0.4015 -0.3248
 1457TIP3   OH228565   1.808   3.070   8.394  0.8218 -0.3413  0.6194
 1457TIP3    H128566   1.758   2.990   8.413  3.1539 -2.4039 -1.1636
 1457TIP3    H228567   1.867   3.080   8.469  2.4098 -2.0111 -0.3190
 1458TIP3   OH228568   1.913   4.349   7.970 -0.3604  0.0771  0.2116
 1458TIP3    H128569   1.967   4.279   8.006 -0.4159  0.4221  0.9769
 1458TIP3    H228570   1.845   4.303   7.920  0.0636 -0.3866  0.0535
 1459TIP3   OH228571   1.478   5.550   7.745  0.4675  0.0064  0.2061
 1459TIP3    H128572   1.387   5.564   7.769  0.6487  0.7811  0.4580
 1459TIP3    H228573   1.522   5.527   7.827  0.6602  0.4800  0.2386
 1460TIP3   OH228574   5.581   2.381   9.318 -0.4471 -0.4819  0.2250
 1460TIP3    H128575   5.617   2.352   9.401  0.8142 -1.9673 -0.7925
 1460TIP3    H228576   5.657   2.403   9.264 -1.2190  0.1838 -0.6301
 1461TIP3   OH228577   1.182   1.739   9.592  0.0366  0.0006 -0.3065
 1461TIP3    H128578   1.135   1.657   9.573 -0.7740  0.2309  0.6249
 1461TIP3    H228579   1.274   1.712   9.601 -0.2897 -0.9110  0.5300
 1462TIP3   OH228580   4.269   5.610   7.322  0.4156  0.4309 -0.9298
 1462TIP3    H128581   4.336   5.663   7.279  0.2901 -0.4540 -2.2968
 1462TIP3    H228582   4.186   5.645   7.291  0.2990  0.1983 -0.8842
 1463TIP3   OH228583   4.015   0.781   9.009  0.0566  0.0345  0.4780
 1463TIP3    H128584   4.019   0.705   8.951  0.5165 -0.0354  0.5988
 1463TIP3    H228585   3.935   0.827   8.982  0.1794 -0.0815 -0.1022
 1464TIP3   OH228586   3.050   4.629   8.651 -0.0935 -0.6401 -1.0644
 1464TIP3    H128587   3.137   4.591   8.640 -0.0908 -0.6699 -0.9448
 1464TIP3    H228588   3.035   4.679   8.571  0.0190 -0.6637 -1.1007
 1465TIP3   OH228589   6.811   3.340   8.194 -0.2402  0.1890 -0.3210
 1465TIP3    H128590   6.785   3.375   8.109  0.0957  1.4074  0.0610
 1465TIP3    H228591   6.889   3.390   8.218  1.4865 -2.1583 -0.6363
 1466TIP3   OH228592   3.291   5.362   9.368 -0.2826 -0.3075  0.1016
 1466TIP3    H128593   3.223   5.385   9.432 -0.6114  1.4829 -0.8116
 1466TIP3    H228594   3.353   5.434   9.373  0.7259 -1.1393 -0.2070
 1467TIP3   OH228595   1.363   4.014   7.515 -0.1324 -0.1212 -0.0603
 1467TIP3    H128596   1.366   4.031   7.609  0.4880  0.5978 -0.1940
 1467TIP3    H228597   1.423   3.941   7.502  1.8436  1.4280 -0.1889
 1468TIP3   OH228598   7.479   2.027   8.315  0.1706  0.4763  0.5398
 1468TIP3    H128599   7.415   2.017   8.386  0.5028 -0.3359  0.7416
 1468TIP3    H228600   7.454   1.960   8.251  1.0387 -0.1035  0.7953
 1469TIP3   OH228601   2.550   5.282   7.676 -0.0381  0.3978 -0.2911
 1469TIP3    H128602   2.643   5.299   7.661  0.1246  0.0914  0.3577
 1469TIP3    H228603   2.536   5.193   7.643 -0.3097  0.7721 -1.2290
 1470TIP3   OH228604   3.592   7.519   8.120 -0.6570 -0.0780  0.2058
 1470TIP3    H128605   3.606   7.609   8.091  0.3421 -0.0493  0.7134
 1470TIP3    H228606   3.550   7.476   8.046 -2.1435  1.0542  0.3422
 1471TIP3   OH228607   0.599   0.708   6.731  0.1287  0.3738 -0.1413
 1471TIP3    H128608   0.549   0.638   6.774  0.9243 -0.0035  0.1817
 1471TIP3    H228609   0.589   0.784   6.789 -1.2737  0.7432 -0.8135
 1472TIP3   OH228610   6.038   0.907   6.634 -0.1094  0.0711 -0.1826
 1472TIP3    H128611   6.114   0.853   6.655  1.6632  1.8590 -1.5327
 1472TIP3    H228612   6.001   0.931   6.719  0.0276 -1.8539  0.4674
 1473TIP3   OH228613   6.376   1.696   9.166  0.6595 -0.9228 -0.0748
 1473TIP3    H128614   6.420   1.642   9.100  0.7345  0.0429 -0.8248
 1473TIP3    H228615   6.298   1.730   9.123  0.0994 -1.1849  0.6963
 1474TIP3   OH228616   6.497   0.196   8.883  0.4012  0.0454  0.0289
 1474TIP3    H128617   6.527   0.143   8.809  1.3355  1.1464 -0.4161
 1474TIP3    H228618   6.562   0.266   8.890 -0.6076  0.9444  0.8033
 1475TIP3   OH228619   0.533   2.590   8.967  0.2091 -0.0973  0.0553
 1475TIP3    H128620   0.491   2.668   9.002 -0.4927 -1.1408  1.6069
 1475TIP3    H228621   0.625   2.617   8.954 -0.0754  1.0612  0.2677
 1476TIP3   OH228622   5.470   3.632   7.328 -0.0275  0.5908 -0.1188
 1476TIP3    H128623   5.444   3.636   7.420  1.7295  0.0426  0.4425
 1476TIP3    H228624   5.397   3.671   7.280 -1.1434  0.5129  1.4693
 1477TIP3   OH228625   3.613   2.316   8.982 -0.8067 -0.6041  0.1446
 1477TIP3    H128626   3.601   2.226   9.012  3.7769 -1.3573  0.3631
 1477TIP3    H228627   3.633   2.308   8.889  1.7529 -0.1483  0.5960
 1478TIP3   OH228628   0.418   6.675   7.655  0.0515  0.6019  0.0332
 1478TIP3    H128629   0.415   6.580   7.668 -0.3873  0.7475  1.1290
 1478TIP3    H228630   0.511   6.697   7.653  0.2654  0.5859  3.6212
 1479TIP3   OH228631   5.941   1.840   7.603 -0.3958 -0.1368 -0.4520
 1479TIP3    H128632   5.897   1.755   7.606  0.0662 -0.3582  1.7349
 1479TIP3    H228633   5.959   1.861   7.695 -0.0741  2.1164 -0.9745
 1480TIP3   OH228634   4.768   6.136   8.507  0.5799 -0.3457  0.4647
 1480TIP3    H128635   4.774   6.163   8.598  0.8025 -1.2443  0.7330
 1480TIP3    H228636   4.716   6.055   8.510 -1.0774  0.6339 -0.4234
 1481TIP3   OH228637   3.639   0.881   9.151 -0.3696 -0.5199  0.1421
 1481TIP3    H128638   3.706   0.939   9.188 -1.3180  0.1779  0.8159
 1481TIP3    H228639   3.602   0.932   9.079  0.7093 -1.4336 -1.1069
 1482TIP3   OH228640   1.342   3.359   9.402  0.1603 -0.3364  0.2726
 1482TIP3    H128641   1.393   3.357   9.321  1.9700 -1.1064  1.3525
 1482TIP3    H228642   1.332   3.266   9.426  0.1555 -0.1071  1.1991
 1483TIP3   OH228643   4.741   2.749   9.014 -0.4789  0.0109  0.0796
 1483TIP3    H128644   4.763   2.824   9.069  2.7446 -1.1982  0.6185
 1483TIP3    H228645   4.767   2.673   9.065 -0.3471 -1.3100 -1.8666
 1484TIP3   OH228646   0.466   6.704   7.272 -0.2357 -0.1342 -0.3801
 1484TIP3    H128647   0.501   6.652   7.201 -1.6638 -1.5121 -0.1276
 1484TIP3    H228648   0.417   6.642   7.326  1.3562  0.7022  2.2299
 1485TIP3   OH228649   0.888   1.193   9.264  0.1386 -0.0254  0.4528
 1485TIP3    H128650   0.981   1.193   9.239  0.0888  0.4895  0.2614
 1485TIP3    H228651   0.868   1.101   9.282  0.5685 -0.1985  0.0564
 1486TIP3   OH228652   5.592   7.185   7.236  0.1999  0.1226 -0.0181
 1486TIP3    H128653   5.513   7.227   7.202 -0.1972  0.6598  1.4898
 1486TIP3    H228654   5.596   7.101   7.190 -1.8736 -0.3994  0.6140
 1487TIP3   OH228655   4.099   0.354   9.197  0.3775  0.1237  0.0394
 1487TIP3    H128656   4.115   0.276   9.250  1.6646  0.5168  0.2514
 1487TIP3    H228657   4.017   0.390   9.231  0.5545 -0.3022  0.9300
 1488TIP3   OH228658   4.071   6.083   8.414 -0.2164 -0.1310 -0.1326
 1488TIP3    H128659   4.073   6.151   8.480  0.7066  1.3650 -1.6104
 1488TIP3    H228660   4.123   6.011   8.450 -1.5392 -0.2705  1.6094
 1489TIP3   OH228661   6.603   4.017   8.723 -0.5884  0.1202  0.0352
 1489TIP3    H128662   6.681   4.042   8.673  0.7376 -1.8944  0.9555
 1489TIP3    H228663   6.613   4.065   8.806  0.5375 -1.2616  0.7475
 1490TIP3   OH228664   6.989   7.506   9.550  0.2862  0.0368  0.7962
 1490TIP3    H128665   6.970   7.567   9.479 -1.0330  1.7104  2.4972
 1490TIP3    H228666   7.080   7.479   9.534  0.0196  0.2852 -1.5066
 1491TIP3   OH228667   0.656   1.179   6.716  0.0581  0.7562 -0.6604
 1491TIP3    H128668   0.578   1.193   6.770 -0.1709 -0.7061 -0.5894
 1491TIP3    H228669   0.633   1.218   6.631 -0.7209  0.4381 -0.6074
 1492TIP3   OH228670   0.310   2.906   8.552 -0.6086 -0.0476 -0.0228
 1492TIP3    H128671   0.277   2.856   8.477  0.1750 -2.1148  0.9591
 1492TIP3    H228672   0.356   2.980   8.512 -0.7675 -0.7367 -1.5667
 1493TIP3   OH228673   4.891   7.310   7.467  0.2141  0.0207  0.2996
 1493TIP3    H128674   4.964   7.320   7.527  0.5315  0.7437 -0.1924
 1493TIP3    H228675   4.921   7.349   7.385 -1.3675  2.1141  0.6175
 1494TIP3   OH228676   4.545   1.073   8.642  0.2855  0.3976 -0.1537
 1494TIP3    H128677   4.523   1.030   8.725  0.7315  1.0833  0.3273
 1494TIP3    H228678   4.550   1.166   8.664  0.9527  0.5290 -0.8396
 1495TIP3   OH228679   3.882   4.381   7.545 -0.2117  0.2737 -0.0084
 1495TIP3    H128680   3.890   4.425   7.460  1.3401 -2.5951 -1.4831
 1495TIP3    H228681   3.887   4.452   7.608  2.6178  2.2603 -2.1912
 1496TIP3   OH228682   4.936   6.729   6.683 -0.0165  0.3804  0.2335
 1496TIP3    H128683   5.023   6.690   6.672  0.0723  0.0894  1.7347
 1496TIP3    H228684   4.945   6.818   6.649  0.0804 -0.4929 -2.2108
 1497TIP3   OH228685   2.653   1.454   7.442  0.7261  0.4292 -0.1995
 1497TIP3    H128686   2.681   1.453   7.533  0.7312 -1.3785 -0.1965
 1497TIP3    H228687   2.700   1.382   7.401 -0.7870 -0.0737 -1.1525
 1498TIP3   OH228688   3.952   7.532   6.769  0.2148  0.4821 -0.0338
 1498TIP3    H128689   3.907   7.448   6.780  0.5327  0.3106 -0.0157
 1498TIP3    H228690   4.030   7.510   6.718  0.6711  0.6423  0.5843
 1499TIP3   OH228691   3.201   1.488   8.407  0.3895  0.2921  0.1118
 1499TIP3    H128692   3.279   1.540   8.387 -0.2481  0.4074 -2.3979
 1499TIP3    H228693   3.145   1.548   8.456  0.2863  1.5516 -1.4601
 1500TIP3   OH228694   0.058   7.133   7.529 -0.0963  0.3019 -0.0733
 1500TIP3    H128695   0.118   7.069   7.490  0.1846 -0.1749  1.1152
 1500TIP3    H228696   0.099   7.217   7.512  0.8784 -0.0145  0.6477
 1501TIP3   OH228697   5.120   6.075   7.249 -0.0573  0.1486  0.7229
 1501TIP3    H128698   5.110   5.980   7.249 -1.1740  0.2586  0.9922
 1501TIP3    H228699   5.212   6.089   7.226 -0.2400 -0.9529 -0.8618
 1502TIP3   OH228700   3.358   6.352   9.270 -0.5121  0.1630 -0.4639
 1502TIP3    H128701   3.388   6.283   9.329 -1.4296  1.3378  1.4554
 1502TIP3    H228702   3.438   6.388   9.233  0.1586 -0.0410  0.7421
 1503TIP3   OH228703   6.255   6.835   8.159 -0.0061  0.0190 -0.2042
 1503TIP3    H128704   6.192   6.804   8.225 -0.1254  0.1787 -0.2421
 1503TIP3    H228705   6.325   6.769   8.159 -1.0551 -1.1813 -1.4702
 1504TIP3   OH228706   1.002   6.443   8.373  0.1967 -0.3282 -0.4677
 1504TIP3    H128707   1.078   6.459   8.428  0.0383  0.0551 -0.3560
 1504TIP3    H228708   0.987   6.348   8.379  1.9199 -0.7619 -2.1728
 1505TIP3   OH228709   4.298   5.487   8.848  0.3846  0.4027  0.2026
 1505TIP3    H128710   4.255   5.432   8.913 -3.4550  1.5897 -1.0612
 1505TIP3    H228711   4.330   5.563   8.898  0.4058 -0.2050  1.1315
 1506TIP3   OH228712   5.177   6.534   6.717 -0.5330  0.0794  0.5244
 1506TIP3    H128713   5.224   6.505   6.795  0.2535 -1.4704 -0.4704
 1506TIP3    H228714   5.246   6.559   6.656 -1.0310 -0.7148 -0.3937
 1507TIP3   OH228715   0.223   1.546   9.161  0.0489  0.0368 -0.5340
 1507TIP3    H128716   0.157   1.602   9.202  0.5328  0.2864 -0.0857
 1507TIP3    H228717   0.288   1.608   9.127  1.4061 -0.2681  1.3472
 1508TIP3   OH228718   5.324   5.965   7.726 -0.5109 -0.0340  0.8119
 1508TIP3    H128719   5.342   6.045   7.774 -1.6401  0.3768  0.5852
 1508TIP3    H228720   5.330   5.991   7.634 -2.7128  0.2953  0.6989
 1509TIP3   OH228721   3.231   1.373   9.191  0.1404  0.1575 -0.2578
 1509TIP3    H128722   3.252   1.432   9.118 -1.9298  0.3539 -0.7602
 1509TIP3    H228723   3.225   1.431   9.267  2.5069 -0.0747  0.1635
 1510TIP3   OH228724   5.020   4.275   8.465  0.2393  0.1315 -0.1237
 1510TIP3    H128725   5.029   4.234   8.380 -0.7194 -0.2861 -0.0435
 1510TIP3    H228726   4.926   4.292   8.473  0.4082  0.8231  0.5489
 1511TIP3   OH228727   3.137   6.812   7.856 -0.0494  0.3646  0.0190
 1511TIP3    H128728   3.136   6.721   7.828 -1.1867  0.3011  0.2289
 1511TIP3    H228729   3.176   6.860   7.783  0.0235 -0.2089 -0.3214
 1512TIP3   OH228730   1.674   4.409   8.541  0.1377  0.8312  0.2096
 1512TIP3    H128731   1.631   4.390   8.457  0.3063  0.9635  0.0918
 1512TIP3    H228732   1.766   4.385   8.526 -0.3588 -2.2067  1.3339
 1513TIP3   OH228733   5.880   3.886   7.647 -0.6481 -0.3641  0.3153
 1513TIP3    H128734   5.881   3.951   7.576  4.2226  0.6307  0.9219
 1513TIP3    H228735   5.887   3.938   7.727  2.3488 -1.4240  0.8701
 1514TIP3   OH228736   6.227   0.412   7.448 -0.3404  0.4370  0.3420
 1514TIP3    H128737   6.284   0.441   7.519 -0.9171  3.1588 -0.2105
 1514TIP3    H228738   6.280   0.419   7.369 -0.0461 -1.5346  0.3154
 1515TIP3   OH228739   3.961   2.890   7.484 -0.2160 -0.4645  0.0434
 1515TIP3    H128740   3.934   2.816   7.430 -1.4959 -0.6752  0.9262
 1515TIP3    H228741   3.944   2.967   7.430  0.4726 -0.7617 -0.6181
 1516TIP3   OH228742   3.221   6.485   6.488 -0.0824  0.4345  0.2251
 1516TIP3    H128743   3.290   6.549   6.470  1.6384 -1.2385  0.5401
 1516TIP3    H228744   3.239   6.455   6.577  0.1476 -1.5986 -0.4654
 1517TIP3   OH228745   6.323   1.698   8.818  0.0608  0.4870  0.1870
 1517TIP3    H128746   6.279   1.627   8.866  0.8021 -0.6896 -0.8153
 1517TIP3    H228747   6.415   1.673   8.817  0.0016  0.1046 -2.3777
 1518TIP3   OH228748   0.972   7.429   8.503 -0.2796  0.3638 -0.1953
 1518TIP3    H128749   0.942   7.391   8.420 -0.8869 -0.4708  0.3921
 1518TIP3    H228750   1.061   7.459   8.484  1.0252 -3.0474 -0.2357
 1519TIP3   OH228751   3.509   1.177   8.022  0.0052 -0.3555 -0.0233
 1519TIP3    H128752   3.490   1.271   8.013  0.4546 -0.1391  1.1253
 1519TIP3    H228753   3.439   1.134   7.973 -1.1787  0.5445  0.8114
 1520TIP3   OH228754   2.321   2.414   8.975 -0.5901  0.1946 -0.3956
 1520TIP3    H128755   2.283   2.327   8.965  1.1439 -0.7009  0.2820
 1520TIP3    H228756   2.262   2.459   9.035 -1.2014 -0.7212 -0.2900
 1521TIP3   OH228757   6.211   2.009   9.194 -0.5784  0.4741  0.5553
 1521TIP3    H128758   6.206   1.924   9.150 -0.0562  0.7136  0.0150
 1521TIP3    H228759   6.122   2.044   9.191 -0.5185  0.5511 -0.4448
 1522TIP3   OH228760   1.152   6.137   6.892 -0.2627 -0.2767 -0.0603
 1522TIP3    H128761   1.183   6.204   6.954 -3.5321 -0.4058  1.9518
 1522TIP3    H228762   1.124   6.187   6.815  2.2261  0.0481 -0.8530
 1523TIP3   OH228763   5.886   4.361   6.995  0.2828 -0.2154  0.1900
 1523TIP3    H128764   5.910   4.271   6.970  0.1626  0.0798 -1.0738
 1523TIP3    H228765   5.965   4.412   6.978  0.5692 -0.1676  1.5500
 1524TIP3   OH228766   3.515   4.136   8.115  0.1604  0.4598  0.0594
 1524TIP3    H128767   3.551   4.048   8.120  1.0873  0.6257 -2.5521
 1524TIP3    H228768   3.585   4.193   8.149 -0.2299  0.2857  1.2163
 1525TIP3   OH228769   2.565   7.527   9.280  0.4694 -0.0288 -0.2292
 1525TIP3    H128770   2.646   7.548   9.326 -0.4728 -0.5464  1.7595
 1525TIP3    H228771   2.571   7.433   9.264  1.3842  0.3494 -2.4743
 1526TIP3   OH228772   4.381   1.208   9.037  0.4891 -0.0453 -0.1531
 1526TIP3    H128773   4.437   1.150   8.986 -0.4948 -0.9717 -0.1995
 1526TIP3    H228774   4.292   1.187   9.009  0.0563  0.8203  0.5193
 1527TIP3   OH228775   4.982   6.649   7.175 -1.0266 -0.1132  0.7929
 1527TIP3    H128776   4.936   6.662   7.093  0.5890 -1.7671 -0.4519
 1527TIP3    H228777   4.915   6.661   7.243 -2.6749  0.0577 -0.8035
 1528TIP3   OH228778   7.452   7.189   9.552 -0.4171  0.0498 -0.4849
 1528TIP3    H128779   7.522   7.129   9.575  0.8558  0.9425 -1.8241
 1528TIP3    H228780   7.372   7.145   9.580  0.6673 -0.8667  1.3702
 1529TIP3   OH228781   5.352   7.511   7.092  0.5175  0.0823  0.2264
 1529TIP3    H128782   5.441   7.520   7.128  0.3929  0.3674  0.4663
 1529TIP3    H228783   5.317   7.433   7.136  0.8047 -0.2962 -0.2005
 1530TIP3   OH228784   0.970   0.889   6.429 -0.5752  0.4223  0.1474
 1530TIP3    H128785   0.928   0.811   6.396  0.9360 -0.9758  1.3412
 1530TIP3    H228786   0.903   0.957   6.424 -2.8186 -1.5404  1.4833
 1531TIP3   OH228787   6.369   1.116   8.495 -0.3852 -0.1119  0.0065
 1531TIP3    H128788   6.283   1.115   8.537  0.0393 -0.4162  0.8776
 1531TIP3    H228789   6.408   1.032   8.518  0.2351  0.1122 -0.2080
 1532TIP3   OH228790   0.847   3.663   9.665  0.3816 -0.1155 -0.0156
 1532TIP3    H128791   0.909   3.592   9.680  1.8757  1.5741  2.6818
 1532TIP3    H228792   0.902   3.738   9.643 -0.8177  0.9990  0.6685
 1533TIP3   OH228793   6.383   4.773   6.859 -0.4117 -0.4640  0.5354
 1533TIP3    H128794   6.382   4.826   6.780 -2.6369 -1.3942 -0.1272
 1533TIP3    H228795   6.412   4.833   6.928 -1.1784  1.1290 -0.4773
 1534TIP3   OH228796   7.538   2.684   6.739  0.0672  0.3125  0.2819
 1534TIP3    H128797   7.486   2.751   6.696  1.2741  1.1578  0.0762
 1534TIP3    H228798   7.508   2.601   6.702 -0.5070  0.8457 -0.4614
 1535TIP3   OH228799   2.422   1.853   9.015 -0.4691  0.6397 -0.2651
 1535TIP3    H128800   2.425   1.925   8.952 -0.9590  2.2742  1.4883
 1535TIP3    H228801   2.511   1.849   9.051 -0.0169 -0.7056 -1.4412
 1536TIP3   OH228802   7.077   1.191   9.018  0.1871  0.5089  0.2051
 1536TIP3    H128803   7.032   1.177   8.934 -1.5600  3.1423  0.5866
 1536TIP3    H228804   7.008   1.223   9.077  1.2042 -1.9330  2.9275
 1537TIP3   OH228805   0.103   2.532   9.691 -0.4646 -0.3624  0.2176
 1537TIP3    H128806   0.192   2.500   9.708 -0.4778 -0.3996  0.2156
 1537TIP3    H228807   0.048   2.486   9.754 -0.4826 -0.3389  0.2196
 1538TIP3   OH228808   6.552   0.799   8.817 -0.1937 -0.3041 -0.6608
 1538TIP3    H128809   6.642   0.830   8.813 -0.4553  0.4705 -0.6676
 1538TIP3    H228810   6.528   0.805   8.909  0.6341 -3.1106 -0.1661
 1539TIP3   OH228811   4.345   0.347   8.703  0.0802  0.2130 -0.3899
 1539TIP3    H128812   4.332   0.255   8.728  3.2277 -0.5672 -1.1942
 1539TIP3    H228813   4.381   0.388   8.782  1.1009  0.0711 -0.7623
 1540TIP3   OH228814   0.609   2.951   8.958 -0.2850  0.7370  0.4032
 1540TIP3    H128815   0.527   2.942   8.908 -0.2804  0.0705  0.5076
 1540TIP3    H228816   0.589   2.910   9.042  0.2162  0.3970  0.3575
 1541TIP3   OH228817   7.506   1.815   8.692  0.5840 -0.1688  0.2460
 1541TIP3    H128818   7.491   1.752   8.621  0.1753  1.0851 -0.8033
 1541TIP3    H228819   7.592   1.852   8.674  0.5341  0.0629  0.4891
 1542TIP3   OH228820   3.507   7.341   8.535 -0.6359  0.4062  0.4949
 1542TIP3    H128821   3.544   7.428   8.518  0.9398  0.1655  2.3304
 1542TIP3    H228822   3.515   7.295   8.452  0.5123  1.3413  0.0502
 1543TIP3   OH228823   1.973   0.201   8.075  0.1446 -0.3763  0.7754
 1543TIP3    H128824   1.966   0.155   7.991  1.2547  0.3031  0.2958
 1543TIP3    H228825   1.986   0.293   8.051 -3.7695  0.5997  1.6909
 1544TIP3   OH228826   2.596   2.049   8.080  0.0324 -0.3133  0.4203
 1544TIP3    H128827   2.678   2.097   8.086  1.0543 -1.6304 -1.7626
 1544TIP3    H228828   2.620   1.957   8.091 -1.5728 -0.5678  2.3887
 1545TIP3   OH228829   7.226   4.768   8.905 -0.4094  0.4617  1.0430
 1545TIP3    H128830   7.140   4.729   8.919 -0.9921  1.7959  1.2577
 1545TIP3    H228831   7.270   4.708   8.844 -2.5429  1.2225 -1.3858
 1546TIP3   OH228832   3.269   4.904   8.617  0.2962 -0.2640 -0.1035
 1546TIP3    H128833   3.207   4.846   8.573 -0.8265  0.0772  0.9709
 1546TIP3    H228834   3.258   4.989   8.576  1.5248 -0.6270 -1.2773
 1547TIP3   OH228835   4.379   1.126   9.318  0.2485 -0.4079  0.5307
 1547TIP3    H128836   4.342   1.156   9.235 -0.2772  0.4877  1.0694
 1547TIP3    H228837   4.321   1.056   9.347 -1.2668  1.1599  1.5000
 1548TIP3   OH228838   1.203   5.235   9.283 -0.5067 -0.2533 -0.0556
 1548TIP3    H128839   1.158   5.245   9.199 -0.2274 -1.2728 -0.3474
 1548TIP3    H228840   1.291   5.205   9.259  0.2002  1.2531  0.5213
 1549TIP3   OH228841   6.888   0.029   9.392 -0.2761 -0.1275  0.4234
 1549TIP3    H128842   6.914   0.106   9.442  1.0087  0.4855 -1.0924
 1549TIP3    H228843   6.842   0.063   9.315  0.5108 -0.8163 -0.3875
 1550TIP3   OH228844   2.733   1.357   8.109 -0.0569 -0.6751 -0.4635
 1550TIP3    H128845   2.828   1.360   8.098 -0.0926 -1.8295 -1.2111
 1550TIP3    H228846   2.700   1.422   8.046  0.3171  2.0426  1.9198
 1551TIP3   OH228847   2.498   1.380   8.835 -0.1935  0.8746  0.2559
 1551TIP3    H128848   2.593   1.370   8.839 -0.4354 -4.1077  0.7181
 1551TIP3    H228849   2.475   1.350   8.746 -1.3607  0.2556  0.7484
 1552TIP3   OH228850   1.828   1.577   7.452 -0.4035  0.0591 -0.4698
 1552TIP3    H128851   1.835   1.653   7.510  0.7777  1.4359 -2.3086
 1552TIP3    H228852   1.795   1.507   7.509 -0.0871  1.5186  1.6496
 1553TIP3   OH228853   0.147   3.492   7.733 -0.5699  0.5404 -0.1662
 1553TIP3    H128854   0.052   3.489   7.729 -0.5395 -0.6090 -0.2559
 1553TIP3    H228855   0.174   3.522   7.646 -0.8426  0.6417 -0.2168
 1554TIP3   OH228856   1.998   6.182   9.039 -0.9256 -0.2534 -0.1550
 1554TIP3    H128857   2.028   6.095   9.012  0.0458  0.0769 -0.1781
 1554TIP3    H228858   2.028   6.191   9.130 -2.7365 -0.7015  0.5389
 1555TIP3   OH228859   4.387   3.177   8.121 -0.8121 -0.0343 -0.1602
 1555TIP3    H128860   4.433   3.212   8.197 -0.3850  1.4361 -1.0419
 1555TIP3    H228861   4.298   3.210   8.128 -0.5147  0.9568 -0.7798
 1556TIP3   OH228862   7.439   3.456   7.463 -0.3456  0.2843  0.0360
 1556TIP3    H128863   7.392   3.494   7.389 -0.2767 -0.9836 -0.6909
 1556TIP3    H228864   7.478   3.376   7.428  1.7996  0.9382  0.7991
 1557TIP3   OH228865   2.628   6.150   8.119 -0.3525 -0.0056 -0.3690
 1557TIP3    H128866   2.593   6.110   8.198 -2.2894 -0.2623 -1.3088
 1557TIP3    H228867   2.564   6.216   8.094  0.3042  0.1969 -1.6342
 1558TIP3   OH228868   5.741   0.922   7.290  0.1644 -0.1928  0.5937
 1558TIP3    H128869   5.699   0.952   7.209 -1.5045 -0.0664  1.4615
 1558TIP3    H228870   5.686   0.850   7.320  2.0301 -1.7355  0.4920
 1559TIP3   OH228871   4.064   6.009   7.187 -0.5985  0.5046 -0.8646
 1559TIP3    H128872   3.971   6.027   7.200 -0.6727 -0.2751 -0.2773
 1559TIP3    H228873   4.071   5.914   7.190  0.1821  0.5418 -1.1922
 1560TIP3   OH228874   2.796   3.804   7.430 -0.0355  0.5652  0.0823
 1560TIP3    H128875   2.845   3.723   7.414 -0.5184  0.3693 -0.4203
 1560TIP3    H228876   2.736   3.811   7.356 -2.2132 -0.2856  1.6344
 1561TIP3   OH228877   4.176   2.032   8.710 -0.1946  0.0132  0.0016
 1561TIP3    H128878   4.202   2.097   8.645 -2.2155  0.4869 -0.3858
 1561TIP3    H228879   4.162   2.083   8.790 -2.1980  0.1624 -0.4110
 1562TIP3   OH228880   3.018   6.709   7.219  0.8249  0.0306 -0.0643
 1562TIP3    H128881   3.095   6.694   7.275  1.8156 -1.2889 -1.6826
 1562TIP3    H228882   3.048   6.772   7.153  0.8224 -1.1377 -1.2178
 1563TIP3   OH228883   2.754   1.214   7.293  0.0287  0.4762 -0.1872
 1563TIP3    H128884   2.789   1.262   7.218  1.9104 -1.8817 -0.9150
 1563TIP3    H228885   2.708   1.140   7.255  0.7725 -0.6124  0.9670
 1564TIP3   OH228886   3.874   0.295   8.666  0.0218  0.2673 -0.0462
 1564TIP3    H128887   3.951   0.348   8.644  0.3592 -0.6123 -1.0800
 1564TIP3    H228888   3.908   0.205   8.671 -0.1197  0.2364  3.5452
 1565TIP3   OH228889   6.435   5.523   8.575  0.0392 -0.5200 -0.5613
 1565TIP3    H128890   6.520   5.494   8.610  0.3797 -0.6916 -1.5020
 1565TIP3    H228891   6.380   5.445   8.579 -0.2580 -0.2644  0.5777
 1566TIP3   OH228892   5.709   1.991   9.164  0.3576  0.8558  0.3081
 1566TIP3    H128893   5.718   1.958   9.075 -1.3187 -1.0231  0.7695
 1566TIP3    H228894   5.615   2.006   9.175  0.0052 -2.1870  2.7603
 1567TIP3   OH228895   4.275   2.269   8.600  0.0712  0.1951  0.6247
 1567TIP3    H128896   4.197   2.325   8.605  0.2029  0.4824 -0.3553
 1567TIP3    H228897   4.331   2.312   8.535 -0.4128 -1.7379 -1.1920
 1568TIP3   OH228898   3.905   6.548   7.566  0.0478 -0.1068 -0.1797
 1568TIP3    H128899   3.917   6.514   7.477  1.0030 -0.3727  0.0367
 1568TIP3    H228900   3.922   6.642   7.558  1.2395 -0.2983 -0.0948
 1569TIP3   OH228901   6.592   3.776   8.183  0.3924  0.3206  0.0901
 1569TIP3    H128902   6.645   3.711   8.230  0.2222  0.6955  0.8241
 1569TIP3    H228903   6.645   3.856   8.187 -0.1695  0.6714  0.7417
 1570TIP3   OH228904   5.963   5.898   8.164  0.3705 -0.4910  0.4960
 1570TIP3    H128905   6.046   5.896   8.213  0.7851 -0.1992 -0.1824
 1570TIP3    H228906   5.954   5.809   8.129  0.4989 -0.4719  0.4123
 1571TIP3   OH228907   0.614   5.090   8.101  0.2777 -0.2694  0.5730
 1571TIP3    H128908   0.634   5.002   8.131 -0.7160 -0.1056  1.8117
 1571TIP3    H228909   0.524   5.084   8.068  0.5597  0.0686 -0.2970
 1572TIP3   OH228910   4.528   3.546   8.327  0.2142  0.9123 -0.0287
 1572TIP3    H128911   4.457   3.497   8.285  1.2527 -0.1154 -0.6588
 1572TIP3    H228912   4.504   3.548   8.420  0.1916 -0.9621  0.0526
 1573TIP3   OH228913   0.830   6.888   7.453  0.0492  0.2509  0.5428
 1573TIP3    H128914   0.920   6.855   7.454 -0.0581 -0.0827 -0.0423
 1573TIP3    H228915   0.830   6.961   7.514  0.7135  0.2328  0.5688
 1574TIP3   OH228916   3.919   1.716   7.289 -0.0913 -0.3551  0.1140
 1574TIP3    H128917   3.931   1.718   7.195 -0.3520  1.4966  0.0997
 1574TIP3    H228918   4.000   1.750   7.325 -0.4867  0.1982  0.4993
 1575TIP3   OH228919   7.428   3.944   8.726  0.3200 -0.4646  0.3586
 1575TIP3    H128920   7.335   3.937   8.748  0.3828 -1.4756  0.3199
 1575TIP3    H228921   7.473   3.903   8.799  0.7501  0.1060  0.4182
 1576TIP3   OH228922   3.101   6.581   8.736  0.2450  0.5334 -0.3139
 1576TIP3    H128923   3.176   6.584   8.677  0.9746  0.7178  0.5903
 1576TIP3    H228924   3.098   6.668   8.775 -0.8908  0.7581 -0.8599
 1577TIP3   OH228925   4.044   5.242   7.260  0.2577 -0.0512 -0.1072
 1577TIP3    H128926   4.068   5.248   7.168  0.6146 -0.9707 -0.0840
 1577TIP3    H228927   4.002   5.326   7.280  0.0033  0.0784 -1.1499
 1578TIP3   OH228928   2.631   3.328   8.384 -0.0775  0.0117 -0.8217
 1578TIP3    H128929   2.655   3.420   8.392 -1.8520  0.4102  0.9377
 1578TIP3    H228930   2.670   3.287   8.461 -1.5385 -0.0950 -0.0845
 1579TIP3   OH228931   4.240   2.138   9.217 -0.0355 -0.3926 -0.2147
 1579TIP3    H128932   4.188   2.218   9.220  2.0041  0.9953  0.2443
 1579TIP3    H228933   4.319   2.159   9.267  0.6996 -2.6099 -0.3339
 1580TIP3   OH228934   0.080   2.063   8.224 -0.7029 -0.0932 -0.2765
 1580TIP3    H128935  -0.015   2.063   8.238 -0.6059 -0.1829  0.3878
 1580TIP3    H228936   0.103   2.156   8.220 -0.7312 -0.0630  0.1852
 1581TIP3   OH228937   7.262   6.305   9.244 -0.6797  0.1129  0.4915
 1581TIP3    H128938   7.196   6.269   9.304 -0.8451  0.0718  0.2884
 1581TIP3    H228939   7.212   6.330   9.166 -0.6886  1.4173  0.8788
 1582TIP3   OH228940   6.683   6.786   7.336  0.4248 -0.5687  0.1335
 1582TIP3    H128941   6.709   6.777   7.428 -0.4733  0.6547  0.5385
 1582TIP3    H228942   6.587   6.786   7.338  0.3920  0.1377 -0.7175
 1583TIP3   OH228943   1.908   5.863   9.310  0.2678 -0.1070 -0.2327
 1583TIP3    H128944   1.888   5.921   9.236 -0.6947  0.4714  0.4624
 1583TIP3    H228945   1.936   5.923   9.380 -1.1618 -0.4226  0.6385
 1584TIP3   OH228946   5.238   5.086   7.132  0.3862 -0.7282  0.4480
 1584TIP3    H128947   5.219   5.020   7.199  0.0336 -0.8283  0.2513
 1584TIP3    H228948   5.324   5.120   7.155 -0.0302 -0.2600  1.3721
 1585TIP3   OH228949   6.643   1.349   8.692 -0.4481  0.1279 -0.2898
 1585TIP3    H128950   6.718   1.320   8.744 -1.1104 -2.5084 -0.6709
 1585TIP3    H228951   6.681   1.378   8.609  0.5387  3.6215  1.1652
 1586TIP3   OH228952   0.561   5.387   9.237  0.0935 -0.1544 -0.2036
 1586TIP3    H128953   0.573   5.476   9.270  1.7853  0.0080 -1.1193
 1586TIP3    H228954   0.478   5.390   9.189 -0.0118  0.8546  0.0227
 1587TIP3   OH228955   2.535   6.800   8.891  0.0628  0.0414 -0.9076
 1587TIP3    H128956   2.593   6.848   8.832  0.3711  0.1652 -0.5150
 1587TIP3    H228957   2.594   6.742   8.940  0.3187  2.1680  1.5185
 1588TIP3   OH228958   7.105   0.939   9.251 -0.1470 -0.1531 -0.2455
 1588TIP3    H128959   7.128   0.968   9.340  1.0075  1.2169 -0.9468
 1588TIP3    H228960   7.189   0.936   9.205 -0.8778  0.7358 -1.7161
 1589TIP3   OH228961   0.811   1.042   6.889 -0.1618  0.0846  0.4266
 1589TIP3    H128962   0.857   0.961   6.866  1.4417  1.2170 -0.5069
 1589TIP3    H228963   0.773   1.072   6.807 -1.2574  0.0076  0.8873
 1590TIP3   OH228964   0.917   2.741   8.174 -0.4442 -0.7484 -0.6796
 1590TIP3    H128965   0.991   2.736   8.235 -0.5009  0.0476 -0.5329
 1590TIP3    H228966   0.889   2.832   8.178  0.7492 -0.1876 -3.3271
 1591TIP3   OH228967   5.063   3.979   8.838  0.0189  0.3894  0.6565
 1591TIP3    H128968   5.125   4.048   8.812 -0.6021  1.0237  0.8233
 1591TIP3    H228969   5.019   3.955   8.756  0.6202 -0.2050  0.5028
 1592TIP3   OH228970   3.762   1.578   9.489 -0.1821 -0.2476  0.2786
 1592TIP3    H128971   3.690   1.551   9.432 -0.8975 -0.4356  1.2403
 1592TIP3    H228972   3.841   1.541   9.448 -0.5326  0.5207 -1.1388
 1593TIP3   OH228973   6.128   7.035   7.823 -0.3454 -0.7651 -0.0270
 1593TIP3    H128974   6.109   7.032   7.729  0.5926  0.7048 -0.3025
 1593TIP3    H228975   6.183   6.958   7.839  0.5204 -0.3615 -0.9485
 1594TIP3   OH228976   1.369   0.661   9.294  0.7197  0.8836  0.9160
 1594TIP3    H128977   1.461   0.656   9.270  1.0574 -0.5219  2.3889
 1594TIP3    H228978   1.327   0.592   9.243  1.1987 -1.1425  3.1207
 1595TIP3   OH228979   5.075   0.928   7.364  0.1369 -0.1532 -0.0056
 1595TIP3    H128980   4.982   0.942   7.345 -0.1284 -2.5831 -0.7936
 1595TIP3    H228981   5.081   0.936   7.460 -0.7416  0.6868 -0.0070
 1596TIP3   OH228982   7.448   1.852   8.032  0.4361 -0.3126  0.4223
 1596TIP3    H128983   7.502   1.914   7.983 -2.5575  2.3659  0.1616
 1596TIP3    H228984   7.392   1.812   7.966  0.0027 -0.6954  1.0110
 1597TIP3   OH228985   5.799   5.280   8.988  0.0757  0.3896  0.0655
 1597TIP3    H128986   5.884   5.303   9.026 -0.1986  0.6367  0.5354
 1597TIP3    H228987   5.735   5.317   9.048 -0.3714 -0.3154  0.0303
 1598TIP3   OH228988   4.953   1.564   7.491 -0.5358  0.6043 -0.4199
 1598TIP3    H128989   4.874   1.585   7.441 -0.6166 -0.0472 -0.5797
 1598TIP3    H228990   4.926   1.568   7.582 -1.1724 -1.1499 -0.5019
 1599TIP3   OH228991   5.488   1.832   8.179  0.0375  0.4417 -0.1030
 1599TIP3    H128992   5.492   1.816   8.085  1.3112  0.6353 -0.0966
 1599TIP3    H228993   5.407   1.790   8.207 -1.0163  1.4422 -1.4869
 1600TIP3   OH228994   0.654   2.268   8.735  0.8641  0.1506  0.4367
 1600TIP3    H128995   0.710   2.199   8.700  0.7318  0.5070 -0.5341
 1600TIP3    H228996   0.676   2.345   8.683  1.5944  1.0738  2.0554
 1601TIP3   OH228997   3.044   3.336   9.215  0.0707  0.1570  0.0539
 1601TIP3    H128998   3.119   3.376   9.171 -0.0337  0.2933 -0.0046
 1601TIP3    H228999   2.997   3.411   9.253 -1.4021  0.3519 -2.0194
 1602TIP3   OH229000   7.568   1.329   9.040  0.7069  0.4051 -0.1275
 1602TIP3    H129001   7.532   1.400   9.093  0.5477 -1.3133  2.1903
 1602TIP3    H229002   7.510   1.255   9.056  0.5072 -0.1830 -2.9717
 1603TIP3   OH229003   6.368   1.087   7.938  0.3863 -0.7139  0.1921
 1603TIP3    H129004   6.463   1.090   7.925  0.2596  1.6958 -0.6613
 1603TIP3    H229005   6.346   1.171   7.977 -1.5196 -0.8897 -0.4012
 1604TIP3   OH229006   0.005   5.410   7.732 -0.1103  0.0600 -0.3446
 1604TIP3    H129007   0.027   5.434   7.822 -0.3522  2.9167 -0.9742
 1604TIP3    H229008  -0.044   5.328   7.741 -0.7204  0.6109  2.2085
 1605TIP3   OH229009   6.031   4.336   7.638 -0.6119  0.2409  0.0545
 1605TIP3    H129010   6.003   4.249   7.611 -0.7886 -0.2427  1.7066
 1605TIP3    H229011   5.951   4.380   7.667 -0.2207  0.1192  1.3973
 1606TIP3   OH229012   4.801   1.198   8.331 -0.6841  0.2782  0.2010
 1606TIP3    H129013   4.725   1.142   8.347 -0.8849  0.5536  0.2031
 1606TIP3    H229014   4.827   1.228   8.417 -1.7113  1.6881  0.0520
 1607TIP3   OH229015   0.740   6.540   8.810 -0.7718  0.3050  0.1777
 1607TIP3    H129016   0.763   6.501   8.895  1.3198  1.4453  0.2023
 1607TIP3    H229017   0.762   6.473   8.746 -0.5359  0.1422  0.4274
 1608TIP3   OH229018   0.264   4.764   8.282  0.0408  0.1960  0.3548
 1608TIP3    H129019   0.353   4.766   8.316  0.4680  2.3215 -0.6882
 1608TIP3    H229020   0.274   4.780   8.188 -1.3998 -0.2221  0.1104
 1609TIP3   OH229021   0.236   5.089   8.238 -0.7326 -0.5345 -0.1281
 1609TIP3    H129022   0.181   5.116   8.311  0.9085 -0.1802  1.0354
 1609TIP3    H229023   0.319   5.063   8.279  1.1950  2.1566 -2.0042
 1610TIP3   OH229024   5.841   3.471   8.198  0.0375  0.0490  0.6825
 1610TIP3    H129025   5.831   3.392   8.145  0.7666  0.1298  0.4138
 1610TIP3    H229026   5.903   3.445   8.267 -0.9885 -0.0903  1.5698
 1611TIP3   OH229027   3.977   2.661   7.789  0.0154 -0.0080 -0.2861
 1611TIP3    H129028   3.929   2.678   7.870  0.0800  1.5858 -0.5448
 1611TIP3    H229029   4.026   2.742   7.773  1.4810 -0.9773 -0.9330
 1612TIP3   OH229030   0.979   0.412   8.983 -0.0710 -0.9221 -0.3435
 1612TIP3    H129031   0.981   0.336   8.924  0.9223 -1.2130  0.0325
 1612TIP3    H229032   1.068   0.415   9.019 -0.3500 -0.0745  0.2827
 1613TIP3   OH229033   6.801   0.373   7.904  0.0278 -0.6240  0.3056
 1613TIP3    H129034   6.888   0.395   7.940  0.4254 -1.2268 -0.2590
 1613TIP3    H229035   6.808   0.280   7.882 -0.1063 -0.2211 -1.5651
 1614TIP3   OH229036   4.220   6.858   8.502  0.0650 -0.4550 -0.3943
 1614TIP3    H129037   4.200   6.921   8.434 -2.3117 -1.2079 -0.4991
 1614TIP3    H229038   4.240   6.911   8.579 -0.1939  0.4027 -0.9095
 1615TIP3   OH229039   5.136   6.488   8.562 -0.8291 -0.0219  0.3457
 1615TIP3    H129040   5.166   6.449   8.480  0.7476  2.0265 -0.1384
 1615TIP3    H229041   5.080   6.421   8.601 -1.3855 -1.1825 -2.2282
 1616TIP3   OH229042   2.894   0.054   8.760 -0.1828  0.1494  0.1037
 1616TIP3    H129043   2.961   0.095   8.705 -0.0428  0.0240  0.1793
 1616TIP3    H229044   2.852   0.126   8.806  2.5421  0.0444  3.1275
 1617TIP3   OH229045   3.697   7.358   9.128 -0.0380 -0.5889 -0.2075
 1617TIP3    H129046   3.636   7.417   9.173  1.0865  0.7104 -0.3500
 1617TIP3    H229047   3.780   7.369   9.175  0.3545 -1.5901 -0.6422
 1618TIP3   OH229048   0.774   2.697   8.828 -0.0307 -0.5380 -0.3909
 1618TIP3    H129049   0.705   2.676   8.765  0.1497 -2.7715  0.0881
 1618TIP3    H229050   0.846   2.640   8.804  0.1394 -1.2499  1.6694
 1619TIP3   OH229051   1.849   2.656   9.441 -0.0145  0.1459 -0.0780
 1619TIP3    H129052   1.820   2.651   9.350  0.5679 -2.1727 -0.1877
 1619TIP3    H229053   1.782   2.709   9.484 -0.8202  0.4699 -1.6399
 1620TIP3   OH229054   4.195   7.256   7.162 -0.2050  0.1936  0.3231
 1620TIP3    H129055   4.270   7.229   7.216 -1.3558 -0.8894  1.4539
 1620TIP3    H229056   4.234   7.297   7.085  1.6749 -2.8537 -0.5167
 1621TIP3   OH229057   0.005   4.646   7.689 -0.4591 -0.2593 -0.1812
 1621TIP3    H129058   0.015   4.706   7.616  2.1695  1.2451  1.2740
 1621TIP3    H229059  -0.021   4.702   7.763  1.3971 -0.9307  1.0499
 1622TIP3   OH229060   7.202   0.578   8.966  0.5139 -0.8143 -0.0137
 1622TIP3    H129061   7.188   0.666   8.931 -1.4350 -1.3439 -0.6816
 1622TIP3    H229062   7.276   0.544   8.916  1.0305  0.2811 -0.0254
 1623TIP3   OH229063   0.332   1.200   7.911  0.3333 -0.6150  0.7103
 1623TIP3    H129064   0.236   1.209   7.910  0.5155  2.6410  1.3738
 1623TIP3    H229065   0.352   1.154   7.829 -1.7285 -0.7564  0.2128
 1624TIP3   OH229066   5.968   0.708   9.101  0.2006  0.1353  0.5706
 1624TIP3    H129067   5.972   0.633   9.041  0.0726 -1.1543  2.0986
 1624TIP3    H229068   5.971   0.785   9.044  0.2305 -1.0257 -1.0636
 1625TIP3   OH229069   1.292   1.349   8.907 -0.3563 -0.4336  0.3208
 1625TIP3    H129070   1.351   1.325   8.978 -0.2161 -0.8587  0.0605
 1625TIP3    H229071   1.304   1.281   8.841  1.2761  1.1733 -1.1508
 1626TIP3   OH229072   2.345   6.721   2.066  0.4811 -0.6167 -0.4240
 1626TIP3    H129073   2.389   6.767   2.137  0.5540  0.9468 -1.4389
 1626TIP3    H229074   2.404   6.729   1.991 -0.8126  0.1809 -1.3993
 1627TIP3   OH229075   4.013   1.816   7.824  0.3336 -0.2672 -0.0919
 1627TIP3    H129076   3.920   1.822   7.848 -0.4825 -2.8025 -2.1339
 1627TIP3    H229077   4.054   1.770   7.897 -0.2373 -0.1574  0.3052
 1628TIP3   OH229078   3.305   1.812   8.910  0.5876  0.0726  0.3419
 1628TIP3    H129079   3.353   1.882   8.867  1.4695 -0.1393  0.9700
 1628TIP3    H229080   3.214   1.826   8.884  1.0580  0.0985 -1.3867
 1629TIP3   OH229081   3.612   1.196   7.695 -0.0822  0.0087 -0.0365
 1629TIP3    H129082   3.665   1.269   7.728 -0.1176 -0.1751  0.4237
 1629TIP3    H229083   3.673   1.123   7.689 -0.5700 -0.5796  1.7954
 1630TIP3   OH229084   7.094   1.029   8.056  0.4252  0.4810 -0.5889
 1630TIP3    H129085   7.047   0.946   8.066  0.5260  0.4832 -0.0307
 1630TIP3    H229086   7.047   1.090   8.113  0.0852  0.9226 -1.3405
 1631TIP3   OH229087   6.844   4.363   7.639  0.2546  0.6258  0.5222
 1631TIP3    H129088   6.824   4.418   7.714 -0.2638 -0.1818  0.9894
 1631TIP3    H229089   6.789   4.285   7.651  0.6339  0.2111 -0.3593
 1632TIP3   OH229090   4.069   3.654   8.844  0.4266 -0.6111  0.0353
 1632TIP3    H129091   4.074   3.711   8.921  1.4683 -1.0409  0.3165
 1632TIP3    H229092   4.025   3.707   8.777 -0.2253 -0.1274  0.8312
 1633TIP3   OH229093   5.150   3.708   8.912 -0.1460 -0.6288  0.2153
 1633TIP3    H129094   5.164   3.785   8.857  0.0843  0.0795  1.2258
 1633TIP3    H229095   5.060   3.682   8.894 -0.0145 -0.5329 -0.6310
 1634TIP3   OH229096   0.906   4.319   8.206  0.4357  0.0047  0.2348
 1634TIP3    H129097   0.853   4.360   8.275 -0.6853 -0.2670 -0.4255
 1634TIP3    H229098   0.971   4.385   8.183  1.7115 -0.3820  2.4396
 1635TIP3   OH229099   5.852   5.040   7.444 -0.3082 -0.4104 -0.4061
 1635TIP3    H129100   5.757   5.039   7.430 -0.4176 -0.0899  0.2557
 1635TIP3    H229101   5.873   4.951   7.475 -1.4299  0.9616  5.5593
 1636TIP3   OH229102   1.011   7.651   7.323 -0.4513 -0.3830 -0.5023
 1636TIP3    H129103   1.058   7.589   7.380 -0.5020  0.1238  0.0998
 1636TIP3    H229104   0.979   7.597   7.251  2.1355 -0.5645 -1.6334
 1637TIP3   OH229105   4.787   1.906   7.189  0.4323  0.5805  0.1320
 1637TIP3    H129106   4.799   2.000   7.174 -1.0673  0.6140 -1.0704
 1637TIP3    H229107   4.692   1.895   7.197  0.6125 -0.7880  0.6853
 1638TIP3   OH229108   3.643   5.391   9.666  1.0639 -0.4089 -0.1913
 1638TIP3    H129109   3.627   5.299   9.647 -0.4427 -0.1609 -0.2171
 1638TIP3    H229110   3.597   5.407   9.749  1.2106  0.3521 -0.2517
 1639TIP3   OH229111   2.752   0.926   7.757  0.1872 -0.0260 -0.0250
 1639TIP3    H129112   2.706   1.010   7.752  1.4752  0.6471 -0.9323
 1639TIP3    H229113   2.834   0.941   7.712  1.0773 -1.3771  1.0766
 1640TIP3   OH229114   3.767   0.837   7.559 -0.4153 -0.5117 -0.0762
 1640TIP3    H129115   3.827   0.905   7.590 -0.8438  0.2658 -0.9126
 1640TIP3    H229116   3.821   0.779   7.506 -0.4982  0.5555 -1.3760
 1641TIP3   OH229117   6.397   2.118   9.391  0.1494 -0.7311  0.0891
 1641TIP3    H129118   6.338   2.082   9.325  1.1728 -2.7376  0.2084
 1641TIP3    H229119   6.432   2.042   9.437  0.2981  0.5480  2.2571
 1642TIP3   OH229120   4.996   0.998   8.838  0.4382 -0.3299 -0.2870
 1642TIP3    H129121   5.015   1.007   8.931 -0.6049  1.1777 -0.1784
 1642TIP3    H229122   5.051   1.063   8.795 -0.3925  0.2512 -0.5100
 1643TIP3   OH229123   1.137   5.551   8.757 -0.0741 -0.2527  0.2414
 1643TIP3    H129124   1.099   5.638   8.766  0.4201  0.2368 -1.8957
 1643TIP3    H229125   1.225   5.566   8.724  0.6396 -1.5256  1.4701
 1644TIP3   OH229126   5.909   1.544   7.191 -0.9304  0.3140 -0.2825
 1644TIP3    H129127   5.958   1.476   7.145 -0.0039  0.0421  1.0475
 1644TIP3    H229128   5.868   1.499   7.264  0.5496  1.2929  1.2439
 1645TIP3   OH229129   3.067   5.365   7.430 -0.0024  0.0677 -1.0333
 1645TIP3    H129130   3.147   5.395   7.473 -1.7691  4.2884 -0.1822
 1645TIP3    H229131   3.068   5.408   7.344 -1.4384  0.4269 -0.8967
 1646TIP3   OH229132   3.922   6.291   8.153  0.1131 -0.1842 -0.4343
 1646TIP3    H129133   3.955   6.201   8.153  1.7096  0.3533  1.0533
 1646TIP3    H229134   3.993   6.342   8.113 -1.0891  0.3478 -1.9696
 1647TIP3   OH229135   4.220   0.770   7.971 -0.4676  0.0375  0.3375
 1647TIP3    H129136   4.281   0.757   7.898 -0.2273  0.9658  0.3609
 1647TIP3    H229137   4.268   0.825   8.033 -0.9258 -0.1637  0.8797
 1648TIP3   OH229138   5.183   2.432   7.321  0.7638 -0.3522 -0.3875
 1648TIP3    H129139   5.151   2.364   7.262  0.0102  0.2481 -0.6883
 1648TIP3    H229140   5.206   2.505   7.263  0.5637  0.0348  0.0208
 1649TIP3   OH229141   7.012   5.992   8.751  0.3706 -0.5251  0.1958
 1649TIP3    H129142   6.999   5.919   8.690  1.6543 -0.2611 -0.4098
 1649TIP3    H229143   7.023   5.949   8.836 -2.3146 -0.8605  0.4799
 1650TIP3   OH229144   7.564   3.595   7.936 -0.2657  0.3984 -0.3965
 1650TIP3    H129145   7.582   3.569   7.846 -1.0118 -3.3076  0.3724
 1650TIP3    H229146   7.640   3.566   7.985 -1.1133 -0.3455  0.5328
 1651TIP3   OH229147   0.151   3.188   9.625  0.0548  0.0779  0.0328
 1651TIP3    H129148   0.161   3.283   9.632  0.7585 -0.0393  0.6213
 1651TIP3    H229149   0.080   3.167   9.685 -0.0284  0.2161 -0.0161
 1652TIP3   OH229150   7.252   4.153   8.409 -0.3374  0.8417  0.3172
 1652TIP3    H129151   7.268   4.062   8.386 -0.0990  0.6618  1.1817
 1652TIP3    H229152   7.191   4.184   8.342 -1.7485 -0.4248  0.9704
 1653TIP3   OH229153   1.715   3.281   9.260  0.2443  0.1396  0.6844
 1653TIP3    H129154   1.627   3.265   9.226  0.3234  1.9422 -0.5215
 1653TIP3    H229155   1.773   3.262   9.186  0.9767 -1.7529  1.6853
 1654TIP3   OH229156   1.178   2.699   8.308 -0.1342 -0.2934 -0.6323
 1654TIP3    H129157   1.255   2.706   8.252  1.1205 -1.0484  0.9308
 1654TIP3    H229158   1.170   2.785   8.349  0.5541 -0.5393  0.0334
 1655TIP3   OH229159   4.541   1.710   8.109 -0.1831 -0.5335 -0.2434
 1655TIP3    H129160   4.570   1.792   8.069 -0.6340 -0.2764 -0.0434
 1655TIP3    H229161   4.513   1.734   8.197 -2.5846 -0.4571 -0.9521
 1656TIP3   OH229162   1.102   0.761   8.219  0.1776  0.2860  0.2467
 1656TIP3    H129163   1.142   0.838   8.261  0.2997 -0.0343  0.7249
 1656TIP3    H229164   1.088   0.788   8.128  0.7324  0.6803  0.2715
 1657TIP3   OH229165   1.382   3.895   8.323 -0.0285 -0.0068 -0.3172
 1657TIP3    H129166   1.389   3.820   8.264 -1.3382  0.0859 -0.6195
 1657TIP3    H229167   1.468   3.936   8.319  0.2955 -0.7250 -1.1851
 1658TIP3   OH229168   0.538   5.012   7.204 -0.2287 -0.1071 -0.1202
 1658TIP3    H129169   0.540   4.945   7.136  0.6009  1.1169 -1.3452
 1658TIP3    H229170   0.619   5.062   7.191 -0.6590  0.9257  0.9745
 1659TIP3   OH229171   3.229   1.238   7.443 -0.6470  0.2164 -1.0566
 1659TIP3    H129172   3.250   1.219   7.535 -0.8045 -2.2544 -1.4776
 1659TIP3    H229173   3.140   1.204   7.432 -0.5923  0.4159 -2.1534
 1660TIP3   OH229174   3.153   7.661   7.291 -0.0712  0.4466  0.3736
 1660TIP3    H129175   3.191   7.743   7.321 -1.1392  0.5443  1.4776
 1660TIP3    H229176   3.203   7.640   7.212  2.7627  0.2287  2.0795
 1661TIP3   OH229177   4.706   6.843   6.572  0.0337  0.3053  0.0910
 1661TIP3    H129178   4.784   6.896   6.556 -0.1841  0.8616  0.8207
 1661TIP3    H229179   4.740   6.758   6.602  0.3701  0.8959  1.4713
 1662TIP3   OH229180   5.729   7.277   9.313  0.4379  0.3737  0.5159
 1662TIP3    H129181   5.746   7.190   9.349 -0.4961  0.7070  1.8641
 1662TIP3    H229182   5.809   7.301   9.267  2.4993  0.6127  3.8814
 1663TIP3   OH229183   2.312   1.828   7.972  0.2917 -0.1326  0.3602
 1663TIP3    H129184   2.292   1.859   8.060  0.1960 -0.8491  0.5945
 1663TIP3    H229185   2.243   1.865   7.917  0.7903  0.9671  0.4394
 1664TIP3   OH229186   4.181   2.492   7.950  0.3882 -0.0692 -0.4215
 1664TIP3    H129187   4.103   2.538   7.920  0.4075 -0.7911 -1.6514
 1664TIP3    H229188   4.148   2.413   7.991  0.1357  2.2307  4.4914
 1665TIP3   OH229189   2.406   1.129   6.869 -0.2249  0.3516 -0.2027
 1665TIP3    H129190   2.386   1.077   6.947 -0.4356 -1.7129 -1.5713
 1665TIP3    H229191   2.501   1.126   6.861 -0.3062 -0.7681 -0.8759
 1666TIP3   OH229192   5.071   3.269   9.071  0.4706  0.4752 -0.5633
 1666TIP3    H129193   5.156   3.302   9.041  2.5882 -3.5871  0.3250
 1666TIP3    H229194   5.031   3.231   8.993  1.0019 -0.5114 -0.3617
 1667TIP3   OH229195   7.603   6.449   8.638  0.8004  0.1526  0.0569
 1667TIP3    H129196   7.527   6.506   8.646 -0.1063 -0.5592 -2.4583
 1667TIP3    H229197   7.678   6.504   8.662 -0.4397  0.7953  2.8039
 1668TIP3   OH229198   4.799   1.812   8.718 -0.4896 -0.3800  0.3128
 1668TIP3    H129199   4.841   1.899   8.718 -2.2923  0.5397 -0.2046
 1668TIP3    H229200   4.749   1.809   8.800  0.5533 -1.4744  0.9389
 1669TIP3   OH229201   7.449   2.829   9.343 -0.0017  0.4788  0.1573
 1669TIP3    H129202   7.536   2.813   9.305 -0.6477  0.0716 -1.1799
 1669TIP3    H229203   7.425   2.916   9.311  0.0062  0.7115  0.7566
 1670TIP3   OH229204   2.772   0.335   8.031  0.0897  0.4125 -0.4100
 1670TIP3    H129205   2.710   0.348   8.103  2.4362  1.5707  1.5326
 1670TIP3    H229206   2.795   0.423   8.004  1.0016  0.0042 -0.9894
 1671TIP3   OH229207   3.231   1.180   8.940 -0.1568 -0.4956  0.0571
 1671TIP3    H129208   3.231   1.210   9.031 -1.0602  1.5620 -0.5417
 1671TIP3    H229209   3.223   1.085   8.946 -1.8146 -0.3180  2.1319
 1672TIP3   OH229210   1.698   2.608   8.249 -0.2323  0.4828 -0.3469
 1672TIP3    H129211   1.686   2.528   8.198  1.8452  0.4344 -0.8495
 1672TIP3    H229212   1.765   2.586   8.314 -0.9658  1.3043  0.7286
 1673TIP3   OH229213   0.818   2.435   6.708  0.4736  0.0530  0.0526
 1673TIP3    H129214   0.831   2.382   6.629  0.1046 -0.4928  0.3500
 1673TIP3    H229215   0.902   2.478   6.722  0.8008 -0.5002 -0.1648
 1674TIP3   OH229216   0.010   6.064   7.161 -0.6441 -0.2484 -0.0571
 1674TIP3    H129217  -0.002   5.969   7.163  2.3830 -0.7355  1.0052
 1674TIP3    H229218   0.022   6.085   7.069  1.2892 -1.3774 -0.1117
 1675TIP3   OH229219   5.443   7.241   8.207 -0.0076 -0.3419  0.5142
 1675TIP3    H129220   5.450   7.280   8.120 -1.5200  1.2175  1.0205
 1675TIP3    H229221   5.425   7.148   8.191 -0.5509 -0.0228 -0.8515
 1676TIP3   OH229222   7.387   0.080   7.628  0.2298 -0.3055  0.4574
 1676TIP3    H129223   7.464   0.136   7.627 -1.0970  1.6208 -0.2443
 1676TIP3    H229224   7.422  -0.009   7.632  2.4721  0.4935  0.0651
 1677TIP3   OH229225   1.307   4.453   9.195  0.0882 -0.5824  0.7458
 1677TIP3    H129226   1.286   4.360   9.196  0.7306 -0.7434  2.0728
 1677TIP3    H229227   1.241   4.493   9.251  0.0392 -0.2990  0.4830
 1678TIP3   OH229228   6.177   1.958   7.508 -0.4641 -0.1037  0.1318
 1678TIP3    H129229   6.093   1.913   7.521  0.2939 -2.1597 -1.5136
 1678TIP3    H229230   6.172   1.993   7.420  0.1361  0.3884  0.2888
 1679TIP3   OH229231   5.978   4.322   7.303  0.0132  0.2567 -0.1991
 1679TIP3    H129232   5.961   4.397   7.360 -2.4705 -0.6709  0.3866
 1679TIP3    H229233   5.988   4.360   7.215  0.0258  1.3699  0.2725
 1680TIP3   OH229234   0.086   3.604   9.207  0.7074 -0.1817  0.5922
 1680TIP3    H129235   0.117   3.688   9.172  1.7624 -0.3473  1.0862
 1680TIP3    H229236   0.071   3.622   9.300  2.4427 -0.9179  1.0380
 1681TIP3   OH229237   6.817   0.954   9.817 -0.2558 -0.1323 -0.3770
 1681TIP3    H129238   6.850   0.895   9.749 -1.4391 -0.7647 -0.4318
 1681TIP3    H229239   6.722   0.944   9.813 -0.3664  0.0909  1.1225
 1682TIP3   OH229240   6.520   2.612   7.563 -0.1775 -0.3070  0.2097
 1682TIP3    H129241   6.525   2.517   7.556  0.8655 -0.2478 -0.0888
 1682TIP3    H229242   6.483   2.628   7.650 -0.2347 -0.9842  0.3128
 1683TIP3   OH229243   2.875   6.106   9.396 -0.0547  0.6880 -0.0540
 1683TIP3    H129244   2.781   6.119   9.386 -0.0235  0.0169 -1.5068
 1683TIP3    H229245   2.899   6.048   9.323  1.0789 -1.2083  1.7388
 1684TIP3   OH229246   5.446   0.229   7.477 -0.1770  0.1101 -0.2577
 1684TIP3    H129247   5.428   0.277   7.397  0.7091 -0.5878 -0.8917
 1684TIP3    H229248   5.364   0.231   7.526  0.1346  3.3744  0.3730
 1685TIP3   OH229249   5.601   3.511   7.948 -0.6559  0.2304  0.4670
 1685TIP3    H129250   5.561   3.481   7.866  0.9283  1.2629 -0.7627
 1685TIP3    H229251   5.528   3.541   8.001 -1.7478 -0.6602 -0.4921
 1686TIP3   OH229252   1.038   4.596   7.809 -0.1892  0.3101  0.3541
 1686TIP3    H129253   1.102   4.648   7.858  1.2273  0.3847 -1.4370
 1686TIP3    H229254   1.060   4.505   7.828  0.2106  0.3400  0.0411
 1687TIP3   OH229255   5.941   4.903   8.366  0.7507  0.0462 -0.2433
 1687TIP3    H129256   5.859   4.877   8.409  0.1573  1.6818 -0.3019
 1687TIP3    H229257   5.997   4.932   8.438  0.7284  0.3074 -0.3308
 1688TIP3   OH229258   2.053   2.341   7.985  0.5412 -0.2192 -0.8700
 1688TIP3    H129259   2.089   2.255   8.008  1.3471  0.2459 -0.3199
 1688TIP3    H229260   1.979   2.322   7.929 -0.3069 -1.3554  0.5553
 1689TIP3   OH229261   1.784   2.383   7.181  0.1172  0.2618  0.1890
 1689TIP3    H129262   1.739   2.306   7.215 -2.1020  0.2462 -2.4328
 1689TIP3    H229263   1.747   2.456   7.232 -3.7466  0.3417 -2.2998
 1690TIP3   OH229264   4.272   1.341   8.775  0.5372  0.0393 -0.4189
 1690TIP3    H129265   4.223   1.265   8.743 -0.4402 -0.3073  1.7137
 1690TIP3    H229266   4.206   1.411   8.782  0.9334  0.3893 -0.1467
 1691TIP3   OH229267   3.850   4.277   7.183 -0.6028 -0.3343  0.1481
 1691TIP3    H129268   3.822   4.285   7.092 -0.8506  0.9490  0.3242
 1691TIP3    H229269   3.813   4.354   7.227  0.6057 -0.2304  1.0434
 1692TIP3   OH229270   6.212   5.455   7.189  0.2958  0.5346  0.6979
 1692TIP3    H129271   6.201   5.366   7.156  0.7568  0.3484  1.0271
 1692TIP3    H229272   6.208   5.446   7.285 -0.5888  1.0015  0.7129
 1693TIP3   OH229273   6.012   6.511   7.675  0.9879 -0.0903 -0.5754
 1693TIP3    H129274   6.056   6.480   7.595  0.1602  0.3225 -1.2097
 1693TIP3    H229275   5.957   6.438   7.702  1.1322 -0.1652 -0.4823
 1694TIP3   OH229276   3.306   1.231   8.479 -0.0391  0.3919 -0.1149
 1694TIP3    H129277   3.358   1.187   8.412  0.4910 -0.5807  0.8980
 1694TIP3    H229278   3.254   1.296   8.431 -0.7006 -1.1967 -1.6537
 1695TIP3   OH229279   4.210   5.500   7.785 -0.2496 -0.3136  0.9820
 1695TIP3    H129280   4.277   5.569   7.789  0.5542 -1.1039  1.7150
 1695TIP3    H229281   4.137   5.534   7.836 -0.0009  0.1460  1.0370
 1696TIP3   OH229282   2.975   1.327   9.449  0.0171 -0.8340  0.4372
 1696TIP3    H129283   2.919   1.377   9.391  0.0354 -0.0726  1.0537
 1696TIP3    H229284   3.058   1.375   9.449  1.6890 -3.3886 -2.5945
 1697TIP3   OH229285   3.038   6.643   9.317 -0.0641  0.3281  0.0757
 1697TIP3    H129286   3.019   6.597   9.235  0.6523 -0.0935  0.1336
 1697TIP3    H229287   3.083   6.723   9.290  0.1799  0.1849  0.0593
 1698TIP3   OH229288   3.214   0.655   7.526 -0.0058  0.0989 -0.1207
 1698TIP3    H129289   3.236   0.641   7.434  0.1615  0.4345 -0.1289
 1698TIP3    H229290   3.160   0.579   7.548 -0.6021  0.3431 -0.6787
 1699TIP3   OH229291   2.728   0.607   9.584 -0.1120  0.1075 -0.3077
 1699TIP3    H129292   2.655   0.544   9.587 -1.0698  1.1618 -0.8513
 1699TIP3    H229293   2.807   0.552   9.587 -0.9144 -1.0217  0.9900
 1700TIP3   OH229294   1.738   4.034   7.529 -0.0032  0.3478 -0.3436
 1700TIP3    H129295   1.833   4.045   7.521  0.2562 -1.2227  0.2479
 1700TIP3    H229296   1.705   4.045   7.440  0.8888 -0.4034 -0.7814
 1701TIP3   OH229297   2.433   5.447   7.473 -0.0450 -0.8829  0.0013
 1701TIP3    H129298   2.490   5.489   7.408  0.1984  1.6589  1.7137
 1701TIP3    H229299   2.493   5.402   7.532 -0.0657 -0.9155 -0.0021
 1702TIP3   OH229300   2.354   0.740   6.816  0.0387 -0.7790  0.2006
 1702TIP3    H129301   2.264   0.745   6.849 -0.4514 -2.4552 -0.7484
 1702TIP3    H229302   2.372   0.646   6.812  2.0677 -0.4666  0.9381
 1703TIP3   OH229303   4.497   1.048   7.728 -0.3879  0.1149 -0.5293
 1703TIP3    H129304   4.510   0.998   7.808  2.2179 -0.0063 -0.9333
 1703TIP3    H229305   4.542   1.132   7.744  0.8437 -0.1993 -2.0590
 1704TIP3   OH229306   5.401   4.801   8.223 -0.0747 -0.1751 -0.2403
 1704TIP3    H129307   5.475   4.795   8.163 -0.1985 -1.5840 -0.3060
 1704TIP3    H229308   5.329   4.760   8.175 -0.8147  0.8486 -0.0396
 1705TIP3   OH229309   4.116   4.644   9.404  0.5910  0.1060 -0.1898
 1705TIP3    H129310   4.057   4.717   9.423  0.0749 -0.4888  0.5788
 1705TIP3    H229311   4.089   4.614   9.317  1.5985  1.5584 -1.0402
 1706TIP3   OH229312   4.809   6.303   7.338 -0.5219  0.2136  0.3918
 1706TIP3    H129313   4.743   6.235   7.353 -0.9583  0.6150  0.2991
 1706TIP3    H229314   4.761   6.374   7.295  0.4225 -0.4227 -1.8632
 1707TIP3   OH229315   2.117   7.353   7.516  0.2033  0.2333  0.0228
 1707TIP3    H129316   2.022   7.348   7.508 -0.0718  3.0892  0.6235
 1707TIP3    H229317   2.132   7.405   7.595  2.0948  3.9174 -2.4582
 1708TIP3   OH229318   5.086   5.154   8.508  0.2816 -0.2045 -0.2064
 1708TIP3    H129319   5.109   5.067   8.477  0.2275  0.4125 -2.0987
 1708TIP3    H229320   5.021   5.186   8.445 -0.3811  0.8661  0.9572
 1709TIP3   OH229321   0.560   4.825   8.767  0.7009 -0.5339 -0.3280
 1709TIP3    H129322   0.515   4.881   8.703 -0.4555 -0.5045  0.4805
 1709TIP3    H229323   0.541   4.736   8.738 -1.6070 -0.5800  1.0724
 1710TIP3   OH229324   4.384   5.637   8.442  0.1705 -0.4621  0.5516
 1710TIP3    H129325   4.350   5.548   8.440 -0.9818 -0.0691  1.3958
 1710TIP3    H229326   4.307   5.692   8.461  1.1324  0.5389  1.7803
 1711TIP3   OH229327   3.238   1.597   7.344  0.5504  0.0931  0.6950
 1711TIP3    H129328   3.145   1.576   7.354  1.0060 -1.8629  1.1751
 1711TIP3    H229329   3.245   1.689   7.370 -2.1484  2.3090 -4.7229
 1712TIP3   OH229330   3.251   2.676   6.578  0.1609  0.0110 -0.1025
 1712TIP3    H129331   3.172   2.633   6.613  0.4706 -0.1605  0.3977
 1712TIP3    H229332   3.320   2.611   6.586  0.1272 -0.2471 -1.6100
 1713TIP3   OH229333   1.070   2.379   8.021  0.0325  0.1728 -0.0584
 1713TIP3    H129334   1.064   2.284   8.026 -0.6838  0.2352  0.4481
 1713TIP3    H229335   1.162   2.399   8.038  0.3970 -0.4813 -1.1714
 1714TIP3   OH229336   6.591   6.871   8.288  0.5734  0.2379 -0.2791
 1714TIP3    H129337   6.619   6.936   8.224  1.4361 -0.1367 -0.2889
 1714TIP3    H229338   6.498   6.889   8.301  1.0623  2.3623  0.7332
 1715TIP3   OH229339   1.383   3.047   9.268  0.3670  0.1393 -0.5822
 1715TIP3    H129340   1.337   3.027   9.349 -0.0063  0.8157 -0.6234
 1715TIP3    H229341   1.327   3.011   9.199  0.5484 -0.1915 -0.5595
 1716TIP3   OH229342   1.853   5.772   8.898 -0.6323  0.5426  0.1646
 1716TIP3    H129343   1.778   5.735   8.945 -1.4343 -0.5469 -1.8168
 1716TIP3    H229344   1.854   5.724   8.815  0.6877  2.3476 -0.9211
 1717TIP3   OH229345   2.962   1.057   9.521 -0.0691  0.2026 -0.2678
 1717TIP3    H129346   2.892   1.039   9.584 -0.5773 -1.8146 -1.2958
 1717TIP3    H229347   2.956   1.151   9.504 -1.6594  0.3096  0.6834
 1718TIP3   OH229348   4.444   6.830   7.307 -0.0002  0.3172  0.1741
 1718TIP3    H129349   4.512   6.882   7.265 -0.7961  2.1672  1.0691
 1718TIP3    H229350   4.420   6.764   7.241  0.2933  1.7499 -1.4425
 1719TIP3   OH229351   6.358   4.827   9.036  0.4434  0.6096 -0.3077
 1719TIP3    H129352   6.298   4.900   9.055 -0.6698 -0.2966 -0.2265
 1719TIP3    H229353   6.411   4.858   8.964  0.4685  1.7683  0.1872
 1720TIP3   OH229354   2.487   6.585   8.247 -0.2123  0.6057  0.0614
 1720TIP3    H129355   2.413   6.645   8.263  0.1820  1.1982 -0.3013
 1720TIP3    H229356   2.564   6.641   8.254  0.2676 -0.1657  1.2511
 1721TIP3   OH229357   7.061   2.000   7.836 -0.2198  0.2300 -0.2227
 1721TIP3    H129358   7.036   1.935   7.771 -1.4162  0.9143 -0.4933
 1721TIP3    H229359   7.117   2.061   7.788  1.4746 -0.9299  0.2037
 1722TIP3   OH229360   2.075   1.096   8.895 -0.4355 -0.7114  1.1660
 1722TIP3    H129361   2.092   1.016   8.944  0.1978  0.9815  3.9318
 1722TIP3    H229362   2.162   1.130   8.874 -0.6814 -1.4533 -1.4494
 1723TIP3   OH229363   2.246   4.469   7.986 -0.5609 -0.0199  0.3121
 1723TIP3    H129364   2.280   4.415   8.058 -0.8340 -1.9643 -0.9677
 1723TIP3    H229365   2.319   4.527   7.963  0.6413 -1.5958  0.0525
 1724TIP3   OH229366   3.286   3.426   9.113  0.2507 -0.1571  0.5677
 1724TIP3    H129367   3.372   3.394   9.084 -0.9220 -1.5740 -1.7365
 1724TIP3    H229368   3.279   3.513   9.075  1.0186  0.3926  1.6238
 1725TIP3   OH229369   5.939   1.053   8.071 -0.0886 -0.4693 -0.5250
 1725TIP3    H129370   6.029   1.034   8.046  0.4583  1.0115  0.2166
 1725TIP3    H229371   5.943   1.073   8.164 -1.7363 -3.5755  0.3285
 1726TIP3   OH229372   7.470   1.252   9.339 -0.1891  0.0747 -0.3114
 1726TIP3    H129373   7.407   1.264   9.410  0.7281  0.1339  0.5011
 1726TIP3    H229374   7.416   1.222   9.265 -1.2488  0.6608  0.1937
 1727TIP3   OH229375   0.827   5.243   9.234  0.3517  0.4576 -0.1649
 1727TIP3    H129376   0.846   5.284   9.150 -0.4921 -0.0634 -0.6309
 1727TIP3    H229377   0.743   5.281   9.261  1.3500  1.7798  1.2205
 1728TIP3   OH229378   6.892   1.136   8.204  0.0489 -0.0558 -0.3829
 1728TIP3    H129379   6.822   1.202   8.205  1.5016  1.5640  0.8512
 1728TIP3    H229380   6.878   1.085   8.284  0.9750  1.1026  0.5508
 1729TIP3   OH229381   1.008   3.828   9.463 -0.1376  0.1375 -0.1887
 1729TIP3    H129382   1.071   3.775   9.414 -0.3789 -0.2985 -0.0273
 1729TIP3    H229383   0.976   3.892   9.399 -0.7771 -0.7069 -0.7375
 1730TIP3   OH229384   2.486   6.248   9.356 -0.4026 -0.1192 -0.3379
 1730TIP3    H129385   2.525   6.261   9.443 -0.0583 -1.4512 -0.2807
 1730TIP3    H229386   2.552   6.282   9.296  0.5176 -1.5531 -0.1913
 1731TIP3   OH229387   2.224   1.897   9.589 -0.2174  0.2412  0.1146
 1731TIP3    H129388   2.287   1.862   9.652  0.8493  1.1530 -0.4068
 1731TIP3    H229389   2.278   1.933   9.519 -1.1532  3.1174  0.6969
 1732TIP3   OH229390   4.320   4.580   8.868  0.3779 -0.4036 -0.0666
 1732TIP3    H129391   4.299   4.644   8.800  1.6617  0.3068  0.1720
 1732TIP3    H229392   4.320   4.630   8.949  0.5639 -0.8836  0.2307
 1733TIP3   OH229393   1.789   7.245   8.672  0.3435  0.0857 -0.8326
 1733TIP3    H129394   1.865   7.300   8.651  0.9661  0.1079  1.3041
 1733TIP3    H229395   1.826   7.163   8.703 -0.3697  0.7759  2.1322
 1734TIP3   OH229396   4.328   1.460   7.406  0.0329 -0.2179 -0.3268
 1734TIP3    H129397   4.246   1.426   7.372 -2.0316  0.4690  3.4419
 1734TIP3    H229398   4.361   1.517   7.336 -1.5944 -2.0166 -2.7281
 1735TIP3   OH229399   3.812   1.207   8.633  0.0576 -0.2729  0.6643
 1735TIP3    H129400   3.780   1.285   8.678  0.9353 -0.3281  1.3939
 1735TIP3    H229401   3.760   1.204   8.552 -0.8308  0.3831  1.1926
 1736TIP3   OH229402   2.232   7.038   7.377  0.1896 -0.3067  0.0257
 1736TIP3    H129403   2.239   6.981   7.453 -2.0218  0.1897  0.6787
 1736TIP3    H229404   2.318   7.078   7.368  0.4533 -0.2150  2.4237
 1737TIP3   OH229405   0.170   3.322   7.463 -0.2565 -0.5273 -0.0319
 1737TIP3    H129406   0.081   3.357   7.473 -0.1382 -0.8613  2.7498
 1737TIP3    H229407   0.222   3.396   7.433 -1.3194 -0.1881 -1.1399
 1738TIP3   OH229408   2.388   6.693   7.842 -0.0842  0.2525  0.2078
 1738TIP3    H129409   2.405   6.776   7.885 -0.0117 -0.0844  0.8390
 1738TIP3    H229410   2.471   6.645   7.848 -0.2905 -0.0926  0.3712
 1739TIP3   OH229411   1.585   3.553   7.132 -0.3046  0.2240 -0.3566
 1739TIP3    H129412   1.510   3.546   7.073 -1.3765  0.3905  0.9198
 1739TIP3    H229413   1.637   3.474   7.116 -1.4930 -0.5948 -0.3005
 1740TIP3   OH229414   5.104   7.607   7.771 -0.1575 -0.1811  0.1551
 1740TIP3    H129415   5.149   7.657   7.703 -0.4027  3.4442  2.4067
 1740TIP3    H229416   5.174   7.577   7.830 -0.0879 -1.9765 -0.7648
 1741TIP3   OH229417   4.437   7.209   7.266  0.0771 -0.7734 -0.3864
 1741TIP3    H129418   4.433   7.189   7.360 -1.5375 -1.4057 -0.5597
 1741TIP3    H229419   4.473   7.130   7.227  0.9885 -0.4159 -0.2850
 1742TIP3   OH229420   4.752   4.114   8.033 -0.1231 -1.0500  0.1936
 1742TIP3    H129421   4.800   4.069   7.963  1.3452  2.7493 -1.5283
 1742TIP3    H229422   4.660   4.108   8.006  0.2857 -0.8865 -1.3159
 1743TIP3   OH229423   2.835   7.630   7.108 -0.3333  0.1206 -0.0476
 1743TIP3    H129424   2.855   7.574   7.033  0.2451 -0.1999  0.3348
 1743TIP3    H229425   2.897   7.602   7.176  1.6582  2.7846 -0.6028
 1744TIP3   OH229426   6.159   2.523   7.415 -0.3670 -0.6566 -0.3987
 1744TIP3    H129427   6.222   2.451   7.412 -0.2858 -0.8304  2.4690
 1744TIP3    H229428   6.074   2.480   7.424 -0.5543 -0.4037 -0.9376
 1745TIP3   OH229429   0.059   6.004   7.679 -0.9132 -0.7587 -0.0350
 1745TIP3    H129430   0.013   6.028   7.759 -0.3544 -0.6915  0.2723
 1745TIP3    H229431   0.097   5.918   7.698  2.3505  0.7738  1.1848
 1746TIP3   OH229432   6.131   5.849   8.562 -0.5761 -0.1626  0.3866
 1746TIP3    H129433   6.137   5.842   8.467 -0.1271 -1.9882  0.5091
 1746TIP3    H229434   6.104   5.940   8.578 -0.3773  0.2584 -1.4528
 1747TIP3   OH229435   2.428   1.507   8.340 -0.5341  0.1776 -0.0992
 1747TIP3    H129436   2.390   1.551   8.264  2.1890  0.8550 -1.1891
 1747TIP3    H229437   2.465   1.578   8.393  0.5610 -0.5198  0.0918
 1748TIP3   OH229438   4.735   4.061   9.051  0.1124 -0.5650 -0.4231
 1748TIP3    H129439   4.666   4.011   9.008  1.1526 -1.0295 -1.6447
 1748TIP3    H229440   4.792   3.994   9.089 -0.9674 -0.1522  2.0586
 1749TIP3   OH229441   2.919   3.936   8.711 -0.0107  0.3163 -0.3720
 1749TIP3    H129442   2.975   4.013   8.712 -1.6799  1.5999  0.7136
 1749TIP3    H229443   2.837   3.966   8.752 -0.9469 -1.8567 -0.5344
 1750TIP3   OH229444   3.053   4.837   8.098  0.2040 -0.1524 -0.3212
 1750TIP3    H129445   3.026   4.746   8.110 -0.2850 -0.0597 -0.6688
 1750TIP3    H229446   3.111   4.836   8.022 -0.5625 -0.0437 -0.9208
 1751TIP3   OH229447   4.674   4.966   7.611  0.2993  0.2548  0.0790
 1751TIP3    H129448   4.768   4.976   7.625  0.4482  0.2889 -0.8346
 1751TIP3    H229449   4.635   5.041   7.656  0.6142 -0.3310  1.3552
 1752TIP3   OH229450   4.270   3.196   8.789  0.4448 -0.0213 -0.0160
 1752TIP3    H129451   4.281   3.162   8.878 -0.4578 -1.3701 -0.3804
 1752TIP3    H229452   4.241   3.286   8.800 -0.0951 -0.3129  1.0707
 1753TIP3   OH229453   2.173   6.396   9.030  0.4200  0.0476 -0.7557
 1753TIP3    H129454   2.178   6.440   8.945 -1.0247  1.2212 -0.2678
 1753TIP3    H229455   2.106   6.329   9.018 -0.6498  0.9932 -0.2448
 1754TIP3   OH229456   4.743   5.935   7.362 -0.0110 -0.1409 -0.0512
 1754TIP3    H129457   4.729   5.976   7.277 -2.7312  0.6310  0.6695
 1754TIP3    H229458   4.731   5.841   7.346  1.6358 -0.2631 -0.8407
 1755TIP3   OH229459   4.694   0.478   6.505  0.4924  0.2421  0.3123
 1755TIP3    H129460   4.645   0.414   6.454 -0.0676  0.2589  0.8174
 1755TIP3    H229461   4.756   0.425   6.555  2.3891  0.3628 -1.7781
 1756TIP3   OH229462   4.558   2.649   8.505 -0.4545 -0.5416 -0.0205
 1756TIP3    H129463   4.550   2.744   8.497 -0.2070 -0.5561 -0.4317
 1756TIP3    H229464   4.548   2.633   8.599  1.3355  0.0794  0.3344
 1757TIP3   OH229465   2.388   0.990   8.120  0.6528 -0.1355  0.3888
 1757TIP3    H129466   2.368   0.972   8.212 -0.7324  0.7354  0.2795
 1757TIP3    H229467   2.424   1.079   8.120  0.6147 -0.1206  0.0785
 1758TIP3   OH229468   1.605   2.598   9.608 -0.0404  0.4094 -0.4998
 1758TIP3    H129469   1.579   2.662   9.541 -1.1915  0.1888 -0.2828
 1758TIP3    H229470   1.566   2.632   9.689 -3.2385 -1.9891 -0.8313
 1759TIP3   OH229471   1.078   7.054   8.661 -0.0593  0.0885  0.5873
 1759TIP3    H129472   1.156   7.094   8.697  0.7065 -0.3528 -0.5169
 1759TIP3    H229473   1.073   6.968   8.704  1.4783 -0.9055 -1.0369
 1760TIP3   OH229474   3.584   0.665   9.464 -0.0428  0.5737  0.0940
 1760TIP3    H129475   3.548   0.753   9.476  0.1171  0.7182 -0.4568
 1760TIP3    H229476   3.670   0.680   9.425 -0.2745  0.1471 -0.5881
 1761TIP3   OH229477   7.034   2.330   8.895 -0.4192 -0.1520 -0.0170
 1761TIP3    H129478   7.119   2.340   8.851 -0.8711 -0.6286 -1.0322
 1761TIP3    H229479   7.005   2.419   8.913 -0.7073  0.1133 -1.6662
 1762TIP3   OH229480   5.869   4.130   7.495 -0.4650  0.1444  0.2246
 1762TIP3    H129481   5.864   4.190   7.421 -0.5649 -2.4984 -2.0869
 1762TIP3    H229482   5.783   4.136   7.537 -0.4855  1.5300  0.0300
 1763TIP3   OH229483   7.449   6.261   7.537 -0.3886  0.3299 -0.3352
 1763TIP3    H129484   7.404   6.343   7.557 -0.8588  0.7811 -2.9526
 1763TIP3    H229485   7.539   6.275   7.566 -1.2732  0.2628  2.8492
 1764TIP3   OH229486   7.220   7.548   8.198  0.5861 -0.0225 -0.3167
 1764TIP3    H129487   7.294   7.582   8.147  1.5583  1.1171  1.6811
 1764TIP3    H229488   7.247   7.459   8.221  0.2752 -0.4349 -1.4859
 1765TIP3   OH229489   5.378   2.357   8.211  0.2384 -0.5271 -0.2677
 1765TIP3    H129490   5.366   2.361   8.116 -0.7170  0.0994 -0.1301
 1765TIP3    H229491   5.323   2.426   8.245  0.9446 -0.4368  0.7260
 1766TIP3   OH229492   6.262   2.178   8.472 -0.3412  0.0722 -0.1825
 1766TIP3    H129493   6.280   2.121   8.547 -1.8743  0.6226  0.6461
 1766TIP3    H229494   6.178   2.145   8.438 -0.7520  1.2025 -0.2922
 1767TIP3   OH229495   4.249   7.582   9.226 -0.5639 -0.8618  0.2690
 1767TIP3    H129496   4.258   7.538   9.311  4.4771 -0.4056  0.2544
 1767TIP3    H229497   4.249   7.511   9.162  1.5683 -1.1626  0.5181
 1768TIP3   OH229498   3.404   4.831   8.869  0.0064 -0.1978  0.3953
 1768TIP3    H129499   3.346   4.755   8.865 -1.3080  0.7564  0.7664
 1768TIP3    H229500   3.406   4.865   8.780 -0.5103  0.1280  0.5053
 1769TIP3   OH229501   3.223   3.217   8.249  0.2948  0.2047 -0.6940
 1769TIP3    H129502   3.252   3.194   8.337  0.4915 -2.0605 -1.3034
 1769TIP3    H229503   3.163   3.291   8.262  1.3053  0.7372  1.1929
 1770TIP3   OH229504   1.507   4.787   9.039 -0.7101 -0.2960  0.5383
 1770TIP3    H129505   1.507   4.791   8.943  0.1031 -0.3155  0.5324
 1770TIP3    H229506   1.540   4.699   9.059  0.4589  0.1960  0.8422
 1771TIP3   OH229507   2.825   6.498   7.193 -0.2655 -0.4660 -0.0713
 1771TIP3    H129508   2.898   6.558   7.180  0.2731 -1.3577 -1.4028
 1771TIP3    H229509   2.755   6.553   7.228  0.3909  0.8191 -0.6954
 1772TIP3   OH229510   6.098   7.370   7.657  0.1504 -0.4235  0.5038
 1772TIP3    H129511   6.034   7.441   7.657  0.7012  0.0849  0.0089
 1772TIP3    H229512   6.095   7.335   7.745  0.7997  1.0789  1.1646
 1773TIP3   OH229513   0.114   6.910   9.175 -0.3164  0.1169 -0.2830
 1773TIP3    H129514   0.169   6.837   9.204 -0.8538 -0.9545 -1.8407
 1773TIP3    H229515   0.060   6.873   9.105 -1.4798  1.7080 -0.2721
 1774TIP3   OH229516   4.386   7.597   7.643  0.4023  0.2525  1.1205
 1774TIP3    H129517   4.299   7.634   7.659  0.0869  0.1352 -0.2221
 1774TIP3    H229518   4.368   7.513   7.601  1.1604  1.1520 -1.1224
 1775TIP3   OH229519   1.903   6.254   7.765  0.0107  0.6759  0.0090
 1775TIP3    H129520   1.962   6.180   7.749 -1.0633 -0.2511  0.1626
 1775TIP3    H229521   1.944   6.302   7.837  0.1673 -0.4363  0.7057
 1776TIP3   OH229522   3.930   6.021   9.377  0.4174 -0.3423 -0.0304
 1776TIP3    H129523   3.988   6.084   9.335 -0.7117  0.7209 -0.0550
 1776TIP3    H229524   3.974   5.999   9.459  1.4732 -0.5863 -0.6408
 1777TIP3   OH229525   7.521   0.715   9.454 -0.3316 -0.2481 -0.2930
 1777TIP3    H129526   7.520   0.809   9.471 -1.0117 -0.4917  1.2336
 1777TIP3    H229527   7.432   0.695   9.426 -1.1122 -0.8642  2.3582
 1778TIP3   OH229528   6.353   7.579   6.557  0.2006  0.1367  0.0128
 1778TIP3    H129529   6.274   7.556   6.606 -1.0504  1.4425 -1.2702
 1778TIP3    H229530   6.379   7.665   6.590 -0.2011  0.6769 -1.0224
 1779TIP3   OH229531   6.265   4.310   8.601  0.0054  0.2244 -0.3016
 1779TIP3    H129532   6.351   4.271   8.585  0.2122  0.8691 -0.7774
 1779TIP3    H229533   6.205   4.260   8.545  0.4148  1.1766 -1.6268
 1780TIP3   OH229534   1.493   7.301   8.006  1.0616 -0.0971 -0.0698
 1780TIP3    H129535   1.560   7.266   8.064  0.9089  0.7838  0.6645
 1780TIP3    H229536   1.506   7.256   7.923 -0.1910 -3.1405  1.2424
 1781TIP3   OH229537   7.549   3.796   8.961  0.0573  0.2100  0.2346
 1781TIP3    H129538   7.633   3.750   8.957 -0.5897 -0.9318 -0.7678
 1781TIP3    H229539   7.573   3.888   8.975  1.4016 -0.3113  1.6912
 1782TIP3   OH229540   4.744   3.249   7.629 -0.1030 -0.5144 -0.1982
 1782TIP3    H129541   4.697   3.300   7.562 -0.7295 -2.3161 -1.1969
 1782TIP3    H229542   4.793   3.184   7.579 -0.8656 -2.1448  1.0885
 1783TIP3   OH229543   0.458   3.081   8.437  0.0780 -0.9398 -0.1677
 1783TIP3    H129544   0.547   3.112   8.418 -0.1151  0.2509  0.8122
 1783TIP3    H229545   0.407   3.110   8.361 -0.0170  0.8748  0.5336
 1784TIP3   OH229546   0.264   1.053   8.650 -0.1302  0.4656  0.4850
 1784TIP3    H129547   0.200   1.057   8.579  0.0387 -0.2773  0.2823
 1784TIP3    H229548   0.333   0.995   8.617 -0.3737 -0.4367  1.5176
 1785TIP3   OH229549   0.510   5.614   8.978 -1.0357 -0.6357 -0.5078
 1785TIP3    H129550   0.489   5.676   9.049  0.2256  0.4825 -1.0557
 1785TIP3    H229551   0.430   5.564   8.965 -0.7800 -2.3212  3.0825
 1786TIP3   OH229552   3.167   4.645   8.917  0.1085 -0.0252  0.5311
 1786TIP3    H129553   3.118   4.628   8.837  0.3977 -1.6603  0.6709
 1786TIP3    H229554   3.101   4.644   8.986 -0.6078  4.0621  0.1728
 1787TIP3   OH229555   4.086   1.254   7.854  0.1999  0.5866 -0.4182
 1787TIP3    H129556   4.148   1.319   7.886  1.9353 -0.5927 -1.1876
 1787TIP3    H229557   4.090   1.262   7.759  1.8368 -1.7469 -0.6344
 1788TIP3   OH229558   5.296   7.343   7.288  0.0548  0.8102  0.0622
 1788TIP3    H129559   5.259   7.259   7.260  0.7913  0.5044 -0.0439
 1788TIP3    H229560   5.247   7.366   7.367 -1.8291  1.5190 -1.2562
 1789TIP3   OH229561   2.366   1.347   7.322 -0.1180 -0.2862  0.4768
 1789TIP3    H129562   2.302   1.363   7.392 -0.3997 -1.3696  0.4965
 1789TIP3    H229563   2.449   1.379   7.358 -0.4826  0.2972  0.8151
 1790TIP3   OH229564   0.411   3.608   7.022 -0.0850  0.0006 -0.4414
 1790TIP3    H129565   0.440   3.516   7.021  0.1555 -0.0507  2.7095
 1790TIP3    H229566   0.478   3.654   6.971 -0.4578 -1.5664 -2.4766
 1791TIP3   OH229567   2.152   5.272   6.730 -0.3010 -0.2861  0.1049
 1791TIP3    H129568   2.111   5.342   6.679  1.1737 -1.4538 -2.8967
 1791TIP3    H229569   2.098   5.194   6.712 -0.9684 -0.3410  2.0870
 1792TIP3   OH229570   4.621   6.348   8.491 -0.0334  0.3339  0.1576
 1792TIP3    H129571   4.672   6.426   8.470 -1.5001  1.2389 -0.2102
 1792TIP3    H229572   4.680   6.275   8.475  0.6224  1.2517 -1.9582
 1793TIP3   OH229573   3.279   7.228   7.354  0.2452 -0.0678  0.1091
 1793TIP3    H129574   3.273   7.291   7.426 -0.9335  0.3626 -0.3459
 1793TIP3    H229575   3.252   7.277   7.277  1.7287 -0.4498 -0.7006
 1794TIP3   OH229576   4.749   2.815   8.722  0.1009  0.7406 -0.1813
 1794TIP3    H129577   4.728   2.779   8.809 -2.8389  2.2682 -0.1169
 1794TIP3    H229578   4.800   2.894   8.741  1.7162 -0.3005 -0.0345
 1795TIP3   OH229579   7.433   4.692   8.005 -0.6293  0.2704  0.0975
 1795TIP3    H129580   7.502   4.652   8.057 -1.8499  0.8131  2.2596
 1795TIP3    H229581   7.396   4.760   8.062 -1.4452  1.5634 -1.8485
 1796TIP3   OH229582   2.430   4.995   8.273  0.1180 -0.0149  0.2094
 1796TIP3    H129583   2.494   4.975   8.342  0.5373  1.5417  0.3162
 1796TIP3    H229584   2.483   5.028   8.200 -0.4398 -0.2854 -0.3297
 1797TIP3   OH229585   7.250   3.550   7.674 -0.1431 -0.6996  0.2597
 1797TIP3    H129586   7.170   3.576   7.627 -0.6377  0.5559  1.7106
 1797TIP3    H229587   7.304   3.508   7.607 -0.4747  1.6815 -1.6520
 1798TIP3   OH229588   1.222   1.979   8.397 -0.5851 -0.2387 -0.7362
 1798TIP3    H129589   1.285   1.909   8.407 -3.1296 -2.6981 -0.6361
 1798TIP3    H229590   1.208   1.985   8.302 -2.0318 -1.5747 -0.6507
 1799TIP3   OH229591   3.038   7.085   7.488 -0.6301  0.3533  0.1974
 1799TIP3    H129592   3.103   7.122   7.428  0.7034  1.1557  2.0190
 1799TIP3    H229593   2.983   7.160   7.512 -1.1441  0.0408  0.0093
 1800TIP3   OH229594   2.118   3.689   7.712 -0.1776 -0.0719  0.2028
 1800TIP3    H129595   2.186   3.746   7.675  0.5741 -0.3298  1.1402
 1800TIP3    H229596   2.052   3.683   7.643  2.2707 -2.5167 -2.1938
 1801TIP3   OH229597   1.759   3.680   9.031 -0.1261  0.0944 -0.5627
 1801TIP3    H129598   1.778   3.728   9.112 -0.7817  0.3422 -0.5529
 1801TIP3    H229599   1.775   3.743   8.961 -1.2042  0.4112 -0.5402
 1802TIP3   OH229600   7.468   2.367   7.831 -0.0569 -0.2296  0.0273
 1802TIP3    H129601   7.518   2.356   7.912 -0.2213 -2.3589 -0.1057
 1802TIP3    H229602   7.459   2.461   7.821  2.3854  0.1789  0.9870
 1803TIP3   OH229603   6.266   5.664   8.731  0.5574 -0.0300  0.2190
 1803TIP3    H129604   6.326   5.621   8.670  1.8799  2.5508 -0.4534
 1803TIP3    H229605   6.236   5.742   8.684 -1.6796 -0.1154  1.3703
 1804TIP3   OH229606   0.986   6.048   8.796 -0.0544 -0.0380  0.1041
 1804TIP3    H129607   1.057   6.098   8.756 -0.6479 -0.8514 -2.1597
 1804TIP3    H229608   0.984   6.077   8.887  0.8407  2.6138 -0.6277
 1805TIP3   OH229609   2.230   7.459   8.011 -0.1172  0.0884 -0.1984
 1805TIP3    H129610   2.262   7.389   8.068  0.0978  1.1852  1.0447
 1805TIP3    H229611   2.179   7.516   8.068  1.1046  1.8785 -0.8378
 1806TIP3   OH229612   7.589   5.714   8.595  0.3963  0.0668  0.1497
 1806TIP3    H129613   7.616   5.794   8.548  0.9298  0.4559  1.0859
 1806TIP3    H229614   7.493   5.718   8.596  0.4331  1.5560  1.5808
 1807TIP3   OH229615   1.413   7.025   9.536 -0.0610 -0.4389 -0.6435
 1807TIP3    H129616   1.409   6.932   9.515  2.1293 -0.7473  0.0226
 1807TIP3    H229617   1.371   7.068   9.462 -0.5897 -1.9072 -1.2451
 1808TIP3   OH229618   6.856   4.551   7.436 -0.2719 -0.3089  0.2835
 1808TIP3    H129619   6.921   4.586   7.374 -1.5305  0.9414 -0.3934
 1808TIP3    H229620   6.899   4.475   7.475  1.4315  0.2198 -0.4493
 1809TIP3   OH229621   3.152   5.572   9.734  0.1790  0.1378  0.3989
 1809TIP3    H129622   3.089   5.518   9.687 -0.3483  1.9015 -1.0597
 1809TIP3    H229623   3.102   5.649   9.762  1.9250  2.7208 -2.7759
 1810TIP3   OH229624   0.814   3.909   7.734 -0.2265 -0.0361  0.8292
 1810TIP3    H129625   0.903   3.883   7.712 -0.7166 -0.3887 -0.9371
 1810TIP3    H229626   0.764   3.827   7.728 -1.1299  0.5861 -1.0608
 1811TIP3   OH229627   3.345   2.813   8.947  0.7409  0.5823 -0.3125
 1811TIP3    H129628   3.349   2.827   9.041  2.1998  1.1593 -0.4429
 1811TIP3    H229629   3.410   2.745   8.929 -1.0739 -1.1475 -0.6498
 1812TIP3   OH229630   2.522   0.240   9.209  1.1141  0.1469  0.0984
 1812TIP3    H129631   2.594   0.296   9.236  1.3378 -0.1691  0.1706
 1812TIP3    H229632   2.468   0.295   9.152  2.1546 -0.0065 -1.0879
 1813TIP3   OH229633   1.250   1.164   6.497  1.1138  0.5135 -0.1022
 1813TIP3    H129634   1.216   1.239   6.544 -0.5530  0.6251 -1.3885
 1813TIP3    H229635   1.322   1.199   6.444  0.9783  1.0067  0.0358
 1814TIP3   OH229636   6.045   0.636   8.293  0.0374 -0.2210 -0.1285
 1814TIP3    H129637   6.013   0.694   8.224  1.0983 -0.6080 -0.9791
 1814TIP3    H229638   5.972   0.628   8.354 -0.2889  1.6232 -0.2292
 1815TIP3   OH229639   0.250   2.114   7.625 -0.2391  0.0383 -0.0641
 1815TIP3    H129640   0.309   2.122   7.700  2.1377  0.2776 -1.8286
 1815TIP3    H229641   0.219   2.023   7.628 -0.7326  0.2360  1.5460
 1816TIP3   OH229642   5.886   5.981   7.780 -0.3248 -0.1239  0.1738
 1816TIP3    H129643   5.811   6.019   7.735 -2.3990 -2.3459  1.5485
 1816TIP3    H229644   5.853   5.899   7.818  2.9663 -1.5318  0.3179
 1817TIP3   OH229645   6.516   4.289   7.882 -0.2034 -0.2319 -0.9146
 1817TIP3    H129646   6.562   4.211   7.850  0.4280 -0.1785 -0.1588
 1817TIP3    H229647   6.572   4.323   7.952 -2.3779 -1.4151  1.5902
 1818TIP3   OH229648   3.689   4.216   6.939  0.3362  0.7857 -0.4934
 1818TIP3    H129649   3.594   4.225   6.949  0.3160  0.0919 -0.0068
 1818TIP3    H229650   3.701   4.175   6.854  0.0170 -2.0425  0.7231
 1819TIP3   OH229651   1.798   6.722   7.765  0.1357  0.3711 -0.2794
 1819TIP3    H129652   1.767   6.635   7.790  0.6593  0.6626  1.4711
 1819TIP3    H229653   1.720   6.777   7.768  0.0324  0.2187 -0.1710
 1820TIP3   OH229654   2.094   6.427   6.789  0.4353  0.2069 -0.0954
 1820TIP3    H129655   2.025   6.482   6.754 -0.0960 -0.0543  0.5332
 1820TIP3    H229656   2.154   6.488   6.832  1.2480  0.5667 -1.6657
 1821TIP3   OH229657   0.332   5.609   7.735  0.0466  0.0989  0.3929
 1821TIP3    H129658   0.398   5.678   7.737 -0.2326  0.3503  1.1840
 1821TIP3    H229659   0.381   5.528   7.750  0.1713  0.3014  1.1463
 1822TIP3   OH229660   3.403   2.469   8.779  0.4222  0.7737 -0.1413
 1822TIP3    H129661   3.470   2.509   8.834  1.3767 -0.6277 -0.2407
 1822TIP3    H229662   3.339   2.434   8.841  0.9063  0.2151  0.0590
 1823TIP3   OH229663   1.281   1.122   8.748 -0.3984  0.1795  0.6103
 1823TIP3    H129664   1.228   1.043   8.740  0.4579 -0.2299 -1.5805
 1823TIP3    H229665   1.366   1.091   8.778  0.2620  0.0711 -1.2492
 1824TIP3   OH229666   1.831   0.990   8.930  0.2055  0.7374 -0.2206
 1824TIP3    H129667   1.906   1.039   8.963  1.0921  0.6548 -1.9807
 1824TIP3    H229668   1.806   1.036   8.850 -0.8573  0.0548 -0.2950
 1825TIP3   OH229669   0.503   7.526   9.627 -0.3337  0.5445 -0.1768
 1825TIP3    H129670   0.578   7.472   9.651 -0.7488  0.9599  2.3176
 1825TIP3    H229671   0.539   7.613   9.613  0.0995  0.0469 -2.5992
 1826TIP3   OH229672   0.936   6.259   9.590  0.3049 -0.3179 -0.3599
 1826TIP3    H129673   1.017   6.263   9.642  0.3952 -0.4330 -0.4929
 1826TIP3    H229674   0.884   6.332   9.623 -0.2122 -1.1946  0.8415
 1827TIP3   OH229675   0.345   4.231   8.860  1.0906 -0.3142  0.1221
 1827TIP3    H129676   0.293   4.308   8.884 -1.9849 -1.2919 -2.6555
 1827TIP3    H229677   0.406   4.219   8.933  1.3287  4.3195  0.9569
 1828TIP3   OH229678   3.213   2.541   8.260  0.0380  0.1053 -0.0520
 1828TIP3    H129679   3.174   2.624   8.286  0.2478  0.7248 -1.6267
 1828TIP3    H229680   3.297   2.538   8.307 -0.2953  0.4246  0.5792
 1829TIP3   OH229681   2.375   1.659   8.819 -0.6595  0.8381  0.2469
 1829TIP3    H129682   2.358   1.691   8.908 -1.2445  2.9713 -0.5513
 1829TIP3    H229683   2.410   1.571   8.831  1.1583  1.7634  2.7032
 1830TIP3   OH229684   4.011   5.744   7.272 -0.0280  0.5878  0.3534
 1830TIP3    H129685   3.970   5.659   7.279  0.7734  0.1375 -0.2096
 1830TIP3    H229686   3.981   5.793   7.348 -2.0128  0.4780 -0.3171
 1831TIP3   OH229687   3.716   2.130   9.472 -0.1345 -0.4217  0.4375
 1831TIP3    H129688   3.657   2.061   9.440  0.4252 -1.1616  0.9741
 1831TIP3    H229689   3.687   2.146   9.562  1.2816 -1.7457  1.1842
 1832TIP3   OH229690   3.220   5.287   6.688  0.2846  0.6799 -0.2196
 1832TIP3    H129691   3.245   5.195   6.691 -0.1496  0.4714 -1.8213
 1832TIP3    H229692   3.128   5.286   6.663  0.1228  1.5492  0.2960
 1833TIP3   OH229693   1.097   1.498   8.181 -0.1414 -0.1092  0.3243
 1833TIP3    H129694   1.156   1.543   8.120 -0.0088 -0.8562 -0.1074
 1833TIP3    H229695   1.122   1.533   8.267 -1.2317  1.9615 -0.1259
 1834TIP3   OH229696   2.437   1.005   9.652 -0.0368 -0.3774 -0.3050
 1834TIP3    H129697   2.513   1.029   9.705 -0.4832  0.7704 -0.1469
 1834TIP3    H229698   2.474   0.974   9.569  0.6123  0.4944 -0.3608
 1835TIP3   OH229699   3.651   7.566   8.830 -0.0454 -0.6504  0.7089
 1835TIP3    H129700   3.743   7.568   8.859  0.7729  1.6570 -1.6890
 1835TIP3    H229701   3.624   7.475   8.843  1.8898 -0.9694  3.3842
 1836TIP3   OH229702   6.437   3.440   8.913  0.2715  0.3000 -0.3677
 1836TIP3    H129703   6.354   3.411   8.950  1.1959 -1.0454  0.7459
 1836TIP3    H229704   6.444   3.532   8.938 -0.1309 -0.0085  0.9433
 1837TIP3   OH229705   0.506   3.898   8.122  0.1050  0.3656  0.6154
 1837TIP3    H129706   0.595   3.891   8.088  0.0019  0.9066  0.2295
 1837TIP3    H229707   0.473   3.808   8.120  0.4780  0.2310  0.3070
 1838TIP3   OH229708   6.974   3.598   9.271 -0.1373 -0.4755 -0.3469
 1838TIP3    H129709   6.908   3.567   9.209  0.9177 -0.6650 -1.4304
 1838TIP3    H229710   6.967   3.539   9.346  0.7970 -2.4173 -1.7121
 1839TIP3   OH229711   5.839   0.422   8.213 -0.4731  0.5499 -0.0383
 1839TIP3    H129712   5.744   0.422   8.199 -0.2429 -0.3781 -1.8407
 1839TIP3    H229713   5.876   0.450   8.130  0.9027 -0.9316  0.0128
 1840TIP3   OH229714   5.597   1.081   9.458 -0.2853  0.0271 -0.0211
 1840TIP3    H129715   5.514   1.046   9.428 -1.0091  1.5040  0.1788
 1840TIP3    H229716   5.602   1.056   9.550 -1.5201  1.6547  0.5378
 1841TIP3   OH229717   0.756   0.617   9.061  0.2204 -0.8859 -0.6852
 1841TIP3    H129718   0.781   0.705   9.034  1.9545 -0.4908  1.8463
 1841TIP3    H229719   0.836   0.565   9.048  0.5835 -1.0451  1.8307
 1842TIP3   OH229720   7.514   7.061   8.794 -0.0313  0.6048 -0.1023
 1842TIP3    H129721   7.435   7.009   8.782 -0.2734  0.7036  0.9426
 1842TIP3    H229722   7.511   7.127   8.725  0.2580 -0.7116 -1.4296
 1843TIP3   OH229723   0.513   4.225   9.072 -0.1613  0.0545  0.0918
 1843TIP3    H129724   0.548   4.283   9.140 -2.3096  0.5679  0.8348
 1843TIP3    H229725   0.518   4.138   9.110  1.0158  0.0135 -0.1355
 1844TIP3   OH229726   2.417   7.592   8.300  0.2382  0.9931  0.2160
 1844TIP3    H129727   2.400   7.500   8.283 -1.5457  1.3532 -0.1236
 1844TIP3    H229728   2.400   7.602   8.394  3.1413  0.4677  0.8988
 1845TIP3   OH229729   2.306   3.937   8.004 -0.2792 -0.1493  1.1831
 1845TIP3    H129730   2.321   3.975   8.090  1.7968 -0.8510  1.1749
 1845TIP3    H229731   2.358   3.858   8.003  3.5601  2.0492 -2.2180
 1846TIP3   OH229732   1.216   1.449   9.167 -0.0383 -0.1074 -0.6974
 1846TIP3    H129733   1.122   1.444   9.185  0.2799 -0.9255  0.9837
 1846TIP3    H229734   1.224   1.420   9.076 -1.4616  0.6518 -1.0980
 1847TIP3   OH229735   1.919   6.138   9.446 -0.1321  0.6521 -0.3516
 1847TIP3    H129736   1.915   6.231   9.468 -0.1979  0.6802 -0.4795
 1847TIP3    H229737   1.833   6.118   9.410 -0.3445  0.3826  0.2957
 1848TIP3   OH229738   6.460   0.047   7.174  0.9126  0.1553  0.5574
 1848TIP3    H129739   6.519   0.026   7.102 -1.0391 -0.8243 -0.8380
 1848TIP3    H229740   6.424  -0.038   7.201 -0.5144  0.7869  0.7394
 1849TIP3   OH229741   2.642   4.788   8.088 -0.1496 -0.3020 -0.2125
 1849TIP3    H129742   2.722   4.736   8.091 -0.3809 -0.6245  0.7032
 1849TIP3    H229743   2.663   4.867   8.139  0.6816  1.2527 -2.7919
 1850TIP3   OH229744   3.645   4.461   8.079 -0.3528 -0.3004 -0.4469
 1850TIP3    H129745   3.664   4.403   8.152 -1.0643  0.2483  0.1818
 1850TIP3    H229746   3.707   4.434   8.011  0.6940 -0.4545  0.5363
 1851TIP3   OH229747   6.821   0.271   8.625 -0.1804 -0.1760  0.3273
 1851TIP3    H129748   6.830   0.227   8.540  0.7726  0.6507 -0.0215
 1851TIP3    H229749   6.908   0.308   8.642 -0.9835  1.7533  0.4829
 1852TIP3   OH229750   5.091   4.094   9.215 -0.6098 -0.9928  0.0942
 1852TIP3    H129751   5.184   4.075   9.230 -0.4053 -1.3675 -1.4666
 1852TIP3    H229752   5.051   4.008   9.205 -0.5918 -0.8140 -2.0036
 1853TIP3   OH229753   4.393   7.226   8.557 -0.2385  0.0750 -0.1910
 1853TIP3    H129754   4.393   7.249   8.650 -0.8309  1.3815 -0.4935
 1853TIP3    H229755   4.472   7.174   8.546  0.7224  1.2626  0.7409
 1854TIP3   OH229756   0.313   3.475   9.611 -0.9699  0.0817 -0.4552
 1854TIP3    H129757   0.366   3.441   9.539 -1.9217 -0.8257 -0.7673
 1854TIP3    H229758   0.375   3.512   9.672  0.1592 -2.0602 -0.1977
 1855TIP3   OH229759   2.884   0.168   7.865 -0.4387  0.2897  0.0735
 1855TIP3    H129760   2.863   0.233   7.932 -1.2029  0.1991 -0.0730
 1855TIP3    H229761   2.835   0.090   7.890  0.8072 -0.3898  0.4883
 1856TIP3   OH229762   6.589   2.300   9.479  0.2823 -0.0186 -0.3911
 1856TIP3    H129763   6.534   2.233   9.439 -0.8765  0.3576  0.5037
 1856TIP3    H229764   6.678   2.266   9.470 -0.3037 -1.9629  0.4931
 1857TIP3   OH229765   4.847   4.202   6.643  0.5016  0.0519  0.3843
 1857TIP3    H129766   4.847   4.297   6.640 -0.8679  0.0714 -1.8545
 1857TIP3    H229767   4.799   4.180   6.723  0.1766  1.2786  0.5379
 1858TIP3   OH229768   4.835   4.812   6.952  0.4690  0.3879  0.1724
 1858TIP3    H129769   4.861   4.877   7.017 -2.0424  0.3468  1.3690
 1858TIP3    H229770   4.825   4.862   6.871 -0.5792  1.3917  0.8743
 1859TIP3   OH229771   2.846   6.224   7.650  0.2667 -0.0166  0.4430
 1859TIP3    H129772   2.853   6.129   7.642 -0.6717 -0.0392 -0.4324
 1859TIP3    H229773   2.927   6.251   7.692  2.0234 -0.8984 -2.1043
 1860TIP3   OH229774   2.546   6.732   9.337  0.2747  0.2554 -0.1964
 1860TIP3    H129775   2.484   6.659   9.336  0.3728  0.1231 -2.4512
 1860TIP3    H229776   2.504   6.798   9.391 -0.7264 -0.7282  0.2799
 1861TIP3   OH229777   3.467   0.437   9.798 -0.2496  0.0730  0.1435
 1861TIP3    H129778   3.446   0.346   9.776  1.1676 -0.0334 -0.8549
 1861TIP3    H229779   3.472   0.437   9.894 -1.8166 -0.5199  0.2629
 1862TIP3   OH229780   1.802   0.018   9.373 -0.4508 -0.0948 -0.3713
 1862TIP3    H129781   1.893   0.025   9.401 -0.4427 -1.0558 -0.1272
 1862TIP3    H229782   1.768  -0.058   9.419 -1.4104  0.2971 -0.3933
 1863TIP3   OH229783   3.312   2.710   7.803 -0.2855  0.2632 -0.1603
 1863TIP3    H129784   3.290   2.796   7.766  0.4297  0.9319  0.9156
 1863TIP3    H229785   3.370   2.670   7.739 -1.9156 -0.1296 -1.4533
 1864TIP3   OH229786   2.075   3.701   9.361 -0.3962  0.4909  0.0836
 1864TIP3    H129787   2.009   3.650   9.407 -1.3720 -0.2385 -2.0143
 1864TIP3    H229788   2.134   3.636   9.323  1.5222  1.1175  1.7500
 1865TIP3   OH229789   2.692   2.668   7.250 -0.3497 -0.1382  0.1029
 1865TIP3    H129790   2.746   2.735   7.291  0.5156 -0.6524 -0.1739
 1865TIP3    H229791   2.724   2.586   7.286 -1.1424 -0.4408  0.1425
 1866TIP3   OH229792   6.480   2.458   8.710  0.1555  0.2661 -1.2304
 1866TIP3    H129793   6.526   2.388   8.664  2.2282  1.8773 -1.7698
 1866TIP3    H229794   6.539   2.484   8.780 -3.0205 -2.2783  2.8006
 1867TIP3   OH229795   1.502   4.497   8.742  0.4044 -0.1805 -0.0475
 1867TIP3    H129796   1.562   4.483   8.668 -0.5176  1.4409 -1.1583
 1867TIP3    H229797   1.468   4.585   8.729 -1.7090 -0.7934  0.9428
 1868TIP3   OH229798   3.456   3.470   8.424 -0.2470 -0.3012  0.0002
 1868TIP3    H129799   3.501   3.522   8.491  0.4024  1.1650 -1.5107
 1868TIP3    H229800   3.521   3.455   8.356 -1.4562  0.1764 -1.3351
 1869TIP3   OH229801   1.590   1.058   6.617  0.6606  0.1119  0.5247
 1869TIP3    H129802   1.532   1.116   6.569  0.1308 -1.2165 -0.5123
 1869TIP3    H229803   1.531   1.003   6.669  0.9254 -1.2755 -0.5665
 1870TIP3   OH229804   6.418   7.147   8.238 -0.7102 -0.1117  0.4836
 1870TIP3    H129805   6.423   7.178   8.328  2.4017  1.7059 -0.1775
 1870TIP3    H229806   6.357   7.208   8.195 -2.6923 -1.3577  1.3748
 1871TIP3   OH229807   4.180   7.390   6.682 -0.0246  0.4572  0.1138
 1871TIP3    H129808   4.271   7.393   6.653 -0.1052  0.3423 -0.1510
 1871TIP3    H229809   4.157   7.297   6.681 -0.5661  0.5896 -1.1357
 1872TIP3   OH229810   1.430   0.343   8.792  0.5648  0.1722  0.3004
 1872TIP3    H129811   1.373   0.295   8.851  0.8898 -1.1959 -0.4677
 1872TIP3    H229812   1.518   0.327   8.825  0.7387 -0.4764 -0.4476
 1873TIP3   OH229813   6.251   4.664   7.669  0.5877 -0.2428 -0.1927
 1873TIP3    H129814   6.234   4.617   7.587  1.3888  1.4350 -1.3600
 1873TIP3    H229815   6.312   4.607   7.716 -0.7070 -1.7464 -0.2065
 1874TIP3   OH229816   6.839   3.199   9.118  0.2608 -0.1123 -0.0332
 1874TIP3    H129817   6.767   3.250   9.081  0.1248  1.0855  1.7781
 1874TIP3    H229818   6.898   3.184   9.043 -0.0223  2.1651 -0.7914
 1875TIP3   OH229819   1.420   1.075   7.603 -0.2967  0.0427 -0.1194
 1875TIP3    H129820   1.340   1.062   7.552 -0.3502  1.4441 -0.4344
 1875TIP3    H229821   1.476   1.001   7.579 -2.0745 -1.8995  1.3704
 1876TIP3   OH229822   3.411   3.949   7.826 -0.4565  0.3300  0.5098
 1876TIP3    H129823   3.325   3.941   7.867 -0.3311  0.3317  0.7763
 1876TIP3    H229824   3.461   3.875   7.860 -0.4690  0.1151  0.0613
 1877TIP3   OH229825   2.163   6.149   7.529  0.3039  0.2844 -0.7545
 1877TIP3    H129826   2.178   6.138   7.623 -1.0052  1.0371 -0.4340
 1877TIP3    H229827   2.230   6.211   7.501 -0.1754  1.1635 -0.0099
 1878TIP3   OH229828   6.888   0.057   7.587 -0.0635  0.0521  0.8522
 1878TIP3    H129829   6.978   0.024   7.585 -0.0744  0.0336 -1.0362
 1878TIP3    H229830   6.896   0.149   7.565 -0.6278 -0.3470 -1.1841
 1879TIP3   OH229831   3.266   6.640   7.330 -0.0348 -0.1240 -0.1246
 1879TIP3    H129832   3.283   6.584   7.255 -0.7469  0.5936 -0.8464
 1879TIP3    H229833   3.347   6.690   7.341  0.5403 -1.1341  0.4134
 1880TIP3   OH229834   0.144   6.743   7.665 -0.4689  0.6630  0.3485
 1880TIP3    H129835   0.104   6.731   7.751 -1.7476  0.6214 -0.2262
 1880TIP3    H229836   0.232   6.707   7.673 -0.3318  1.2665  1.8211
 1881TIP3   OH229837   5.895   3.656   7.210 -0.4344  0.1738 -0.3480
 1881TIP3    H129838   5.963   3.716   7.179 -0.5742 -0.2522 -1.5349
 1881TIP3    H229839   5.874   3.602   7.134 -0.4214 -1.2861  0.6456
 1882TIP3   OH229840   0.779   5.379   8.973 -0.2448 -0.5837 -0.1214
 1882TIP3    H129841   0.689   5.348   8.984 -0.2484 -0.0757  1.5504
 1882TIP3    H229842   0.775   5.436   8.896 -1.6037  0.2863  0.5530
 1883TIP3   OH229843   7.076   0.325   8.753  0.3532  0.2341  0.3162
 1883TIP3    H129844   7.100   0.417   8.738  0.4828  0.1642  0.0878
 1883TIP3    H229845   7.089   0.311   8.846  1.9305 -0.0126  0.0765
 1884TIP3   OH229846   0.576   2.497   9.527 -0.1649 -0.8032  0.3977
 1884TIP3    H129847   0.668   2.521   9.530 -0.5602  1.0805 -0.8451
 1884TIP3    H229848   0.563   2.459   9.441 -0.8398  0.4514 -0.0869
 1885TIP3   OH229849   3.417   1.631   8.307 -0.1701  0.3058 -0.0544
 1885TIP3    H129850   3.511   1.635   8.321 -0.3632 -0.9625  2.0949
 1885TIP3    H229851   3.401   1.686   8.230  2.4401 -0.4862 -1.2529
 1886TIP3   OH229852   3.209   2.304   9.505 -0.1057  0.0616 -0.5923
 1886TIP3    H129853   3.116   2.282   9.496 -0.7854  2.0370  0.9485
 1886TIP3    H229854   3.235   2.334   9.418 -1.0229 -0.1284 -0.9475
 1887TIP3   OH229855   6.262   4.100   7.776  0.1980 -0.4546 -0.0662
 1887TIP3    H129856   6.295   4.189   7.760  0.4976 -0.7543 -1.2533
 1887TIP3    H229857   6.186   4.112   7.832  0.0610  0.5834 -0.4485
 1888TIP3   OH229858   0.847   5.710   8.375 -0.1428 -1.2258  0.3886
 1888TIP3    H129859   0.914   5.672   8.432 -0.3846 -0.2503  1.3498
 1888TIP3    H229860   0.875   5.800   8.362 -0.5693 -1.1898 -0.3055
 1889TIP3   OH229861   2.957   0.117   9.467 -0.0063 -0.4364 -0.2964
 1889TIP3    H129862   2.906   0.191   9.432 -1.8384 -1.7962 -0.6351
 1889TIP3    H229863   3.018   0.157   9.529 -1.6528  1.2622  0.3110
 1890TIP3   OH229864   1.205   7.591   9.065  0.2707  0.1239  0.1237
 1890TIP3    H129865   1.226   7.641   8.986 -1.2762  1.1136  0.2788
 1890TIP3    H229866   1.288   7.554   9.094  0.8217 -0.6468 -2.2068
 1891TIP3   OH229867   1.063   4.174   7.172  0.2056 -0.0510  0.5408
 1891TIP3    H129868   1.012   4.249   7.141 -0.6930  0.0561  2.1708
 1891TIP3    H229869   1.127   4.212   7.232 -0.0280 -0.5384  1.1086
 1892TIP3   OH229870   2.918   3.477   8.568  0.1882 -0.0547 -0.5625
 1892TIP3    H129871   2.971   3.471   8.488  1.3413  0.7965  0.1194
 1892TIP3    H229872   2.877   3.563   8.563  0.3262  0.0320 -0.2033
 1893TIP3   OH229873   1.752   0.698   8.866  0.9295  0.0365 -0.0725
 1893TIP3    H129874   1.738   0.691   8.771  1.7218 -0.9085 -0.1327
 1893TIP3    H229875   1.718   0.785   8.889 -0.2843 -0.1569 -1.0296
 1894TIP3   OH229876   5.654   3.339   8.803  0.1353 -0.4533 -0.2612
 1894TIP3    H129877   5.579   3.377   8.849 -1.4312 -2.8449 -0.7182
 1894TIP3    H229878   5.704   3.295   8.871 -0.3173 -1.0928 -0.3416
 1895TIP3   OH229879   0.690   2.164   8.985 -0.3489  0.4505 -0.6088
 1895TIP3    H129880   0.672   2.212   8.904 -2.4463 -0.6114 -0.8335
 1895TIP3    H229881   0.632   2.204   9.050  0.6144  0.6431  0.1661
 1896TIP3   OH229882   6.296   5.305   9.247 -0.1351 -0.0151  0.1540
 1896TIP3    H129883   6.216   5.327   9.199 -1.3645 -2.0678  1.1159
 1896TIP3    H229884   6.301   5.370   9.317  1.5510  2.8758 -2.3622
 1897TIP3   OH229885   2.883   3.434   7.175 -0.0956 -0.0538  0.1715
 1897TIP3    H129886   2.935   3.500   7.130 -1.1043 -0.1703 -1.2048
 1897TIP3    H229887   2.797   3.474   7.186 -0.1611 -0.4168  1.0855
 1898TIP3   OH229888   2.751   1.402   7.685  0.2772  0.1619 -0.0438
 1898TIP3    H129889   2.835   1.379   7.648  1.6311 -2.0450  3.7863
 1898TIP3    H229890   2.770   1.471   7.749 -0.7095 -0.4773  1.0045
 1899TIP3   OH229891   2.018   7.379   8.930 -0.6423 -0.2745  0.2214
 1899TIP3    H129892   1.931   7.418   8.934 -0.7783 -0.6391  0.9539
 1899TIP3    H229893   2.032   7.360   8.837 -1.0715  0.3921  0.0186
 1900TIP3   OH229894   0.555   0.302   8.300 -0.3093 -0.1316  0.4502
 1900TIP3    H129895   0.488   0.353   8.344 -1.8034  0.2143 -2.0285
 1900TIP3    H229896   0.573   0.229   8.359 -0.7179  1.3125  2.4690
 1901TIP3   OH229897   5.111   2.209   7.174 -0.1986 -0.0978 -0.6196
 1901TIP3    H129898   5.043   2.216   7.107 -0.9453  1.4566  0.2688
 1901TIP3    H229899   5.112   2.115   7.196 -1.1352 -0.3535 -1.5595
 1902TIP3   OH229900   2.477   6.372   7.194 -0.6375 -0.1877  0.2650
 1902TIP3    H129901   2.478   6.362   7.289  2.6244 -3.1171  0.1219
 1902TIP3    H229902   2.522   6.456   7.179 -0.0623 -0.2929  1.2954
 1903TIP3   OH229903   6.957   6.164   9.151 -0.3402 -0.2022 -0.1824
 1903TIP3    H129904   7.025   6.097   9.154  0.5794  0.5307 -2.4546
 1903TIP3    H229905   6.876   6.118   9.174  0.9093 -0.9512  3.3055
 1904TIP3   OH229906   4.068   6.133   7.442 -0.2502 -0.3405 -0.2920
 1904TIP3    H129907   4.101   6.223   7.440 -0.1085 -0.3896 -0.1350
 1904TIP3    H229908   4.081   6.101   7.352  0.4863 -0.4896 -0.1373
 1905TIP3   OH229909   6.147   6.545   9.026  0.3467  0.0120  0.4661
 1905TIP3    H129910   6.177   6.459   8.999  0.0113 -0.4872  1.6328
 1905TIP3    H229911   6.066   6.529   9.076 -0.7526  1.1455 -0.8462
 1906TIP3   OH229912   6.018   1.906   6.950  0.3133  0.8658  0.2645
 1906TIP3    H129913   6.059   1.965   6.886  0.4882  0.7635  0.2817
 1906TIP3    H229914   6.046   1.819   6.923  0.5053  0.8326  0.5667
 1907TIP3   OH229915   1.057   5.196   8.646  0.1626  0.3912  0.1239
 1907TIP3    H129916   0.988   5.200   8.580  0.6542 -0.3097 -0.4480
 1907TIP3    H229917   1.015   5.157   8.723 -0.2195  0.4903 -0.0360
 1908TIP3   OH229918   1.029   3.438   8.856 -0.4426 -0.6000  0.0000
 1908TIP3    H129919   1.124   3.450   8.852 -0.3156 -1.6991 -0.4714
 1908TIP3    H229920   1.012   3.358   8.807 -1.9090  1.0254 -2.3598
 1909TIP3   OH229921   1.567   1.928   7.537 -0.3223  0.4134 -0.0870
 1909TIP3    H129922   1.560   2.000   7.599 -0.8379  1.5125 -1.3513
 1909TIP3    H229923   1.644   1.950   7.485  1.0545 -1.3196  1.1358
 1910TIP3   OH229924   0.902   5.428   7.971 -0.1081  0.1887 -0.2117
 1910TIP3    H129925   0.980   5.398   7.926 -0.5358  1.1004 -1.6156
 1910TIP3    H229926   0.920   5.520   7.993 -1.3196  0.8860 -1.9236
 1911TIP3   OH229927   2.647   3.068   7.767 -0.6252 -0.1288  0.0492
 1911TIP3    H129928   2.637   3.020   7.850  0.7684  0.9659  0.9040
 1911TIP3    H229929   2.701   3.144   7.790  0.4873 -0.2150 -2.0231
 1912TIP3   OH229930   2.538   6.210   7.682 -0.4067 -0.4805 -0.5191
 1912TIP3    H129931   2.569   6.122   7.702  0.6296 -0.3305 -1.3633
 1912TIP3    H229932   2.616   6.265   7.690 -1.2910  0.5938  1.2748
 1913TIP3   OH229933   1.249   2.662   7.462 -0.6438 -0.1768 -0.3265
 1913TIP3    H129934   1.258   2.681   7.368 -1.5822  0.2604 -0.3476
 1913TIP3    H229935   1.186   2.589   7.465 -1.7552  0.7586 -0.0007
 1914TIP3   OH229936   2.576   1.303   6.516  0.0690 -0.0856 -0.1323
 1914TIP3    H129937   2.559   1.274   6.427 -0.9747 -0.2319  0.0948
 1914TIP3    H229938   2.528   1.386   6.523 -1.4672 -1.0122  0.8561
 1915TIP3   OH229939   7.680   7.379   8.923  0.4505  0.4684  0.1859
 1915TIP3    H129940   7.709   7.347   8.837 -0.3236 -0.1814  0.1473
 1915TIP3    H229941   7.693   7.305   8.982 -1.7117 -0.1337  0.0220
 1916TIP3   OH229942   4.088   4.406   7.989  0.1641 -0.2080 -0.1222
 1916TIP3    H129943   4.015   4.402   7.927 -0.0829 -1.7107  0.2248
 1916TIP3    H229944   4.166   4.393   7.934 -0.0604 -1.6358 -0.1381
 1917TIP3   OH229945   6.418   0.741   8.574  0.1817  0.6125  0.3573
 1917TIP3    H129946   6.484   0.794   8.531 -0.9495  2.2225  0.5229
 1917TIP3    H229947   6.437   0.750   8.668 -0.3320  1.1966  0.4129
 1918TIP3   OH229948   1.536   3.053   7.006  0.0614  0.4323 -0.3993
 1918TIP3    H129949   1.455   3.092   7.038 -0.5215  1.3181 -2.7392
 1918TIP3    H229950   1.510   3.010   6.925  1.2989 -2.3026  0.5387
 1919TIP3   OH229951   5.239   4.822   8.717  0.3105  0.2053 -0.0776
 1919TIP3    H129952   5.243   4.845   8.624 -0.6668  1.7206  0.2119
 1919TIP3    H229953   5.256   4.728   8.720  0.0881  0.0857 -1.8118
 1920TIP3   OH229954   7.124   1.479   6.815  0.4759  0.1492  0.5550
 1920TIP3    H129955   7.038   1.462   6.853 -0.7720  1.7239 -1.3284
 1920TIP3    H229956   7.125   1.573   6.799  1.8438 -0.0882 -1.0606
 1921TIP3   OH229957   0.002   4.355   8.708  0.1506 -0.0470  0.0901
 1921TIP3    H129958  -0.087   4.325   8.727  0.1431 -1.3785 -1.8308
 1921TIP3    H229959   0.035   4.387   8.792 -1.1265 -2.1490  1.4685
 1922TIP3   OH229960   4.723   2.435   7.174  0.4685 -0.3153 -0.5096
 1922TIP3    H129961   4.804   2.478   7.203 -0.5631  1.1500  0.3298
 1922TIP3    H229962   4.689   2.491   7.105  1.0579 -1.9116 -2.1988
 1923TIP3   OH229963   0.689   7.535   7.717  0.0427  0.1062 -0.1387
 1923TIP3    H129964   0.650   7.530   7.630  0.0333  1.2507 -0.2164
 1923TIP3    H229965   0.784   7.537   7.701  0.0473  0.1258 -0.1091
 1924TIP3   OH229966   3.687   2.764   9.188 -0.6406  0.3178 -0.2986
 1924TIP3    H129967   3.650   2.844   9.225 -2.3308 -0.1460 -0.9077
 1924TIP3    H229968   3.705   2.786   9.097  0.2276  0.4072 -0.1148
 1925TIP3   OH229969   1.222   5.602   7.788  0.1409  0.2781 -0.1812
 1925TIP3    H129970   1.161   5.588   7.861 -1.1066  0.2896 -1.1874
 1925TIP3    H229971   1.212   5.694   7.766 -0.9516 -0.1526 -1.6040
 1926TIP3   OH229972   4.378   7.008   8.067  0.2007  0.1261  0.0940
 1926TIP3    H129973   4.460   7.057   8.072  0.4990 -0.4162  0.6253
 1926TIP3    H229974   4.367   6.988   7.974 -0.0510  1.3972 -0.1605
 1927TIP3   OH229975   1.601   2.574   7.269 -0.3307 -0.1236  0.3351
 1927TIP3    H129976   1.669   2.642   7.268 -0.4749  0.0178 -0.0414
 1927TIP3    H229977   1.519   2.623   7.277 -0.3050 -0.3726  2.7573
 1928TIP3   OH229978   3.613   1.536   9.023  0.3629 -0.0533 -0.1393
 1928TIP3    H129979   3.633   1.556   8.931  0.0386  0.8036 -0.0390
 1928TIP3    H229980   3.589   1.444   9.023  2.3809 -0.6097 -0.5691
 1929TIP3   OH229981   7.235   4.425   8.831  0.2686  0.2876  0.2031
 1929TIP3    H129982   7.237   4.346   8.885 -0.8108 -1.2058 -1.7878
 1929TIP3    H229983   7.162   4.410   8.770 -0.9881  3.5286  0.7370
 1930TIP3   OH229984   2.661   3.496   6.894  0.0161 -0.1011  0.7507
 1930TIP3    H129985   2.733   3.452   6.850  0.3791 -1.0192  2.2030
 1930TIP3    H229986   2.703   3.568   6.942 -0.5551  1.8782 -1.5113
 1931TIP3   OH229987   1.037   7.230   7.262 -0.3923  0.0046 -0.0296
 1931TIP3    H129988   1.116   7.275   7.294  0.6411 -0.5207 -1.7519
 1931TIP3    H229989   1.058   7.137   7.267 -2.0951 -0.3705  2.3935
 1932TIP3   OH229990   2.637   4.923   8.866 -0.1086  0.0026  0.6941
 1932TIP3    H129991   2.618   4.829   8.862  0.2853 -0.0368 -1.4635
 1932TIP3    H229992   2.671   4.944   8.779 -2.3558  2.5894  0.2935
 1933TIP3   OH229993   0.137   0.165   9.749  0.1208 -0.0649  0.1468
 1933TIP3    H129994   0.046   0.184   9.728  0.3361  0.5374 -0.2708
 1933TIP3    H229995   0.156   0.084   9.702  0.0427  0.2588 -0.4493
 1934TIP3   OH229996   1.729   5.867   7.785  0.3498  0.1450  0.3945
 1934TIP3    H129997   1.744   5.776   7.809 -0.6712 -0.3010 -0.6166
 1934TIP3    H229998   1.792   5.916   7.838 -0.8702 -0.8943  2.9684
 1935TIP3   OH229999   4.633   2.953   7.461  0.2414 -0.3646 -0.2331
 1935TIP3    H130000   4.685   2.878   7.490  0.1647 -0.4215 -0.2428
 1935TIP3    H230001   4.698   3.023   7.447  0.2829 -0.3510  0.0282
 1936TIP3   OH230002   6.293   1.002   7.672  0.7055  0.4772  0.1618
 1936TIP3    H130003   6.297   0.989   7.767  0.1572  1.6259  0.3605
 1936TIP3    H230004   6.201   1.022   7.655  0.8123  0.3323 -0.6142
 1937TIP3   OH230005   1.312   4.187   7.324  0.5109  0.4755  0.0424
 1937TIP3    H130006   1.338   4.164   7.413 -1.9307  1.0665  0.9765
 1937TIP3    H230007   1.334   4.280   7.317 -0.2896  0.7027  0.4395
 1938TIP3   OH230008   2.582   1.958   9.640 -0.4376 -0.1148 -0.5297
 1938TIP3    H130009   2.538   1.873   9.643  2.2286 -1.5829 -0.1588
 1938TIP3    H230010   2.542   2.003   9.566 -2.5999 -1.2341 -0.1424
 1939TIP3   OH230011   2.409   2.685   8.232  0.3248 -0.0302  0.6280
 1939TIP3    H130012   2.409   2.750   8.302 -2.0222 -0.9607  1.6134
 1939TIP3    H230013   2.500   2.655   8.226  0.6982  0.4862  2.9079
 1940TIP3   OH230014   7.022   5.189   8.008 -0.2883  0.2139  0.2987
 1940TIP3    H130015   7.021   5.285   8.012  1.7144  0.2866  4.1624
 1940TIP3    H230016   6.944   5.161   8.055 -1.2750 -0.1590 -1.4680
 1941TIP3   OH230017   7.186   1.597   8.825  0.0281  0.3671 -0.5482
 1941TIP3    H130018   7.263   1.544   8.848  0.6270  1.3636 -0.1818
 1941TIP3    H230019   7.120   1.571   8.889  0.2515 -0.0596 -0.4838
 1942TIP3   OH230020   3.763   6.461   6.716 -0.5046  0.1819 -0.4157
 1942TIP3    H130021   3.753   6.535   6.777  0.4643  1.1009 -1.3405
 1942TIP3    H230022   3.733   6.385   6.766 -0.0266  0.9584  1.1073
 1943TIP3   OH230023   7.319   2.808   8.417  0.2011 -0.2897 -0.2810
 1943TIP3    H130024   7.261   2.866   8.466  1.5068  0.3970  0.5024
 1943TIP3    H230025   7.266   2.777   8.344 -1.7034 -1.0702  1.3444
 1944TIP3   OH230026   4.891   0.390   7.155 -0.3768  0.1577  0.0299
 1944TIP3    H130027   4.985   0.387   7.136  0.2532  0.0354  2.7771
 1944TIP3    H230028   4.854   0.440   7.083  2.3391  3.5002  0.6861
 1945TIP3   OH230029   6.807   6.280   8.343  0.5411  0.0264 -0.3912
 1945TIP3    H130030   6.813   6.186   8.325  1.0790 -0.1538  0.6153
 1945TIP3    H230031   6.890   6.300   8.387 -1.4278 -0.0863  3.8768
 1946TIP3   OH230032   1.607   2.560   8.998  0.4820  0.6728 -0.3227
 1946TIP3    H130033   1.612   2.655   9.011  2.1154  0.7204 -1.1004
 1946TIP3    H230034   1.643   2.523   9.079  0.4778  0.7295 -0.2946
 1947TIP3   OH230035   6.006   1.634   8.008 -0.0902  0.2639  0.2776
 1947TIP3    H130036   6.058   1.571   8.058 -0.0254  1.2231  1.4599
 1947TIP3    H230037   6.041   1.719   8.033  0.1381  0.7948 -1.6427
 1948TIP3   OH230038   7.285   6.184   7.828  0.0814  0.2926  0.6513
 1948TIP3    H130039   7.281   6.189   7.733  1.5651  1.2688  0.6027
 1948TIP3    H230040   7.195   6.192   7.857 -0.4805 -0.7946 -0.6876
 1949TIP3   OH230041   5.892   7.369   8.231 -0.0387 -0.1662 -0.2697
 1949TIP3    H130042   5.954   7.431   8.269  1.7258 -0.3296 -2.6895
 1949TIP3    H230043   5.812   7.420   8.219  0.1637  0.5634  1.2130
 1950TIP3   OH230044   3.628   2.977   7.227  0.1322  0.3686  0.0531
 1950TIP3    H130045   3.540   3.009   7.211 -0.5010 -1.1571  0.2728
 1950TIP3    H230046   3.651   2.930   7.146 -0.1058 -0.9886  0.7428
 1951TIP3   OH230047   5.170   6.859   6.893  0.0088  0.6416  0.5887
 1951TIP3    H130048   5.093   6.853   6.950  0.3188  3.8388  1.5119
 1951TIP3    H230049   5.239   6.814   6.942 -0.8947 -1.1627  0.3087
 1952TIP3   OH230050   6.060   2.030   6.461  0.1313  0.1496  0.3175
 1952TIP3    H130051   6.074   2.004   6.369 -1.4248 -1.1041  0.4076
 1952TIP3    H230052   5.974   2.071   6.462  1.1513  2.4919  0.8204
 1953TIP3   OH230053   7.541   0.818   7.249  0.0643 -0.2481 -0.2410
 1953TIP3    H130054   7.485   0.751   7.210 -0.5591  0.6091 -0.8631
 1953TIP3    H230055   7.574   0.778   7.329 -0.9257 -1.0172 -0.1944
 1954TIP3   OH230056   7.380   1.752   7.666 -0.1926  0.0219 -0.4603
 1954TIP3    H130057   7.463   1.748   7.713  1.0880 -0.7031 -2.6430
 1954TIP3    H230058   7.348   1.662   7.665  0.2851 -0.1534 -1.7425
 1955TIP3   OH230059   5.461   1.417   8.217 -0.2826 -0.0956 -0.0530
 1955TIP3    H130060   5.478   1.336   8.169 -1.2573 -2.1770  2.8291
 1955TIP3    H230061   5.548   1.453   8.234  0.2243 -0.9820 -0.6579
 1956TIP3   OH230062   3.903   0.939   9.673 -0.1862 -0.2800  1.2697
 1956TIP3    H130063   3.845   0.999   9.719  1.2733  1.4373  0.9573
 1956TIP3    H230064   3.989   0.980   9.677  0.1841 -0.3173 -2.3622
 1957TIP3   OH230065   4.378   4.860   8.732 -0.2363  1.0245 -0.3166
 1957TIP3    H130066   4.391   4.951   8.705 -2.4417  1.5035  0.0552
 1957TIP3    H230067   4.382   4.862   8.828 -0.8942  0.8680 -0.2758
 1958TIP3   OH230068   4.735   4.364   7.848  0.1671 -0.2299  0.3350
 1958TIP3    H130069   4.747   4.340   7.940 -0.1359 -0.9849  0.1865
 1958TIP3    H230070   4.643   4.347   7.831  0.4080 -0.9677 -0.3424
 1959TIP3   OH230071   0.076   6.322   6.712 -0.1581  0.1100  0.2405
 1959TIP3    H130072   0.012   6.348   6.646 -0.0159 -0.5044 -0.1541
 1959TIP3    H230073   0.118   6.403   6.739  1.4725  0.1435 -2.1681
 1960TIP3   OH230074   6.361   7.665   7.869 -0.0466 -0.2995  0.1308
 1960TIP3    H130075   6.363   7.611   7.790  1.7718  0.6031 -0.4958
 1960TIP3    H230076   6.270   7.696   7.875 -0.2450 -0.4841 -1.5567
 1961TIP3   OH230077   1.227   1.958   7.672  0.8915 -0.0518  0.3544
 1961TIP3    H130078   1.197   1.963   7.581  0.7668 -1.2079  0.3129
 1961TIP3    H230079   1.261   2.046   7.692 -1.5356  1.0204  0.0631
 1962TIP3   OH230080   5.207   1.741   8.301 -0.0974  0.2374 -0.5587
 1962TIP3    H130081   5.138   1.805   8.316 -0.4670 -0.1139 -0.7385
 1962TIP3    H230082   5.176   1.662   8.346  0.1226  0.0382 -0.7571
 1963TIP3   OH230083   4.292   4.128   6.842 -0.9708  0.3236 -0.2645
 1963TIP3    H130084   4.295   4.223   6.858  1.8186  0.2413  0.2819
 1963TIP3    H230085   4.364   4.113   6.780 -0.5863 -1.5564  0.5795
 1964TIP3   OH230086   0.243   4.777   8.011  0.3018  0.1350 -0.3546
 1964TIP3    H130087   0.294   4.713   7.962 -0.7074 -0.9940  0.0302
 1964TIP3    H230088   0.162   4.788   7.961 -0.1318  0.0373  0.3129
 1965TIP3   OH230089   3.354   0.212   7.723  0.9585  0.2258 -0.7514
 1965TIP3    H130090   3.342   0.305   7.742  1.8124  0.3269 -0.6614
 1965TIP3    H230091   3.266   0.176   7.722  0.6196  1.0418 -0.8056
 1966TIP3   OH230092   3.026   3.970   9.270 -0.6461 -0.2453  0.2709
 1966TIP3    H130093   2.965   3.903   9.301 -0.5140  0.1958  1.5204
 1966TIP3    H230094   3.028   4.035   9.340  1.2860 -0.2557  0.2686
 1967TIP3   OH230095   2.671   1.801   6.983 -0.2680  0.0357  0.3116
 1967TIP3    H130096   2.744   1.862   6.972 -0.7269  0.6473  0.6401
 1967TIP3    H230097   2.620   1.836   7.055 -0.2418 -1.0390  0.8797
 1968TIP3   OH230098   5.324   3.488   7.818  0.8276  0.6518 -0.0660
 1968TIP3    H130099   5.244   3.474   7.869 -0.0215  0.6014 -1.3667
 1968TIP3    H230100   5.353   3.400   7.795 -1.4100  0.6395 -3.5328
 1969TIP3   OH230101   1.772   5.282   8.129 -0.3106 -0.8761  0.1932
 1969TIP3    H130102   1.733   5.289   8.217  0.0334 -0.9704  0.3538
 1969TIP3    H230103   1.862   5.311   8.140 -0.2348 -0.9940 -0.1091
 1970TIP3   OH230104   2.775   2.331   8.675  0.0150  0.3289  0.6549
 1970TIP3    H130105   2.697   2.337   8.731 -0.1419 -0.0019  0.4800
 1970TIP3    H230106   2.792   2.237   8.669 -0.3485  0.3111 -0.3656
 1971TIP3   OH230107   1.170   5.486   8.301  0.2271  0.8800  0.0306
 1971TIP3    H130108   1.095   5.428   8.284  0.9567 -0.0673 -0.0670
 1971TIP3    H230109   1.171   5.498   8.396  1.6903 -1.6157  0.4341
 1972TIP3   OH230110   1.035   7.083   7.999  0.6342 -0.4205 -0.2160
 1972TIP3    H130111   0.961   7.103   8.056  1.0182 -0.6313  0.3635
 1972TIP3    H230112   1.042   7.159   7.941  0.9606  0.3231  0.7829
 1973TIP3   OH230113   7.091   2.839   9.090 -0.1049 -0.8459  0.0649
 1973TIP3    H130114   7.003   2.866   9.116  0.4340 -0.3561  1.4597
 1973TIP3    H230115   7.130   2.802   9.170  1.3986  0.1332 -0.1804
 1974TIP3   OH230116   7.319   3.014   8.762 -0.6165 -0.4664  0.6694
 1974TIP3    H130117   7.377   3.065   8.819 -0.4104  0.3385 -0.2195
 1974TIP3    H230118   7.283   3.079   8.702  0.4727 -1.4913 -1.2093
 1975TIP3   OH230119   2.345   4.370   8.225  0.3372  0.1466  0.3062
 1975TIP3    H130120   2.301   4.412   8.298  1.5615 -1.0306  1.7906
 1975TIP3    H230121   2.429   4.341   8.261  0.7195 -1.0241 -1.3916
 1976TIP3   OH230122   5.285   1.606   8.063  0.4654 -0.1232  0.0619
 1976TIP3    H130123   5.247   1.658   8.134  0.4809 -0.7841  0.5633
 1976TIP3    H230124   5.351   1.552   8.106 -0.9434 -2.0467 -0.0923
 1977TIP3   OH230125   2.278   3.703   8.255 -0.0688 -0.2614  0.3156
 1977TIP3    H130126   2.215   3.636   8.280  1.7202 -2.5759 -0.9369
 1977TIP3    H230127   2.351   3.655   8.216  1.8517  2.3617  0.3377
 1978TIP3   OH230128   0.066   2.139   8.725 -0.4110 -0.2442  0.4702
 1978TIP3    H130129   0.008   2.195   8.777  0.1149  0.7833 -0.0102
 1978TIP3    H230130   0.008   2.096   8.662 -1.1798 -2.1143  2.3405
 1979TIP3   OH230131   7.645   2.688   8.049 -0.0724 -0.2631 -0.0555
 1979TIP3    H130132   7.670   2.780   8.058 -1.5165  0.4536 -2.5158
 1979TIP3    H230133   7.592   2.670   8.126 -0.2397  1.1387  0.1755
 1980TIP3   OH230134   0.876   3.216   8.452 -0.0534  0.0470 -0.4477
 1980TIP3    H130135   0.903   3.300   8.489  0.3843 -0.5757  0.7082
 1980TIP3    H230136   0.794   3.235   8.407  0.4731  1.2510 -0.9357
 1981TIP3   OH230137   4.389   6.364   7.112  0.5921  0.2508  0.5567
 1981TIP3    H130138   4.360   6.442   7.159  0.1379 -0.4084  1.3919
 1981TIP3    H230139   4.309   6.316   7.093  0.9836 -1.0626  1.9587
 1982TIP3   OH230140   4.568   2.857   7.872  0.6331 -0.2731  0.5232
 1982TIP3    H130141   4.522   2.775   7.853  0.2963 -0.1977  1.0001
 1982TIP3    H230142   4.636   2.833   7.934 -0.0870 -0.0300  1.4222
 1983TIP3   OH230143   7.616   2.991   7.230 -0.9470  0.6452  0.2857
 1983TIP3    H130144   7.523   2.970   7.220 -1.3433  1.9168  1.0577
 1983TIP3    H230145   7.649   2.994   7.140 -1.2128 -1.5012  0.0517
 1984TIP3   OH230146   5.661   4.560   9.497  0.0947  0.1836  0.5725
 1984TIP3    H130147   5.724   4.596   9.435  1.4011  0.7412  2.1543
 1984TIP3    H230148   5.576   4.596   9.470  0.9706  2.3394  0.5053
 1985TIP3   OH230149   1.260   4.875   6.731 -0.0326 -0.1445  0.3488
 1985TIP3    H130150   1.237   4.783   6.743 -2.0308  0.2455 -0.1130
 1985TIP3    H230151   1.197   4.922   6.785  0.4979  0.9990 -0.0022
 1986TIP3   OH230152   3.777   4.554   8.898 -0.1022 -0.2068  0.0792
 1986TIP3    H130153   3.734   4.638   8.916  1.1209  0.6754 -1.0032
 1986TIP3    H230154   3.864   4.563   8.935 -0.0168 -1.0680  0.0999
 1987TIP3   OH230155   3.240   2.120   7.224  0.2300 -0.2632  0.5708
 1987TIP3    H130156   3.190   2.122   7.143  0.7912  1.4585  0.2267
 1987TIP3    H230157   3.327   2.151   7.200  0.9685 -1.5463  1.4841
 1988TIP3   OH230158   2.042   4.615   8.941 -0.3691  0.3561 -0.4212
 1988TIP3    H130159   2.136   4.599   8.948 -0.2752  1.4587  1.5263
 1988TIP3    H230160   2.016   4.648   9.027 -2.4867  0.4133 -1.0127
 1989TIP3   OH230161   2.392   5.876   9.010 -0.7272 -0.0434 -0.1974
 1989TIP3    H130162   2.372   5.928   9.088 -0.3200 -1.2018  0.7099
 1989TIP3    H230163   2.434   5.797   9.044  2.4351  0.7883 -1.7491
 1990TIP3   OH230164   3.169   2.460   8.605 -0.1781  0.4425  0.4248
 1990TIP3    H130165   3.117   2.380   8.609  1.2598 -0.6796 -1.2943
 1990TIP3    H230166   3.224   2.457   8.683  0.7515 -0.9624 -0.2422
 1991TIP3   OH230167   5.167   1.539   7.796  0.1192 -0.3488  0.0689
 1991TIP3    H130168   5.075   1.524   7.818 -0.0891  0.5887 -0.1063
 1991TIP3    H230169   5.211   1.541   7.881 -0.7160  3.5005  0.5854
 1992TIP3   OH230170   6.118   1.759   9.098 -0.7772 -0.4988  0.4066
 1992TIP3    H130171   6.039   1.780   9.147 -1.5846 -0.7385 -0.7548
 1992TIP3    H230172   6.089   1.752   9.007  0.3299 -1.9032  0.1231
 1993TIP3   OH230173   5.025   6.754   8.507 -0.4137  0.6546  0.5753
 1993TIP3    H130174   5.074   6.835   8.524 -0.1050  0.5670  0.1450
 1993TIP3    H230175   5.091   6.685   8.513 -0.5091  0.5197  0.1499
 1994TIP3   OH230176   5.172   3.438   8.766  0.4089  0.5225  0.2555
 1994TIP3    H130177   5.186   3.352   8.806  0.4074  0.8733  1.0199
 1994TIP3    H230178   5.225   3.498   8.818  0.8773  0.9043 -0.6366
 1995TIP3   OH230179   2.606   2.629   7.667 -0.0601  0.0498 -0.6350
 1995TIP3    H130180   2.647   2.553   7.625  1.0833  0.8938 -1.1012
 1995TIP3    H230181   2.661   2.703   7.641 -0.6893  0.9308  0.4592
 1996TIP3   OH230182   7.184   4.464   7.026 -0.0662 -0.5112  0.3637
 1996TIP3    H130183   7.147   4.531   6.968 -0.3529 -0.2563  0.8364
 1996TIP3    H230184   7.137   4.475   7.108 -0.2127 -1.3806  0.4088
 1997TIP3   OH230185   3.060   2.816   8.929  0.0028 -0.3522  0.1842
 1997TIP3    H130186   3.149   2.801   8.899  0.0926 -0.2272  0.3871
 1997TIP3    H230187   3.010   2.741   8.895 -0.2380  0.5710 -1.6551
 1998TIP3   OH230188   0.735   4.430   8.431 -0.0893 -0.2514 -0.4917
 1998TIP3    H130189   0.764   4.424   8.522 -0.3934  0.0426 -0.3741
 1998TIP3    H230190   0.643   4.404   8.433 -0.3539  0.6411 -0.5655
 1999TIP3   OH230191   0.010   2.944   8.159  0.3192  0.0590  0.4500
 1999TIP3    H130192  -0.068   2.999   8.158 -1.0190 -1.7434  0.4851
 1999TIP3    H230193   0.062   2.973   8.084 -0.1835  1.5291  0.6437
 2000TIP3   OH230194   5.346   1.518   8.446  0.2713 -0.2061  0.4835
 2000TIP3    H130195   5.290   1.452   8.486  1.3162 -0.5353  1.4892
 2000TIP3    H230196   5.365   1.484   8.359 -0.3263 -0.5532  0.4880
 2001TIP3   OH230197   1.003   4.251   8.815  0.5032  0.5049 -0.4046
 2001TIP3    H130198   1.008   4.261   8.910  1.4930  0.3172 -0.4278
 2001TIP3    H230199   1.079   4.299   8.782  0.5174  0.0440 -1.0605
 2002TIP3   OH230200   2.051   7.089   8.132 -0.2543 -0.6012  0.2279
 2002TIP3    H130201   2.105   7.127   8.202 -1.3368 -0.0771  0.8040
 2002TIP3    H230202   2.065   7.146   8.057  1.3589 -1.4917 -0.1889
 2003TIP3   OH230203   5.584   4.486   7.839 -0.5277  0.0638  0.3735
 2003TIP3    H130204   5.645   4.540   7.889  1.2675 -0.8495 -0.7334
 2003TIP3    H230205   5.534   4.438   7.905  1.2597 -0.5430  1.3587
 2004TIP3   OH230206   3.911   4.035   7.628  0.1124 -0.8966  0.1171
 2004TIP3    H130207   3.844   4.090   7.587  1.5114 -1.0146 -2.5667
 2004TIP3    H230208   3.974   4.097   7.664  0.1133 -0.7430 -0.1443
 2005TIP3   OH230209   5.930   3.988   7.193  0.0796  0.5152  0.1138
 2005TIP3    H130210   5.916   4.007   7.100 -0.7610  0.1407  0.1517
 2005TIP3    H230211   5.841   3.976   7.228  0.2016  2.8071  1.4319
 2006TIP3   OH230212   3.495   1.916   7.220  0.4648 -0.2923 -0.1433
 2006TIP3    H130213   3.454   1.996   7.189 -1.0014 -0.3899  1.3964
 2006TIP3    H230214   3.573   1.946   7.267 -1.3578  0.5695  2.5972
 2007TIP3   OH230215   0.834   0.275   8.290 -0.6275  0.1321 -0.2686
 2007TIP3    H130216   0.873   0.342   8.235  1.2741  0.0803  0.9142
 2007TIP3    H230217   0.740   0.296   8.291 -0.1593  2.4820 -0.3193
 2008TIP3   OH230218   1.473   7.133   9.006 -0.6725  0.8636 -0.3371
 2008TIP3    H130219   1.491   7.134   8.912 -0.9354 -0.2689 -0.4050
 2008TIP3    H230220   1.550   7.173   9.046 -0.0020  0.1801 -0.9420
 2009TIP3   OH230221   0.578   7.281   8.117  0.6313 -0.1662  0.2059
 2009TIP3    H130222   0.506   7.244   8.066 -0.6497  2.5633 -0.1351
 2009TIP3    H230223   0.538   7.309   8.199  1.4035  0.8486  0.2552
 2010TIP3   OH230224   6.384   3.802   7.428 -0.0329 -0.3559  0.0349
 2010TIP3    H130225   6.392   3.858   7.506 -0.4691 -2.6150  1.7915
 2010TIP3    H230226   6.318   3.737   7.451  0.5297 -1.6860 -1.8705
 2011TIP3   OH230227   6.698   7.089   9.080  0.1804  0.7155 -0.3237
 2011TIP3    H130228   6.604   7.074   9.076  0.4236 -1.4164  0.6947
 2011TIP3    H230229   6.708   7.162   9.141 -0.7376 -1.0531  2.1051
 2012TIP3   OH230230   3.591   4.763   7.484  0.7810 -0.1147  0.6917
 2012TIP3    H130231   3.543   4.807   7.555  2.1448  0.5430  1.2499
 2012TIP3    H230232   3.524   4.739   7.421 -0.4993 -0.7587  2.2275
 2013TIP3   OH230233   0.149   7.652   8.760 -0.0827 -0.6303  0.3177
 2013TIP3    H130234   0.122   7.668   8.851 -0.7182  0.7670 -0.0990
 2013TIP3    H230235   0.222   7.713   8.745 -1.2098  0.5244 -0.6692
 2014TIP3   OH230236   0.925   1.336   8.899 -0.4858  0.2207  0.0912
 2014TIP3    H130237   1.021   1.339   8.910 -0.2415 -2.1458 -0.8333
 2014TIP3    H230238   0.908   1.398   8.828  0.2330  1.2526  0.7755
 2015TIP3   OH230239   0.654   5.620   7.494 -0.1224 -0.1276  0.0241
 2015TIP3    H130240   0.706   5.651   7.420  0.0884  1.9390  0.9536
 2015TIP3    H230241   0.576   5.582   7.455  0.7541 -0.6564 -1.2921
 2016TIP3   OH230242   0.544   1.931   8.654  0.0323  0.1013 -0.0186
 2016TIP3    H130243   0.478   1.999   8.638  0.8920  1.4767  1.9131
 2016TIP3    H230244   0.612   1.975   8.705  0.5397 -2.2519  1.4923
 2017TIP3   OH230245   7.022   4.672   7.922  0.0632  0.0697 -0.0617
 2017TIP3    H130246   6.964   4.682   7.846  0.3842 -0.7232 -0.4223
 2017TIP3    H230247   7.058   4.759   7.937 -1.3471  0.6255  0.2726
 2018TIP3   OH230248   5.233   2.538   8.362 -0.7333 -0.0870  0.5684
 2018TIP3    H130249   5.183   2.616   8.339 -1.6654 -1.2398 -1.5786
 2018TIP3    H230250   5.167   2.476   8.393 -0.5620 -1.2411 -1.2339
 2019TIP3   OH230251   2.373   0.949   7.331  0.0683  0.0341 -0.6969
 2019TIP3    H130252   2.329   0.942   7.416  1.9792 -1.7057  0.2311
 2019TIP3    H230253   2.358   0.864   7.289  1.3522 -0.0947 -0.9380
 2020TIP3   OH230254   4.974   3.868   8.603  0.4747  0.4425 -0.0236
 2020TIP3    H130255   5.039   3.902   8.541 -0.3673 -0.0840 -1.2326
 2020TIP3    H230256   5.001   3.778   8.619 -0.8766 -0.3933 -1.9522
 2021TIP3   OH230257   2.185   1.064   9.735  0.5989  0.1292 -0.8287
 2021TIP3    H130258   2.280   1.065   9.724  0.4038  1.5769 -2.8347
 2021TIP3    H230259   2.162   0.971   9.740  2.0249 -0.2559 -1.1707
 2022TIP3   OH230260   4.595   6.731   7.744 -0.1308 -0.3578  0.0500
 2022TIP3    H130261   4.623   6.640   7.735  0.3762 -0.2401  0.3972
 2022TIP3    H230262   4.676   6.782   7.734 -0.2337 -0.0075  0.9445
 2023TIP3   OH230263   5.222   7.435   8.202 -0.8127  0.0857  0.2433
 2023TIP3    H130264   5.145   7.453   8.255 -1.3210  0.8973 -0.7332
 2023TIP3    H230265   5.289   7.408   8.265 -1.9277 -0.8245  1.0868
 2024TIP3   OH230266   3.015   6.298   7.936 -0.6615  0.2719  0.3768
 2024TIP3    H130267   3.006   6.216   7.985 -0.4926  0.3038  0.4614
 2024TIP3    H230268   3.071   6.275   7.861  0.3689  0.5752  1.0298
 2025TIP3   OH230269   2.269   6.876   8.600 -0.4755 -0.4531  0.4435
 2025TIP3    H130270   2.310   6.789   8.599 -1.2193 -0.8331 -0.8644
 2025TIP3    H230271   2.288   6.912   8.513  0.0164  0.8053  1.0512
 2026TIP3   OH230272   6.026   7.653   7.793 -0.0981 -0.0793 -0.4006
 2026TIP3    H130273   5.966   7.600   7.741  1.1399 -1.7797 -0.1753
 2026TIP3    H230274   5.983   7.739   7.800 -1.2498 -0.4399 -2.4326
 2027TIP3   OH230275   2.171   5.114   7.587  0.1103  0.0729 -0.3174
 2027TIP3    H130276   2.090   5.143   7.544 -1.2363 -0.6443  1.6139
 2027TIP3    H230277   2.226   5.082   7.515 -1.2504  0.7066 -1.6992
 2028TIP3   OH230278   2.941   2.703   9.231  0.0898 -0.4050  0.1565
 2028TIP3    H130279   2.915   2.650   9.306  0.9873  1.7594  2.1333
 2028TIP3    H230280   2.941   2.793   9.265 -1.0987  0.8821 -2.9202
 2029TIP3   OH230281   6.062   1.757   7.292  0.3418 -0.1814 -0.1671
 2029TIP3    H130282   5.996   1.688   7.279  0.5722 -0.5289  0.4769
 2029TIP3    H230283   6.145   1.710   7.296  0.4591  0.0876  0.7016
 2030TIP3   OH230284   6.080   0.081   8.523 -0.0752  0.7778 -0.1834
 2030TIP3    H130285   6.131   0.115   8.597  0.2776  0.2468 -0.1758
 2030TIP3    H230286   6.068   0.156   8.466  0.8605  0.8857 -0.2583
 2031TIP3   OH230287   3.940   2.527   8.236  0.2207  0.1968  0.3542
 2031TIP3    H130288   3.966   2.443   8.274  1.4952  0.2852 -0.2718
 2031TIP3    H230289   3.931   2.585   8.312  2.1515  0.2147  0.6405
 2032TIP3   OH230290   4.064   7.477   8.511  0.4995 -0.1105 -0.1843
 2032TIP3    H130291   4.096   7.406   8.566 -1.0474  0.4225  1.5081
 2032TIP3    H230292   3.978   7.447   8.481 -0.0709  0.9220  0.3644
 2033TIP3   OH230293   0.886   6.295   7.868 -0.1255  0.1004 -0.0553
 2033TIP3    H130294   0.883   6.362   7.936  1.0104  2.1511 -1.8901
 2033TIP3    H230295   0.972   6.254   7.879  0.1520  0.5883 -0.3766
 2034TIP3   OH230296   1.735   5.866   8.155  0.1900  0.0228 -0.5085
 2034TIP3    H130297   1.646   5.896   8.135 -0.0645  0.4333  1.0674
 2034TIP3    H230298   1.792   5.925   8.107 -0.3865  0.1610 -1.0279
 2035TIP3   OH230299   1.195   1.116   9.518  0.3799  0.0021 -0.1764
 2035TIP3    H130300   1.281   1.156   9.505  0.1998  0.7102  0.6696
 2035TIP3    H230301   1.203   1.028   9.482  1.3315  0.2056 -0.4853
 2036TIP3   OH230302   7.203   5.842   8.039 -0.3808 -0.2302  0.0492
 2036TIP3    H130303   7.194   5.818   7.947 -0.8714  0.4161 -0.0859
 2036TIP3    H230304   7.126   5.804   8.082 -0.4116 -0.1139  0.0976
 2037TIP3   OH230305   6.598   0.602   9.706  0.1342 -0.0154  0.1969
 2037TIP3    H130306   6.520   0.629   9.755 -1.0123 -1.4200 -0.7932
 2037TIP3    H230307   6.568   0.591   9.616  1.8213  0.8172 -0.5347
 2038TIP3   OH230308   0.421   7.105   7.983  0.2354  0.2220  0.3466
 2038TIP3    H130309   0.433   7.080   8.075  0.1624  1.1866  0.6299
 2038TIP3    H230310   0.342   7.058   7.956  1.2911 -1.5783  0.1883
 2039TIP3   OH230311   1.041   4.970   7.995  0.6376 -0.0062  0.4588
 2039TIP3    H130312   0.956   5.008   8.016  0.7520 -0.5678  2.1904
 2039TIP3    H230313   1.095   5.043   7.967  0.2413  0.7585  1.6284
 2040TIP3   OH230314   7.611   0.231   8.350 -0.4463 -0.3263 -0.6810
 2040TIP3    H130315   7.627   0.264   8.261 -0.7893 -1.0728 -1.0236
 2040TIP3    H230316   7.690   0.182   8.372 -0.0509  0.4676 -0.2762
 2041TIP3   OH230317   7.446   2.960   7.887 -0.0385  0.0230 -0.4745
 2041TIP3    H130318   7.389   2.992   7.817  1.3019  0.7488 -1.2770
 2041TIP3    H230319   7.530   2.944   7.845  0.5462 -0.4313  0.7930
 2042TIP3   OH230320   5.597   0.078   8.919 -0.0920  0.2109  1.0935
 2042TIP3    H130321   5.507   0.085   8.952 -0.6702 -1.2662 -0.0600
 2042TIP3    H230322   5.600  -0.006   8.873  0.9202  1.6238 -1.7220
 2043TIP3   OH230323   7.164   2.447   9.170 -0.5659  0.2946 -0.3367
 2043TIP3    H130324   7.178   2.352   9.164  0.0687  0.4068 -0.7017
 2043TIP3    H230325   7.088   2.463   9.115 -1.0203 -0.0776  0.1746
 2044TIP3   OH230326   0.336   7.451   7.831 -0.3514 -0.1885  0.1865
 2044TIP3    H130327   0.376   7.537   7.842  0.7032 -0.5962 -0.2491
 2044TIP3    H230328   0.287   7.457   7.749 -2.5776  0.7935  1.4978
 2045TIP3   OH230329   3.431   1.529   7.080  0.1908  0.0835 -0.5741
 2045TIP3    H130330   3.441   1.619   7.050  1.3942  0.0092 -0.4437
 2045TIP3    H230331   3.491   1.479   7.026 -0.6039 -0.6823 -0.7712
 2046TIP3   OH230332   5.770   7.006   8.201 -0.2337  0.2277  0.2680
 2046TIP3    H130333   5.864   7.007   8.180 -0.3875  0.6639 -0.4015
 2046TIP3    H230334   5.759   6.926   8.253  0.1486 -0.9286 -1.3593
 2047TIP3   OH230335   5.701   4.295   9.366 -0.1396 -0.1832 -0.5566
 2047TIP3    H130336   5.734   4.290   9.455 -3.2552 -1.3198  0.6682
 2047TIP3    H230337   5.779   4.289   9.311  1.9464  1.1339  2.0318
 2048TIP3   OH230338   0.146   4.214   7.886 -0.2797  0.1569 -0.2973
 2048TIP3    H130339   0.101   4.183   7.807 -0.7274  0.8116 -0.3106
 2048TIP3    H230340   0.112   4.303   7.899  2.5651  1.5635 -1.5443
 2049TIP3   OH230341   6.304   6.365   8.763  0.8078 -0.9058 -0.7491
 2049TIP3    H130342   6.248   6.388   8.689 -0.7520  2.3152  1.2130
 2049TIP3    H230343   6.389   6.406   8.743  0.7280 -0.9692 -1.2214
 2050TIP3   OH230344   3.385   5.118   9.407 -0.1795  0.0003 -0.1624
 2050TIP3    H130345   3.370   5.209   9.380  0.2476  0.0402 -0.2687
 2050TIP3    H230346   3.299   5.077   9.401 -0.4784  0.5309  0.3895
 2051TIP3   OH230347   1.667   5.219   9.370 -0.1962  0.3035  0.1143
 2051TIP3    H130348   1.647   5.312   9.366  1.8294  0.7934 -0.1211
 2051TIP3    H230349   1.641   5.192   9.458 -1.5676  0.8670 -0.0944
 2052TIP3   OH230350   3.497   3.730   7.978 -0.4070  0.2466  0.1313
 2052TIP3    H130351   3.583   3.689   7.969 -0.8168 -0.6450  0.1213
 2052TIP3    H230352   3.500   3.775   8.063  0.1055  0.3313  0.0717
 2053TIP3   OH230353   5.229   3.727   8.262  0.1084 -0.0687  0.1076
 2053TIP3    H130354   5.203   3.730   8.169  2.7863  1.6160 -0.6981
 2053TIP3    H230355   5.270   3.641   8.272 -2.2963 -1.2609  0.4577
 2054TIP3   OH230356   2.088   6.655   8.503 -0.3252 -0.4824  0.1764
 2054TIP3    H130357   2.140   6.582   8.537  0.6347 -0.5042 -1.2392
 2054TIP3    H230358   2.143   6.694   8.435 -0.6483  1.8180  1.1435
 2055TIP3   OH230359   2.227   3.121   7.926 -0.3967  0.2164  0.0571
 2055TIP3    H130360   2.249   3.053   7.989 -2.2143 -1.4829 -1.0019
 2055TIP3    H230361   2.280   3.100   7.849 -2.2981 -1.2423 -0.9410
 2056TIP3   OH230362   4.892   0.043   7.050  0.1334  0.2382  0.1371
 2056TIP3    H130363   4.982   0.026   7.022  0.1378  1.4439 -0.6344
 2056TIP3    H230364   4.896   0.128   7.094 -0.8359  0.9316 -1.0661
 2057TIP3   OH230365   7.237   6.362   8.926 -0.3021  0.3227  0.0335
 2057TIP3    H130366   7.331   6.346   8.935 -0.2145  0.5682 -0.4358
 2057TIP3    H230367   7.214   6.329   8.839 -0.4540  1.1509 -0.2540
 2058TIP3   OH230368   2.869   2.124   8.168  0.4809  0.5785  0.1334
 2058TIP3    H130369   2.869   2.194   8.234  0.4005  0.0571  0.6910
 2058TIP3    H230370   2.911   2.164   8.092 -0.4507  1.5538  0.1030
 2059TIP3   OH230371   5.424   6.731   6.960 -0.9597  0.6572 -0.5813
 2059TIP3    H130372   5.392   6.642   6.947  0.1999  0.0511  0.5287
 2059TIP3    H230373   5.516   6.728   6.935  0.5145  0.2163  4.0008
 2060TIP3   OH230374   0.470   1.040   8.983 -0.2990  0.1735  0.3492
 2060TIP3    H130375   0.493   1.131   8.967  0.6058  0.1545  1.4306
 2060TIP3    H230376   0.453   1.036   9.077 -1.2510 -0.5860  0.1620
 2061TIP3   OH230377   1.721   1.425   8.955  0.2993 -0.6944 -0.3459
 2061TIP3    H130378   1.817   1.423   8.958  0.2800 -0.7771  0.2703
 2061TIP3    H230379   1.701   1.450   8.865  0.8934 -1.4108 -0.6975
 2062TIP3   OH230380   4.345   2.669   9.388  0.3736  0.2763 -0.5237
 2062TIP3    H130381   4.390   2.668   9.303  1.7243 -0.1207  0.1679
 2062TIP3    H230382   4.358   2.580   9.422 -2.1973 -0.3160 -0.8990
 2063TIP3   OH230383   7.027   2.976   8.049  0.1080  0.1444 -0.0920
 2063TIP3    H130384   7.121   2.976   8.070  0.0523  0.7412  0.1883
 2063TIP3    H230385   6.983   2.978   8.135 -0.1935 -1.6059 -0.1817
 2064TIP3   OH230386   5.266   3.509   6.587 -0.0321  0.1188  0.3977
 2064TIP3    H130387   5.257   3.601   6.612  0.5410  0.0564  0.8548
 2064TIP3    H230388   5.286   3.512   6.493  1.1560  0.5276  0.6457
 2065TIP3   OH230389   0.196   0.224   8.655 -0.1222  0.4308  0.3136
 2065TIP3    H130390   0.281   0.226   8.612  0.0357 -2.3648  0.3085
 2065TIP3    H230391   0.158   0.310   8.637  1.5869  0.8086 -1.9807
 2066TIP3   OH230392   5.786   1.421   7.420  0.0692  0.2263  0.2572
 2066TIP3    H130393   5.819   1.392   7.505 -0.9318 -1.2670  0.1761
 2066TIP3    H230394   5.723   1.354   7.394 -0.3161  1.1124 -1.2596
 2067TIP3   OH230395   6.679   1.306   8.222  0.1159 -0.2525  0.0088
 2067TIP3    H130396   6.690   1.402   8.221  1.1311 -0.3530 -1.0238
 2067TIP3    H230397   6.635   1.287   8.139 -0.1042 -0.6804  0.2250
 2068TIP3   OH230398   1.877   2.055   7.696  0.9958 -1.0604 -0.0742
 2068TIP3    H130399   1.897   2.148   7.711  0.3596 -0.6441 -1.6833
 2068TIP3    H230400   1.961   2.016   7.672  0.9684 -0.5204 -1.1104
 2069TIP3   OH230401   5.279   4.294   7.999  0.0855  0.4207  0.0512
 2069TIP3    H130402   5.225   4.320   7.925 -0.0532 -1.2146 -0.4690
 2069TIP3    H230403   5.322   4.214   7.970  2.5218  1.4434  0.5937
 2070TIP3   OH230404   2.636   4.615   7.357  0.3397 -0.3546 -0.3025
 2070TIP3    H130405   2.655   4.528   7.322 -0.6629 -1.5306  1.8420
 2070TIP3    H230406   2.706   4.631   7.420  0.0388 -0.0127 -0.0491
 2071TIP3   OH230407   2.643   4.382   7.212  0.4143 -0.2137 -0.3404
 2071TIP3    H130408   2.561   4.372   7.163  0.0253  0.3265  0.1972
 2071TIP3    H230409   2.667   4.292   7.236  1.0946 -0.6112 -2.2669
 2072TIP3   OH230410   0.479   0.186   8.541  0.2321 -0.7697 -0.0412
 2072TIP3    H130411   0.457   0.278   8.526  1.4909 -0.3815  0.3865
 2072TIP3    H230412   0.494   0.180   8.635 -1.1373 -1.7352  0.1562
 2073TIP3   OH230413   5.662   4.962   9.694  0.0368  0.0155  0.2578
 2073TIP3    H130414   5.748   4.972   9.655 -0.6505 -1.4935 -1.8199
 2073TIP3    H230415   5.679   4.921   9.779  1.4550  1.6628  0.8128
 2074TIP3   OH230416   7.639   3.838   9.412 -0.0330 -0.1870 -0.6031
 2074TIP3    H130417   7.658   3.756   9.459  0.0050  0.6398  0.8772
 2074TIP3    H230418   7.723   3.863   9.373  0.3534 -0.0471  0.2806
 2075TIP3   OH230419   1.788   1.249   7.241  0.1933  0.2030  0.4109
 2075TIP3    H130420   1.811   1.340   7.220  0.7184  0.1701  0.8266
 2075TIP3    H230421   1.869   1.200   7.228  0.3070  0.0394  1.5962
 2076TIP3   OH230422   3.033   0.805   7.878 -0.2507 -0.3412  0.3027
 2076TIP3    H130423   2.940   0.782   7.888 -0.2093 -0.4710  0.3864
 2076TIP3    H230424   3.036   0.855   7.796 -0.0973 -1.9898 -0.7505
 2077TIP3   OH230425   7.658   1.801   6.696 -0.3653  0.2753  0.7425
 2077TIP3    H130426   7.751   1.819   6.710  0.0339 -0.0734 -1.1294
 2077TIP3    H230427   7.653   1.705   6.693 -0.2760  0.2704 -1.6923
 2078TIP3   OH230428   2.495   4.873   9.372 -0.1127 -0.8650  0.4233
 2078TIP3    H130429   2.522   4.859   9.463  0.0099  1.4228  0.8004
 2078TIP3    H230430   2.507   4.967   9.357 -2.2458 -0.7575 -1.2587
 2079TIP3   OH230431   2.650   2.734   8.864 -0.5717  0.5246  0.5825
 2079TIP3    H130432   2.556   2.749   8.875 -1.3175 -1.9479 -1.3718
 2079TIP3    H230433   2.677   2.798   8.797 -1.7013 -0.8659 -1.3087
 2080TIP3   OH230434   4.131   0.004   7.707  0.8914 -0.0450 -0.3582
 2080TIP3    H130435   4.119   0.042   7.620  1.3791 -1.1936 -0.9456
 2080TIP3    H230436   4.065   0.046   7.761  1.7927  2.0836 -0.8138
 2081TIP3   OH230437   0.366   0.157   9.432 -0.0345  0.3010 -0.0707
 2081TIP3    H130438   0.272   0.146   9.443  0.0454  0.2726  0.6322
 2081TIP3    H230439   0.384   0.121   9.345 -0.5843 -0.2135  0.0185
 2082TIP3   OH230440   6.014   6.998   8.585  0.6798  0.5732 -0.7785
 2082TIP3    H130441   5.990   7.057   8.514  1.9682  2.6684  0.4090
 2082TIP3    H230442   6.096   6.957   8.557 -0.1659 -0.6657 -1.5609
 2083TIP3   OH230443   7.568   3.351   9.395 -0.2633  0.0959  0.1700
 2083TIP3    H130444   7.490   3.383   9.438 -0.2169  1.0254 -0.4197
 2083TIP3    H230445   7.550   3.362   9.301  0.3210 -0.2764  0.0075
 2084TIP3   OH230446   0.906   2.899   8.495 -0.0166 -0.0153  0.0108
 2084TIP3    H130447   0.873   2.947   8.571 -0.9711  0.6613 -0.7938
 2084TIP3    H230448   0.827   2.875   8.446  0.4129 -2.6284  0.4623
 2085TIP3   OH230449   0.938   3.961   8.877  0.5767  0.2019  0.2782
 2085TIP3    H130450   1.007   4.027   8.880  1.3331 -0.5729  0.3913
 2085TIP3    H230451   0.884   3.987   8.802  0.4973  1.2848  0.6930
 2086TIP3   OH230452   4.302   5.104   8.312  0.0388 -0.4259  0.1672
 2086TIP3    H130453   4.371   5.076   8.252 -0.0637 -2.3137  0.8676
 2086TIP3    H230454   4.221   5.070   8.274 -0.4102  0.9238 -0.1323
 2087TIP3   OH230455   7.345   0.128   7.108  0.3009  0.4755 -0.2332
 2087TIP3    H130456   7.364   0.040   7.076  1.8947 -0.2876  2.4464
 2087TIP3    H230457   7.250   0.135   7.103 -0.2130 -2.6033  1.9844
 2088TIP3   OH230458   1.982   0.427   8.867 -0.3619  0.5242 -0.0767
 2088TIP3    H130459   1.967   0.471   8.951 -0.0151 -1.5344  1.1383
 2088TIP3    H230460   1.982   0.497   8.802 -2.4489  2.0182  1.4060
 2089TIP3   OH230461   2.109   5.160   8.560  0.2475 -0.5745  0.3408
 2089TIP3    H130462   2.083   5.247   8.528  2.2077  0.0946  0.4167
 2089TIP3    H230463   2.100   5.166   8.656 -0.0834 -0.6236  0.3131
 2090TIP3   OH230464   6.053   0.480   9.363  0.0253  0.4435  0.0437
 2090TIP3    H130465   5.962   0.473   9.334  0.0461  0.5020 -0.0382
 2090TIP3    H230466   6.054   0.556   9.421 -0.1849 -0.1752  0.8665
 2091TIP3   OH230467   4.728   6.996   8.534  0.1598  0.5278  0.7863
 2091TIP3    H130468   4.759   7.086   8.518  0.0239  0.2451 -1.2382
 2091TIP3    H230469   4.705   6.962   8.448  1.1901 -1.8441  1.3679
 2092TIP3   OH230470   0.224   1.395   9.403 -0.8784 -0.1952  0.3169
 2092TIP3    H130471   0.185   1.309   9.421 -2.2860  0.8635  2.8393
 2092TIP3    H230472   0.195   1.415   9.314 -1.8470 -1.6606  0.2479
 2093TIP3   OH230473   1.201   6.907   6.823 -0.4933 -0.8108  0.0984
 2093TIP3    H130474   1.235   6.872   6.905  0.3400 -0.6506 -0.1611
 2093TIP3    H230475   1.201   6.832   6.763 -0.7877 -0.8533  0.1505
 2094TIP3   OH230476   1.279   1.939   7.391  0.8583 -0.1912  0.0554
 2094TIP3    H130477   1.309   2.030   7.398 -1.6949  0.8300 -1.0033
 2094TIP3    H230478   1.331   1.902   7.319  1.9155  0.4188  0.4941
 2095TIP3   OH230479   1.685   0.059   6.668 -0.4768 -0.4265  0.0722
 2095TIP3    H130480   1.736   0.081   6.746 -0.5122 -1.4299  0.4058
 2095TIP3    H230481   1.716   0.119   6.600  1.2158 -1.0541  0.2437
 2096TIP3   OH230482   2.034   6.380   7.961 -0.2484  0.1555  0.2906
 2096TIP3    H130483   2.097   6.325   8.008  1.4413  1.1853 -0.6911
 2096TIP3    H230484   2.026   6.459   8.014  0.6863  0.7838 -0.4873
 2097TIP3   OH230485   7.522   2.797   9.040 -0.1383 -0.3384  0.5393
 2097TIP3    H130486   7.540   2.816   8.948  0.2846 -0.6260  0.5571
 2097TIP3    H230487   7.517   2.883   9.082  0.9047 -0.2241  0.4666
 2098TIP3   OH230488   1.083   6.054   7.271 -0.1582 -0.5364 -0.4569
 2098TIP3    H130489   1.036   6.136   7.288 -0.6439 -1.1757  1.5160
 2098TIP3    H230490   1.057   6.030   7.182  0.6701  1.8441 -1.4340
 2099TIP3   OH230491   2.956   1.182   7.480  0.0891 -0.1781  0.0589
 2099TIP3    H130492   2.982   1.272   7.500  1.2304 -0.6205  0.6304
 2099TIP3    H230493   2.887   1.192   7.414  0.5262  1.1035 -0.2449
 2100TIP3   OH230494   1.399   2.699   8.157 -0.0758 -0.2954  0.1789
 2100TIP3    H130495   1.464   2.737   8.098 -1.2090  1.1351 -0.2380
 2100TIP3    H230496   1.382   2.612   8.121  2.2963 -1.1257  0.9017
 2101TIP3   OH230497   1.414   0.526   8.280  0.0737  0.2890 -0.1075
 2101TIP3    H130498   1.507   0.525   8.304  0.0559  0.2871 -0.0369
 2101TIP3    H230499   1.401   0.612   8.240  0.2649  0.0168 -0.7694
 2102TIP3   OH230500   5.538   6.536   7.213 -0.0560  0.0170  0.4048
 2102TIP3    H130501   5.515   6.468   7.150  0.7839 -0.9442  1.1116
 2102TIP3    H230502   5.632   6.547   7.204 -0.4537  2.9942 -1.5559
 2103TIP3   OH230503   7.601   5.076   7.843  0.0162  0.1215 -0.1825
 2103TIP3    H130504   7.516   5.116   7.823 -0.6194 -1.2094 -0.2162
 2103TIP3    H230505   7.618   5.099   7.934  0.3878  1.7095 -0.6166
 2104TIP3   OH230506   3.534   2.486   7.369 -0.2442 -0.8367 -0.3806
 2104TIP3    H130507   3.515   2.580   7.369  0.4398 -0.6485  1.5691
 2104TIP3    H230508   3.564   2.467   7.280  0.9016  1.0859 -0.4676
 2105TIP3   OH230509   4.300   3.540   8.812 -0.9391  0.7885  0.4319
 2105TIP3    H130510   4.222   3.593   8.833 -1.6044  0.2560 -0.6602
 2105TIP3    H230511   4.318   3.559   8.721 -1.2585 -0.9463 -0.0266
 2106TIP3   OH230512   6.812   3.887   6.875  0.1209  0.2608 -0.3259
 2106TIP3    H130513   6.775   3.803   6.848 -1.4349  0.2542  1.6123
 2106TIP3    H230514   6.891   3.896   6.822 -1.5095 -0.7159 -3.1836
 2107TIP3   OH230515   1.082   6.451   6.809 -0.5568  0.1762  0.0712
 2107TIP3    H130516   1.001   6.470   6.858  0.4150  2.8698  0.8068
 2107TIP3    H230517   1.145   6.425   6.877 -0.7737 -2.0195 -0.5117
 2108TIP3   OH230518   2.122   1.392   9.311  0.2439 -0.8066 -0.7104
 2108TIP3    H130519   2.102   1.327   9.378  0.6432 -0.3623 -0.1476
 2108TIP3    H230520   2.210   1.423   9.334 -0.4080  0.7995 -0.2431
 2109TIP3   OH230521   3.052   1.202   8.591  0.0412 -0.1918  0.6102
 2109TIP3    H130522   3.134   1.220   8.545 -1.1769  0.0252 -1.5965
 2109TIP3    H230523   3.050   1.266   8.662  1.3259  0.4376  0.1133
 2110TIP3   OH230524   5.180   3.357   8.253 -0.2508 -0.4763  0.3852
 2110TIP3    H130525   5.102   3.307   8.277  0.3562 -1.9747 -0.6322
 2110TIP3    H230526   5.240   3.343   8.326 -0.1266 -1.1722  0.1582
 2111TIP3   OH230527   4.202   1.147   8.374  0.4942  0.9877 -0.0578
 2111TIP3    H130528   4.162   1.213   8.431  0.0036  0.2069  0.5208
 2111TIP3    H230529   4.145   1.145   8.297 -0.5933 -0.0652  0.7285
 2112TIP3   OH230530   0.373   5.818   8.120 -0.1900 -0.0478  0.4832
 2112TIP3    H130531   0.383   5.905   8.083  0.7249 -0.4918 -0.3534
 2112TIP3    H230532   0.460   5.795   8.152  0.2848 -1.7034 -1.7609
 2113TIP3   OH230533   6.804   4.495   7.869 -0.0959  0.2303  0.4291
 2113TIP3    H130534   6.772   4.566   7.813  0.1567  1.4975  1.8483
 2113TIP3    H230535   6.829   4.538   7.951  1.9858 -1.2061  0.6219
 2114TIP3   OH230536   0.599   3.744   6.870 -0.0013  0.0438  0.2096
 2114TIP3    H130537   0.694   3.736   6.874  0.1490  1.6655  0.4911
 2114TIP3    H230538   0.583   3.791   6.788 -0.5472 -0.0345  0.2703
 2115TIP3   OH230539   2.082   0.947   8.089 -0.0124  0.0388 -0.4991
 2115TIP3    H130540   2.067   1.036   8.122  2.2905 -0.2662  1.5694
 2115TIP3    H230541   2.176   0.942   8.075 -0.3092 -1.5525 -2.3535
 2116TIP3   OH230542   6.640   0.718   7.818  0.1184 -0.3876 -0.5121
 2116TIP3    H130543   6.645   0.630   7.780  2.4181  0.7365 -3.1348
 2116TIP3    H230544   6.575   0.763   7.764  0.5405  0.1240 -0.5971
 2117TIP3   OH230545   2.613   6.543   7.883 -0.1707 -0.0143 -0.4994
 2117TIP3    H130546   2.686   6.584   7.930 -0.2803 -0.3966  0.0106
 2117TIP3    H230547   2.644   6.537   7.793  0.6941 -0.7700 -0.1686
 2118TIP3   OH230548   4.789   0.745   8.749 -0.0144 -0.2197  0.2537
 2118TIP3    H130549   4.812   0.815   8.687 -0.5564 -0.2448  0.0186
 2118TIP3    H230550   4.836   0.767   8.829  1.3999 -0.6462 -0.4175
 2119TIP3   OH230551   2.782   5.352   8.099  0.4165 -0.3919 -0.2043
 2119TIP3    H130552   2.872   5.355   8.065  0.8232 -0.1484  0.8444
 2119TIP3    H230553   2.758   5.444   8.112  0.9258 -0.4927  1.7614
 2120TIP3   OH230554   0.468   3.710   7.510 -0.1071 -0.3295  0.6099
 2120TIP3    H130555   0.378   3.691   7.483  0.1702  0.5636 -1.0882
 2120TIP3    H230556   0.520   3.694   7.432  1.0115  0.6572  1.1243
 2121TIP3   OH230557   6.254   4.608   8.339 -0.2841 -0.6996  0.3226
 2121TIP3    H130558   6.259   4.663   8.418  0.3934 -2.4412  1.5569
 2121TIP3    H230559   6.230   4.669   8.269  0.4153  1.1590  1.6143
 2122TIP3   OH230560   2.412   4.267   7.898  0.0694 -0.4265 -0.1546
 2122TIP3    H130561   2.351   4.193   7.905  0.4617 -0.6430  1.1361
 2122TIP3    H230562   2.362   4.342   7.929  0.4735 -0.6234  1.0090
 2123TIP3   OH230563   1.933   0.536   8.358  0.3366  0.0446  0.5698
 2123TIP3    H130564   1.964   0.454   8.398 -0.3970 -0.4909  0.0879
 2123TIP3    H230565   2.008   0.595   8.362  0.7594 -0.5230  1.2881
 2124TIP3   OH230566   0.637   4.937   6.769 -0.1469 -0.4043 -0.4200
 2124TIP3    H130567   0.621   4.881   6.845  1.0091 -0.6560 -0.3415
 2124TIP3    H230568   0.550   4.966   6.742 -0.6421 -0.9937  0.4805
 2125TIP3   OH230569   5.721   5.373   7.974 -0.5580 -0.2357  0.0441
 2125TIP3    H130570   5.647   5.360   7.915 -0.2726 -0.5850 -0.2380
 2125TIP3    H230571   5.793   5.323   7.935 -0.5494 -1.0178  1.0300
 2126TIP3   OH230572   5.444   3.916   7.046 -0.0962 -0.3279 -0.0125
 2126TIP3    H130573   5.482   3.831   7.026  0.0345 -0.8799  2.2987
 2126TIP3    H230574   5.352   3.908   7.020  0.3985 -0.3706 -1.8605
 2127TIP3   OH230575   1.033   1.018   7.262  0.0224  0.4047 -0.1486
 2127TIP3    H130576   1.077   0.954   7.206  1.3634  0.9528  0.2311
 2127TIP3    H230577   1.055   1.103   7.222 -0.5663  0.7034  0.1455
 2128TIP3   OH230578   1.899   4.887   7.357 -0.4394 -0.1319  0.2300
 2128TIP3    H130579   1.956   4.860   7.428 -1.5989 -0.3202  1.1151
 2128TIP3    H230580   1.917   4.824   7.287 -0.1856 -0.7214  0.8151
 2129TIP3   OH230581   5.237   5.099   9.241 -0.2522 -0.0506 -0.1712
 2129TIP3    H130582   5.292   5.147   9.304 -0.3878 -0.1342  0.0110
 2129TIP3    H230583   5.155   5.085   9.287 -0.7781  0.9158 -0.7791
 2130TIP3   OH230584   4.521   1.277   7.397  0.0628 -0.0366 -0.1400
 2130TIP3    H130585   4.442   1.331   7.404  0.3969  0.3917  0.3643
 2130TIP3    H230586   4.558   1.300   7.312  0.2339  0.5703  0.0979
 2131TIP3   OH230587   2.344   5.013   7.365 -0.2566  0.2005 -0.1769
 2131TIP3    H130588   2.346   5.096   7.318 -2.1364  0.4804  0.1341
 2131TIP3    H230589   2.293   4.955   7.309 -0.1111 -0.3290  0.2292
 2132TIP3   OH230590   0.670   2.044   7.995  0.2504  0.1167  0.2589
 2132TIP3    H130591   0.698   2.050   8.086 -0.3515  1.0236  0.3995
 2132TIP3    H230592   0.716   1.967   7.960  0.2837 -0.3975  1.3942
 2133TIP3   OH230593   5.862   0.934   9.676  0.4604 -0.5126 -0.0817
 2133TIP3    H130594   5.881   0.976   9.592 -1.2446 -0.3614 -0.4300
 2133TIP3    H230595   5.938   0.877   9.692  1.1255 -0.0466 -1.3832
 2134TIP3   OH230596   3.876   0.013   9.576  0.1074 -0.0338 -0.0286
 2134TIP3    H130597   3.831   0.018   9.661 -0.6677  0.5083 -0.4517
 2134TIP3    H230598   3.961   0.054   9.592 -0.6332  1.5370  0.1279
 2135TIP3   OH230599   2.472   5.800   9.416 -0.3789 -0.3016  0.4254
 2135TIP3    H130600   2.479   5.882   9.368 -0.9738  0.1266  1.0501
 2135TIP3    H230601   2.386   5.765   9.391 -1.1560  0.4359  1.9315
 2136TIP3   OH230602   2.849   7.052   8.375 -0.1236  0.3537  0.2237
 2136TIP3    H130603   2.916   6.984   8.372 -0.2684  0.2217 -2.8869
 2136TIP3    H230604   2.888   7.122   8.428  1.9892 -0.2163 -0.4759
 2137TIP3   OH230605   0.158   0.473   7.434 -0.0538 -0.5505 -0.4208
 2137TIP3    H130606   0.200   0.389   7.414  2.5074  0.3336  0.7724
 2137TIP3    H230607   0.189   0.495   7.522  0.8046  2.4208 -1.3421
 2138TIP3   OH230608   5.020   1.298   9.276 -0.3433  0.4964  0.1509
 2138TIP3    H130609   5.096   1.304   9.334 -0.9060  2.4272  0.7243
 2138TIP3    H230610   4.945   1.321   9.331 -1.2023 -0.1165 -0.7339
 2139TIP3   OH230611   4.620   5.747   8.342  0.1667 -0.7115  0.4684
 2139TIP3    H130612   4.573   5.678   8.388 -0.1699 -0.2042  0.8922
 2139TIP3    H230613   4.554   5.813   8.323  0.5724 -0.3030  0.4660
 2140TIP3   OH230614   5.095   6.235   7.520 -0.1631  0.2370 -0.1393
 2140TIP3    H130615   5.121   6.301   7.583  1.0631  0.4841 -0.8611
 2140TIP3    H230616   5.029   6.278   7.465 -0.7840  0.2144  0.5824
 2141TIP3   OH230617   2.898   3.449   8.842 -0.2117 -0.6592  1.1044
 2141TIP3    H130618   2.864   3.440   8.753 -0.5602 -1.5493  1.3175
 2141TIP3    H230619   2.934   3.538   8.845 -0.1476 -0.6377  0.0656
 2142TIP3   OH230620   6.840   1.747   7.568 -0.9300 -0.0029  0.6015
 2142TIP3    H130621   6.824   1.736   7.475  2.1310 -0.8200  0.0501
 2142TIP3    H230622   6.853   1.841   7.580  1.2904 -0.1146 -0.4009
 2143TIP3   OH230623   0.641   7.626   8.251 -0.1592  0.2020  0.2552
 2143TIP3    H130624   0.711   7.690   8.257 -0.2088  0.3306 -0.4771
 2143TIP3    H230625   0.672   7.562   8.187  0.2759 -1.0116  1.6211
 2144TIP3   OH230626   2.083   5.917   8.939 -0.2570  0.0376  0.7725
 2144TIP3    H130627   2.012   5.855   8.920 -0.6482  0.1516  1.8011
 2144TIP3    H230628   2.132   5.875   9.010  1.5895 -0.7083 -0.8557
 2145TIP3   OH230629   0.893   1.954   9.105  0.5477  0.4886 -0.5761
 2145TIP3    H130630   0.857   1.979   9.020 -0.2189 -0.0735 -0.4286
 2145TIP3    H230631   0.920   1.863   9.094  1.5610  0.7697 -0.5559
 2146TIP3   OH230632   1.401   0.105   7.755 -0.1240  0.1274 -0.2313
 2146TIP3    H130633   1.385   0.072   7.844  1.5291  0.0043  0.0614
 2146TIP3    H230634   1.496   0.109   7.748 -0.2253  2.8306 -1.0318
 2147TIP3   OH230635   2.138   0.646   9.562  0.0304 -0.0071  0.3699
 2147TIP3    H130636   2.161   0.557   9.536  0.5808  0.1384  0.3346
 2147TIP3    H230637   2.219   0.696   9.549 -0.7997  0.9578 -1.6126
 2148TIP3   OH230638   4.418   0.859   8.164  0.7041  0.7247  0.0363
 2148TIP3    H130639   4.377   0.867   8.250  0.5633  2.0719 -0.1253
 2148TIP3    H230640   4.424   0.765   8.148  0.6624  0.4624  1.4798
 2149TIP3   OH230641   0.258   0.715   7.261 -0.0636  0.4287  0.6549
 2149TIP3    H130642   0.201   0.792   7.269 -0.8001 -0.0489  0.1101
 2149TIP3    H230643   0.198   0.641   7.259  0.4585 -0.0072 -1.2834
 2150TIP3   OH230644   7.140   2.745   7.635  1.1182 -0.4154  0.0358
 2150TIP3    H130645   7.172   2.818   7.688  0.6444 -0.7878  0.8628
 2150TIP3    H230646   7.089   2.692   7.697 -0.2318 -0.3753 -0.9993
 2151TIP3   OH230647   1.291   3.181   7.059  0.1213 -0.3895  0.2003
 2151TIP3    H130648   1.286   3.277   7.062  1.7569 -0.2968  1.1772
 2151TIP3    H230649   1.239   3.157   6.982 -0.5395  1.2573  0.0951
 2152TIP3   OH230650   7.087   2.126   9.162  0.4174 -0.1019 -0.1836
 2152TIP3    H130651   7.118   2.105   9.074  0.1796 -0.4700 -0.1807
 2152TIP3    H230652   7.053   2.043   9.196 -1.1734  0.4145 -0.4339
 2153TIP3   OH230653   7.033   5.399   8.595  0.3507  0.3302  0.7845
 2153TIP3    H130654   6.967   5.334   8.622 -0.5563  0.1244 -1.6201
 2153TIP3    H230655   7.117   5.360   8.621 -0.1872 -1.7408 -0.3234
 2154TIP3   OH230656   6.272   2.450   8.531  0.4868  0.0773  0.1058
 2154TIP3    H130657   6.341   2.441   8.597  0.6135  0.1231 -0.0189
 2154TIP3    H230658   6.270   2.365   8.487 -0.1097 -0.2061  0.6594
 2155TIP3   OH230659   3.697   4.802   9.331 -0.0804 -0.9008 -0.7333
 2155TIP3    H130660   3.603   4.810   9.314 -0.3132 -0.1808  0.7275
 2155TIP3    H230661   3.724   4.727   9.278 -2.0110 -2.8057  0.7690
 2156TIP3   OH230662   6.368   5.272   8.623 -0.0611 -0.0332 -0.3522
 2156TIP3    H130663   6.370   5.192   8.571 -0.1908  0.0271 -0.4505
 2156TIP3    H230664   6.411   5.248   8.705 -0.8252 -0.4366 -0.0581
 2157TIP3   OH230665   1.438   0.433   7.819 -0.0097  0.6064  0.6076
 2157TIP3    H130666   1.382   0.363   7.785 -1.9563  1.0910  2.6103
 2157TIP3    H230667   1.441   0.498   7.749 -1.4401  0.2734  0.2195
 2158TIP3   OH230668   3.519   6.161   7.268 -0.2843 -0.2424 -0.3190
 2158TIP3    H130669   3.495   6.095   7.333 -2.4289  0.1126 -0.6719
 2158TIP3    H230670   3.485   6.127   7.185 -3.5459  2.2311 -0.1710
 2159TIP3   OH230671   6.113   7.602   8.100 -0.6622 -0.0288  0.0628
 2159TIP3    H130672   6.037   7.644   8.139  0.8668  2.4805  0.5564
 2159TIP3    H230673   6.166   7.674   8.067  2.2051 -1.5124  1.0490
 2160TIP3   OH230674   6.195   1.032   8.881  0.4561 -0.5510 -0.3151
 2160TIP3    H130675   6.275   1.077   8.904 -1.7588  2.5887  2.1164
 2160TIP3    H230676   6.164   0.994   8.964 -0.9758 -0.9197 -0.9765
 2161TIP3   OH230677   4.415   5.862   7.313 -0.7909  0.0455  0.3981
 2161TIP3    H130678   4.492   5.809   7.292 -0.7242  0.4220 -0.3361
 2161TIP3    H230679   4.420   5.936   7.253 -2.8894 -1.0066 -1.1603
 2162TIP3   OH230680   6.148   2.126   7.237  0.2461 -0.1967 -0.8771
 2162TIP3    H130681   6.067   2.080   7.260  0.8687 -1.2935 -0.8493
 2162TIP3    H230682   6.127   2.171   7.156 -0.8509  0.7612 -0.0977
 2163TIP3   OH230683   3.676   5.341   8.480  0.7146  0.3507  0.0422
 2163TIP3    H130684   3.731   5.361   8.555  0.7359 -0.7055  0.3333
 2163TIP3    H230685   3.676   5.421   8.428  2.5915  0.3642 -0.0067
 2164TIP3   OH230686   1.067   1.253   8.357  0.3874  0.5591 -0.0987
 2164TIP3    H130687   1.096   1.312   8.287 -1.9240 -0.5165 -2.1224
 2164TIP3    H230688   0.972   1.265   8.361  0.3495 -0.1589  2.1955
 2165TIP3   OH230689   7.462   4.215   8.790 -0.6154 -0.3255  0.5608
 2165TIP3    H130690   7.477   4.125   8.762 -1.8383 -1.3417  2.9113
 2165TIP3    H230691   7.385   4.244   8.740  0.7668  0.0926 -1.4478
 2166TIP3   OH230692   7.000   5.191   7.449 -0.3983  0.1318  0.5826
 2166TIP3    H130693   6.962   5.242   7.520  1.5105 -0.1240  1.8722
 2166TIP3    H230694   6.955   5.222   7.370 -1.2854  1.7390  1.6638
 2167TIP3   OH230695   0.955   1.941   8.460 -0.3378 -0.5102  0.0906
 2167TIP3    H130696   1.045   1.914   8.438  0.3217 -0.0173  1.9455
 2167TIP3    H230697   0.902   1.862   8.445  0.7415 -1.4049  0.8015
 2168TIP3   OH230698   2.055   4.075   7.533 -0.0591  0.1255 -0.6740
 2168TIP3    H130699   2.133   4.019   7.540 -0.3985 -0.1347  2.3096
 2168TIP3    H230700   2.090   4.164   7.534  0.2502  0.0134  0.8853
 2169TIP3   OH230701   0.126   6.622   8.694 -0.7707 -0.2995  0.3133
 2169TIP3    H130702   0.114   6.689   8.627 -0.8327 -0.5678  0.0555
 2169TIP3    H230703   0.177   6.666   8.763 -1.1614  0.1321  0.3317
 2170TIP3   OH230704   5.596   1.993   7.290 -0.5446  0.2744  0.3371
 2170TIP3    H130705   5.599   2.045   7.210 -0.9825 -0.5099 -0.2061
 2170TIP3    H230706   5.524   1.931   7.276 -1.1784  0.6703  1.6868
 2171TIP3   OH230707   3.630   3.611   6.866 -0.3629 -0.1626 -0.3287
 2171TIP3    H130708   3.591   3.535   6.823 -1.0897 -0.1908  0.3590
 2171TIP3    H230709   3.557   3.672   6.877  0.0445  0.2914 -0.1273
 2172TIP3   OH230710   5.104   1.722   8.707  0.1104  0.6575 -0.0685
 2172TIP3    H130711   5.048   1.748   8.633  1.2431  1.2773 -0.7355
 2172TIP3    H230712   5.170   1.791   8.711  0.4361  0.2817  1.1352
 2173TIP3   OH230713   6.630   5.769   8.557  0.0518  0.0479 -0.7390
 2173TIP3    H130714   6.607   5.794   8.646 -1.5388 -0.1990 -1.0548
 2173TIP3    H230715   6.570   5.697   8.536  0.0534  0.4435 -2.1903
 2174TIP3   OH230716   2.855   4.610   8.085  0.6607  0.1433 -0.4097
 2174TIP3    H130717   2.895   4.593   8.171  2.0915 -2.4337 -1.4914
 2174TIP3    H230718   2.916   4.572   8.022 -0.2803  2.0702 -2.6412
 2175TIP3   OH230719   3.968   0.217   8.988 -0.1974 -0.2319 -0.3162
 2175TIP3    H130720   4.011   0.270   9.055 -0.2846 -0.6117  0.0469
 2175TIP3    H230721   3.902   0.275   8.949 -0.1069  0.0075 -0.1152
 2176TIP3   OH230722   1.315   6.573   9.398 -0.0971  0.1363 -0.2219
 2176TIP3    H130723   1.356   6.544   9.316 -0.1719 -0.8974  0.0868
 2176TIP3    H230724   1.329   6.667   9.400  0.7703  0.0384 -0.9545
 2177TIP3   OH230725   0.749   4.336   7.302 -0.2741  0.1523 -0.0700
 2177TIP3    H130726   0.667   4.385   7.299 -0.9829 -0.8960  1.2559
 2177TIP3    H230727   0.747   4.281   7.223 -1.0207 -0.1216  0.1320
 2178TIP3   OH230728   4.842   3.320   8.210  0.2817 -0.6394 -0.0426
 2178TIP3    H130729   4.840   3.405   8.167  1.5100 -0.7511 -0.3498
 2178TIP3    H230730   4.851   3.341   8.303  1.2209 -0.4165 -0.1684
 2179TIP3   OH230731   1.462   4.878   8.079  0.0917  0.2850 -0.1068
 2179TIP3    H130732   1.486   4.808   8.139  2.9142  1.7714  0.6762
 2179TIP3    H230733   1.543   4.928   8.067 -1.5967  2.9545 -1.2492
 2180TIP3   OH230734   2.981   6.607   7.548 -0.9422 -0.7417 -0.2179
 2180TIP3    H130735   3.032   6.559   7.482  0.1228  1.2414 -0.9130
 2180TIP3    H230736   3.022   6.583   7.631 -0.3442 -0.9445 -0.5641
 2181TIP3   OH230737   0.365   0.636   9.442 -0.5013  0.1917 -0.2952
 2181TIP3    H130738   0.417   0.661   9.366 -1.1561 -3.0313 -1.9780
 2181TIP3    H230739   0.274   0.655   9.416 -0.9570 -2.9061 -1.3841
 2182TIP3   OH230740   4.435   6.143   9.310  0.5040 -0.3157 -0.1073
 2182TIP3    H130741   4.436   6.058   9.265 -0.0182 -0.9050  0.9568
 2182TIP3    H230742   4.523   6.178   9.298  0.2441 -0.1954 -2.0307
 2183TIP3   OH230743   4.710   0.650   7.344 -0.1669 -0.0139 -0.1393
 2183TIP3    H130744   4.695   0.559   7.321  1.4914 -0.3694  0.0621
 2183TIP3    H230745   4.762   0.686   7.272  1.0137  0.1664  0.7773
 2184TIP3   OH230746   6.794   4.903   8.396  0.9370  0.4896 -0.2785
 2184TIP3    H130747   6.871   4.953   8.369  0.1564  1.3732 -0.9157
 2184TIP3    H230748   6.825   4.812   8.400  1.9737  0.8159 -0.6504
 2185TIP3   OH230749   0.051   3.316   7.981 -0.3159  0.1130 -0.2264
 2185TIP3    H130750   0.127   3.257   7.973  0.0370  0.7291 -1.9180
 2185TIP3    H230751   0.080   3.385   8.039  0.0892 -0.1578 -0.1014
 2186TIP3   OH230752   2.154   6.286   8.260  0.4045 -0.1245 -0.0999
 2186TIP3    H130753   2.096   6.351   8.300 -0.4693 -0.9330 -0.0222
 2186TIP3    H230754   2.206   6.253   8.334  1.4346  1.0241 -0.2604
 2187TIP3   OH230755   0.968   1.553   7.451  0.4162  0.9455 -0.4888
 2187TIP3    H130756   0.884   1.547   7.495  0.6999  3.0698  0.4598
 2187TIP3    H230757   0.994   1.645   7.461  2.0940  0.7210 -2.1618
 2188TIP3   OH230758   3.791   6.007   7.193  0.1382 -0.4918 -0.3773
 2188TIP3    H130759   3.754   6.041   7.274 -0.1692 -0.8835 -0.3434
 2188TIP3    H230760   3.716   6.002   7.133  0.3705 -0.1619 -0.7010
 2189TIP3   OH230761   6.248   0.746   6.686  0.1555  0.1884 -0.3033
 2189TIP3    H130762   6.307   0.697   6.742 -0.5375  0.0731  0.3451
 2189TIP3    H230763   6.302   0.774   6.612  0.8884 -0.3383  0.0249
 2190TIP3   OH230764   2.881   1.000   8.435  0.1521  0.5061  0.3762
 2190TIP3    H130765   2.917   1.077   8.479  0.9030  0.3044  0.1271
 2190TIP3    H230766   2.850   0.943   8.506 -0.4595  1.0544  0.5573
 2191TIP3   OH230767   7.136   6.891   7.034 -0.1747 -0.4525 -0.3347
 2191TIP3    H130768   7.067   6.913   6.971 -0.8024 -1.9029 -0.1932
 2191TIP3    H230769   7.150   6.972   7.083 -2.4437 -0.3376  0.2412
 2192TIP3   OH230770   5.355   3.597   9.065  0.4985  0.5557 -0.4040
 2192TIP3    H130771   5.279   3.635   9.021  1.2552 -0.8147 -3.1462
 2192TIP3    H230772   5.421   3.667   9.065  0.5856  0.4963 -1.8287
 2193TIP3   OH230773   1.157   1.215   7.124  0.3498  0.5213 -0.4528
 2193TIP3    H130774   1.204   1.238   7.043  0.5573  0.6197 -0.3066
 2193TIP3    H230775   1.221   1.231   7.193 -0.5062  2.5837 -0.0606
 2194TIP3   OH230776   0.687   7.272   7.790  0.0063  0.2884  0.3071
 2194TIP3    H130777   0.632   7.259   7.867 -3.5395 -1.5136 -2.2128
 2194TIP3    H230778   0.677   7.365   7.769  1.0642  0.8160  1.9634
 2195TIP3   OH230779   1.321   1.297   7.391  0.2885 -0.0327  0.3162
 2195TIP3    H130780   1.378   1.230   7.430  0.0703 -0.5090 -0.1660
 2195TIP3    H230781   1.376   1.375   7.384  0.7258 -0.3364  0.3415
 2196TIP3   OH230782   3.691   5.618   7.760 -0.2613 -0.2387 -0.2364
 2196TIP3    H130783   3.635   5.548   7.795  1.8462 -1.1067  1.6636
 2196TIP3    H230784   3.778   5.579   7.757  0.5510  1.5603 -1.5318
 2197TIP3   OH230785   7.180   0.457   9.202 -0.4138  0.1237 -0.0985
 2197TIP3    H130786   7.194   0.517   9.275 -1.2421 -0.2549  0.3908
 2197TIP3    H230787   7.203   0.508   9.124  0.9392  0.3792  0.4391
 2198TIP3   OH230788   1.203   4.325   8.104  0.5818 -0.1221 -0.3421
 2198TIP3    H130789   1.192   4.307   8.198 -0.0741  0.8961 -0.2000
 2198TIP3    H230790   1.123   4.291   8.064  0.9980 -0.8295 -0.5832
 2199TIP3   OH230791   1.816   3.948   7.208 -0.1950  0.0749  0.5111
 2199TIP3    H130792   1.748   4.014   7.222 -1.3227 -0.4452 -1.8651
 2199TIP3    H230793   1.893   3.998   7.180 -0.2828  0.5217  1.0521
 2200TIP3   OH230794   1.628   2.304   6.476  0.5179 -0.6134 -0.4822
 2200TIP3    H130795   1.619   2.284   6.382  0.3754  1.5358 -0.9668
 2200TIP3    H230796   1.710   2.352   6.482 -0.0118  0.2092  0.3209
 2201TIP3   OH230797   6.227   5.418   7.473 -0.2591 -0.2991 -0.2658
 2201TIP3    H130798   6.188   5.504   7.489 -0.3399 -0.2996 -0.4541
 2201TIP3    H230799   6.282   5.402   7.549 -0.1052 -0.0008 -0.3148
 2202TIP3   OH230800   7.452   1.369   8.251  0.2322  0.0083 -0.0237
 2202TIP3    H130801   7.419   1.295   8.199  1.5784 -0.6125 -0.0400
 2202TIP3    H230802   7.539   1.342   8.279  0.6954  1.5253  0.1189
 2203TIP3   OH230803   3.855   1.757   8.273  0.1698 -0.2806  0.3634
 2203TIP3    H130804   3.900   1.745   8.356  0.2367  0.3021  0.4119
 2203TIP3    H230805   3.918   1.727   8.207  1.3136  2.0525  0.2972
 2204TIP3   OH230806   1.754   7.463   9.505 -0.7508 -0.3395 -0.1906
 2204TIP3    H130807   1.797   7.379   9.489  1.3367 -0.0509  2.8389
 2204TIP3    H230808   1.666   7.440   9.535  0.1043 -1.5893  1.5160
 2205TIP3   OH230809   6.990   1.038   7.432 -0.7067  0.1350  0.3388
 2205TIP3    H130810   7.031   0.953   7.448 -1.9529 -0.7919 -1.0973
 2205TIP3    H230811   6.898   1.025   7.458 -0.7360  1.3018  0.8796
 2206TIP3   OH230812   4.843   2.309   7.692 -0.2539 -0.2634 -0.0813
 2206TIP3    H130813   4.888   2.299   7.776 -2.4460  0.0685  1.2036
 2206TIP3    H230814   4.813   2.400   7.692 -0.6477 -0.3833 -1.0243
 2207TIP3   OH230815   5.161   1.967   7.889 -0.0088 -0.1031  0.5596
 2207TIP3    H130816   5.092   1.933   7.947  0.8642 -0.2966  1.5103
 2207TIP3    H230817   5.237   1.912   7.908  0.3357 -0.0791 -0.6943
 2208TIP3   OH230818   2.077   2.804   7.992  0.4081  0.0580  0.0000
 2208TIP3    H130819   2.048   2.732   8.047 -1.1531  0.3404 -0.4157
 2208TIP3    H230820   2.001   2.862   7.985  1.1924  1.0351 -0.8247
 2209TIP3   OH230821   7.147   5.170   9.162 -0.3288  0.4240 -0.0554
 2209TIP3    H130822   7.156   5.122   9.244  1.8429  1.3077  0.3129
 2209TIP3    H230823   7.201   5.249   9.175  0.6799  0.2403 -2.5432
 2210TIP3   OH230824   1.331   1.629   6.609 -0.0511 -0.3275  0.0639
 2210TIP3    H130825   1.259   1.658   6.664  0.9470  0.4173  1.0189
 2210TIP3    H230826   1.363   1.708   6.566  1.3443 -0.3071  1.0636
 2211TIP3   OH230827   6.584   0.856   7.226  0.3378  0.1858  0.0459
 2211TIP3    H130828   6.576   0.760   7.227  1.4923  0.0773  0.2182
 2211TIP3    H230829   6.635   0.874   7.146 -0.1606  0.6860 -0.1611
 2212TIP3   OH230830   0.015   1.386   8.814 -0.2198 -0.1928 -0.3318
 2212TIP3    H130831  -0.039   1.381   8.894  0.6906  0.6493  0.3629
 2212TIP3    H230832   0.100   1.416   8.845  0.3851 -0.6255 -1.5347
 2213TIP3   OH230833   3.205   3.539   8.142 -1.2438 -0.4121 -0.1144
 2213TIP3    H130834   3.287   3.491   8.136 -1.2548 -0.3276 -1.0226
 2213TIP3    H230835   3.181   3.558   8.052 -2.1444 -0.2316  0.1505
 2214TIP3   OH230836   6.765   3.088   8.623  0.2185  0.0285  0.0077
 2214TIP3    H130837   6.778   3.181   8.636  1.8471 -0.2454  0.5183
 2214TIP3    H230838   6.782   3.073   8.530 -1.4370  0.4219 -0.3957
 2215TIP3   OH230839   2.089   2.056   7.368 -0.5884  0.3291  0.2407
 2215TIP3    H130840   2.099   1.985   7.304 -1.6309 -0.8430  1.3217
 2215TIP3    H230841   2.164   2.114   7.351  0.8098 -1.4772 -0.1081
 2216TIP3   OH230842   4.002   6.044   8.737  0.1471  0.4109 -0.3471
 2216TIP3    H130843   4.054   5.998   8.671  2.0695  2.4659 -0.3748
 2216TIP3    H230844   4.024   6.137   8.725  0.7880  0.8998  3.2876
 2217TIP3   OH230845   0.209   3.287   7.126  0.6252 -0.4648 -0.1066
 2217TIP3    H130846   0.297   3.264   7.097  0.6574 -0.0374 -0.3585
 2217TIP3    H230847   0.152   3.221   7.086  0.9816 -1.6542  1.2765
 2218TIP3   OH230848   1.732   2.884   7.423 -0.1030  0.2909 -0.1975
 2218TIP3    H130849   1.827   2.893   7.423 -0.1733  1.0877 -0.2109
 2218TIP3    H230850   1.711   2.853   7.335  0.1315  0.3080 -0.2610
 2219TIP3   OH230851   4.853   6.989   7.597  0.1281 -0.0238 -0.2549
 2219TIP3    H130852   4.862   6.893   7.598  0.6397  0.0285  0.4578
 2219TIP3    H230853   4.873   7.016   7.686 -2.1147  0.5815  0.1096
 2220TIP3   OH230854   0.700   4.347   7.894 -0.1736 -0.0040 -0.2875
 2220TIP3    H130855   0.770   4.388   7.946  0.7805  1.0802 -2.3274
 2220TIP3    H230856   0.646   4.420   7.864 -1.6564 -0.7558  0.4436
 2221TIP3   OH230857   0.983   5.070   9.378 -0.5095 -0.2576 -0.1434
 2221TIP3    H130858   1.054   5.134   9.377  0.0620 -0.8877 -0.2431
 2221TIP3    H230859   0.909   5.115   9.338 -0.1076  0.3358 -0.2233
 2222TIP3   OH230860   7.150   3.657   6.558  0.0645  0.7767 -0.8671
 2222TIP3    H130861   7.064   3.617   6.555  0.4780 -0.2971  0.4805
 2222TIP3    H230862   7.135   3.749   6.536 -1.5046  0.7455 -0.0573
 2223TIP3   OH230863   1.711   1.046   8.704 -0.6888 -0.3943  0.2978
 2223TIP3    H130864   1.698   1.134   8.668  2.7328 -0.3315 -1.1467
 2223TIP3    H230865   1.632   1.030   8.756 -1.9527  3.0482 -0.2753
 2224TIP3   OH230866   1.495   2.205   9.618  0.3668  0.4453  0.2892
 2224TIP3    H130867   1.555   2.247   9.679  1.8212 -1.3913  0.2258
 2224TIP3    H230868   1.535   2.119   9.601  1.3591  1.5821 -4.9571
 2225TIP3   OH230869   0.424   2.129   7.842  0.2379  0.0489 -0.0553
 2225TIP3    H130870   0.354   2.103   7.901 -0.0745 -0.5836 -0.6919
 2225TIP3    H230871   0.504   2.103   7.887  0.0273  0.1170  0.3561
 2226TIP3   OH230872   7.669   4.326   9.249  0.3278 -0.4027  0.2502
 2226TIP3    H130873   7.582   4.291   9.228  1.3672 -2.3373 -1.1360
 2226TIP3    H230874   7.703   4.266   9.315  0.9150 -0.1594  0.1735
 2227TIP3   OH230875   5.249   5.089   8.014 -0.3828  0.2755 -0.3223
 2227TIP3    H130876   5.314   5.102   8.083 -0.5999 -1.0361  0.1577
 2227TIP3    H230877   5.298   5.049   7.942  0.0593  2.5610 -1.3726
 2228TIP3   OH230878   1.226   4.423   8.790 -0.2463 -0.8999 -0.0630
 2228TIP3    H130879   1.314   4.404   8.823 -0.6661 -3.1053 -0.0125
 2228TIP3    H230880   1.186   4.477   8.857  0.6808 -0.8761  0.4844
 2229TIP3   OH230881   4.591   7.576   9.210 -0.2594  0.6541 -0.3983
 2229TIP3    H130882   4.590   7.534   9.296  0.5691 -0.7214 -1.0345
 2229TIP3    H230883   4.514   7.541   9.165  1.1681 -1.3823 -1.4292
 2230TIP3   OH230884   6.348   6.319   9.301  0.4253 -0.4966  0.1054
 2230TIP3    H130885   6.330   6.354   9.388  1.7870 -0.3188  0.3461
 2230TIP3    H230886   6.436   6.352   9.280  0.0252 -0.3338 -1.4363
 2231TIP3   OH230887   1.543   0.466   6.998 -0.2267  0.3217  0.0164
 2231TIP3    H130888   1.616   0.499   6.946 -0.1251  0.1458  0.0496
 2231TIP3    H230889   1.465   0.485   6.945 -0.0050 -1.3235 -0.9395
 2232TIP3   OH230890   0.417   7.351   8.971 -0.2043  0.1354  0.3686
 2232TIP3    H130891   0.402   7.363   8.877 -1.5593 -2.3410  0.2048
 2232TIP3    H230892   0.356   7.411   9.013 -1.5708 -0.7192 -0.3512
 2233TIP3   OH230893   0.493   5.144   8.340  0.5745 -0.6717 -0.1836
 2233TIP3    H130894   0.545   5.141   8.259  0.1720  0.7115 -0.5028
 2233TIP3    H230895   0.547   5.195   8.401  0.0235 -0.0508 -0.2086
 2234TIP3   OH230896   3.044   2.075   9.095  0.4677 -0.1516  0.4811
 2234TIP3    H130897   2.963   2.032   9.122  0.7254  1.0343  3.4539
 2234TIP3    H230898   3.015   2.154   9.049 -0.0396 -0.3184  0.5103
 2235TIP3   OH230899   0.317   1.170   7.224 -0.5541  0.1050 -0.0804
 2235TIP3    H130900   0.341   1.261   7.210  0.8731 -0.2731 -0.2264
 2235TIP3    H230901   0.329   1.155   7.318 -2.1512  0.4284  0.1954
 2236TIP3   OH230902   5.153   2.977   7.387 -0.7242  0.4142 -0.0251
 2236TIP3    H130903   5.161   3.023   7.471  0.1895 -0.7031  0.5288
 2236TIP3    H230904   5.218   2.907   7.392 -3.2123 -2.0504 -0.1113
 2237TIP3   OH230905   2.601   1.692   8.443 -0.1566 -0.2234 -0.5977
 2237TIP3    H130906   2.569   1.783   8.446 -1.4161 -0.6663  0.6837
 2237TIP3    H230907   2.687   1.696   8.485 -0.5411  0.2656  0.1766
 2238TIP3   OH230908   5.692   4.407   7.390  0.0563 -0.1694 -0.1150
 2238TIP3    H130909   5.773   4.456   7.383  1.3068 -1.7339  2.1294
 2238TIP3    H230910   5.657   4.405   7.301  1.8380  1.5347 -0.9295
 2239TIP3   OH230911   3.310   2.347   9.256  0.2544  0.0956  0.2699
 2239TIP3    H130912   3.405   2.358   9.261  0.3112 -0.1071 -0.2988
 2239TIP3    H230913   3.281   2.417   9.199  0.1865 -0.4350 -0.3638
 2240TIP3   OH230914   4.664   2.486   7.936  0.0163  0.9479 -0.0965
 2240TIP3    H130915   4.696   2.566   7.977  0.0499  1.1023 -0.4229
 2240TIP3    H230916   4.589   2.514   7.884  0.1327  0.7939 -0.3452
 2241TIP3   OH230917   0.356   0.058   9.143  0.2516 -0.3975 -0.1854
 2241TIP3    H130918   0.445   0.057   9.108  0.1735 -1.8006 -0.3994
 2241TIP3    H230919   0.308   0.116   9.084  0.6131 -1.0787 -1.1795
 2242TIP3   OH230920   0.710   5.809   8.660 -0.4806  0.2585  0.1131
 2242TIP3    H130921   0.774   5.738   8.668 -0.5008  0.2320  0.0453
 2242TIP3    H230922   0.654   5.783   8.587  0.2096  0.8801 -0.6642
 2243TIP3   OH230923   1.715   6.276   9.079 -0.3135 -0.0711  0.4998
 2243TIP3    H130924   1.809   6.256   9.085 -0.1869  0.0844 -0.7370
 2243TIP3    H230925   1.706   6.325   8.997 -1.2540  1.2370  1.3338
 2244TIP3   OH230926   4.544   0.516   9.162  0.2812 -0.2399  0.1168
 2244TIP3    H130927   4.637   0.494   9.153 -0.3431 -3.9241  1.0248
 2244TIP3    H230928   4.529   0.517   9.256 -0.4917  1.1137  0.0019
 2245TIP3   OH230929   5.667   2.186   8.849 -0.0067  0.4547  0.1543
 2245TIP3    H130930   5.742   2.232   8.885  0.9672  0.0082 -1.2129
 2245TIP3    H230931   5.600   2.191   8.917  0.8463  1.8923  0.9310
 2246TIP3   OH230932   1.146   5.974   8.160  0.2045  0.2681 -0.2723
 2246TIP3    H130933   1.095   5.982   8.242  2.2994  0.1358  1.1199
 2246TIP3    H230934   1.195   5.893   8.171 -0.5528 -0.5194 -2.3523
 2247TIP3   OH230935   1.361   1.885   7.885 -0.2687  0.4161  0.4946
 2247TIP3    H130936   1.301   1.882   7.811 -0.1531 -1.5291  0.4174
 2247TIP3    H230937   1.430   1.945   7.858 -0.1322 -0.3878 -1.0880
 2248TIP3   OH230938   4.958   3.890   9.082 -1.0772 -0.7051  0.0260
 2248TIP3    H130939   4.993   3.935   9.005 -0.7878 -1.5885 -0.3809
 2248TIP3    H230940   4.937   3.802   9.050 -1.1289 -1.0257  0.9112
 2249TIP3   OH230941   7.442   1.571   9.138 -0.0678 -0.0802 -0.1903
 2249TIP3    H130942   7.506   1.604   9.074 -0.4974  2.2304  0.4851
 2249TIP3    H230943   7.367   1.630   9.129 -0.0601  0.4812  2.5476
 2250TIP3   OH230944   1.586   3.353   8.178  0.3363 -1.2322  0.2780
 2250TIP3    H130945   1.653   3.380   8.242 -0.6662 -2.3382  1.8596
 2250TIP3    H230946   1.629   3.285   8.126 -0.1615 -3.6884  2.8305
 2251TIP3   OH230947   0.551   2.771   9.152 -0.0831 -0.3485 -0.2209
 2251TIP3    H130948   0.597   2.690   9.172 -1.2256 -0.7982  0.6583
 2251TIP3    H230949   0.480   2.775   9.215 -1.0596  0.4936 -1.3300
 2252TIP3   OH230950   2.854   6.628   7.997 -0.0866  0.2856 -0.1684
 2252TIP3    H130951   2.917   6.692   8.028  2.5469 -1.3724 -1.7094
 2252TIP3    H230952   2.840   6.570   8.072  2.6274 -1.0215 -0.5619
 2253TIP3   OH230953   3.066   0.793   6.742 -0.0844  0.3028  0.4996
 2253TIP3    H130954   3.119   0.873   6.742  1.3856 -0.6049 -0.7276
 2253TIP3    H230955   3.127   0.724   6.768 -0.9157 -0.6351  0.0375
 2254TIP3   OH230956   3.291   2.150   7.552  0.7742 -0.2165  0.3029
 2254TIP3    H130957   3.292   2.181   7.643 -1.2548  1.8325 -0.2889
 2254TIP3    H230958   3.373   2.184   7.515  1.2428 -0.3945  1.1438
 2255TIP3   OH230959   6.499   2.393   9.123  0.2106  0.3747 -0.7476
 2255TIP3    H130960   6.554   2.471   9.116 -0.4429  0.9358  0.1678
 2255TIP3    H230961   6.538   2.343   9.195 -0.5635  0.8633  0.0247
 2256TIP3   OH230962   7.114   1.487   9.522 -0.0221 -0.2570  0.0566
 2256TIP3    H130963   7.039   1.429   9.537 -0.9164  0.7807 -0.2922
 2256TIP3    H230964   7.149   1.460   9.437 -0.9143  0.1945 -0.4729
 2257TIP3   OH230965   1.024   2.181   9.445 -0.3310 -0.4115  0.0967
 2257TIP3    H130966   0.989   2.178   9.534  0.3990  0.8608  0.4586
 2257TIP3    H230967   1.096   2.118   9.445  0.9772  1.0271  1.0408
 2258TIP3   OH230968   2.741   2.918   9.459  0.2903  0.5499  0.6353
 2258TIP3    H130969   2.833   2.921   9.488  0.8750  0.1263 -1.0441
 2258TIP3    H230970   2.697   2.864   9.524  1.5604 -0.5011  0.6740
 2259TIP3   OH230971   6.346   2.287   7.336  0.2989 -0.4218  0.1064
 2259TIP3    H130972   6.358   2.329   7.251 -1.3157 -0.7373 -0.3105
 2259TIP3    H230973   6.279   2.220   7.320  0.6838 -1.1500  1.4109
 2260TIP3   OH230974   1.450   6.043   8.982 -0.0145 -0.0039  0.1405
 2260TIP3    H130975   1.395   5.969   8.956  0.5044 -0.4321  0.2495
 2260TIP3    H230976   1.486   6.076   8.900 -1.6586  1.2778 -0.1131
 2261TIP3   OH230977   4.797   0.906   7.668  0.8215  0.4595  0.1914
 2261TIP3    H130978   4.741   0.977   7.637 -0.3591 -1.0836 -1.3848
 2261TIP3    H230979   4.883   0.924   7.629  0.7711  1.4226  0.4905
 2262TIP3   OH230980   6.505   0.231   9.199  0.5071  0.3535  0.1449
 2262TIP3    H130981   6.501   0.206   9.106  2.9664  0.2337  0.0177
 2262TIP3    H230982   6.443   0.172   9.242 -0.4419  0.1976 -1.3541
 2263TIP3   OH230983   1.080   7.051   7.549  0.4101 -0.5393 -0.0993
 2263TIP3    H130984   0.997   7.049   7.596 -0.2299 -0.6722 -1.2007
 2263TIP3    H230985   1.124   7.130   7.582 -0.9987  0.6137 -0.8638
 2264TIP3   OH230986   7.587   6.954   7.670  0.2481 -0.4278  0.0251
 2264TIP3    H130987   7.640   6.876   7.684  0.7855 -0.2742 -1.0111
 2264TIP3    H230988   7.649   7.019   7.636  0.2433  1.1298  2.7513
 2265TIP3   OH230989   4.535   3.910   8.692 -0.0201 -0.1394  0.6538
 2265TIP3    H130990   4.552   3.957   8.610 -0.9793  1.8901  1.5477
 2265TIP3    H230991   4.467   3.961   8.735  0.9893 -0.6968  3.0863
 2266TIP3   OH230992   1.757   0.076   7.161  0.7207  0.7603  0.2257
 2266TIP3    H130993   1.713  -0.000   7.124  1.6726  0.4626 -0.3137
 2266TIP3    H230994   1.689   0.145   7.161 -0.3893 -0.2779  1.4836
 2267TIP3   OH230995   3.111   6.015   7.424 -0.4846 -0.5635  0.0892
 2267TIP3    H130996   3.152   5.987   7.506  1.4907 -0.3497 -0.7600
 2267TIP3    H230997   3.090   5.933   7.379  0.4269 -0.6995 -0.1085
 2268TIP3   OH230998   3.658   2.695   8.218 -0.5361 -0.3323 -0.2818
 2268TIP3    H130999   3.699   2.733   8.296  0.8940  0.9798 -1.6274
 2268TIP3    H231000   3.566   2.684   8.243  0.0260 -0.6702  1.8359
 2269TIP3   OH231001   4.915   5.485   6.848  0.1635 -0.8263 -0.2043
 2269TIP3    H131002   4.878   5.435   6.921  0.8195 -0.4954  0.3608
 2269TIP3    H231003   5.009   5.474   6.856  0.3301  0.5878  0.0027
 2270TIP3   OH231004   2.099   7.430   7.773  0.3512 -0.1287  0.5260
 2270TIP3    H131005   2.158   7.438   7.848  1.8290  1.1069 -0.7132
 2270TIP3    H231006   2.040   7.505   7.782 -1.2698 -1.4861  1.8870
 2271TIP3   OH231007   2.084   6.836   8.041 -0.0338 -0.3018 -0.3234
 2271TIP3    H131008   2.062   6.841   7.948  1.4735 -0.6589 -0.7412
 2271TIP3    H231009   2.075   6.926   8.072 -2.2733 -0.4632 -0.3463
 2272TIP3   OH231010   5.753   3.935   8.080  0.0331 -0.1580  0.1191
 2272TIP3    H131011   5.700   3.912   8.004 -1.2878  0.1572  0.9045
 2272TIP3    H231012   5.793   4.019   8.056 -0.0997 -0.2255 -0.3585
 2273TIP3   OH231013   2.875   1.633   8.345 -0.1737 -0.2789  0.5857
 2273TIP3    H131014   2.895   1.723   8.322 -1.2274 -0.4453 -1.1701
 2273TIP3    H231015   2.843   1.637   8.435 -1.6151  1.3060  0.0454
 2274TIP3   OH231016   1.167   4.067   8.329 -0.1490 -0.1331  0.1308
 2274TIP3    H131017   1.203   4.153   8.349 -1.2451  0.4790 -0.4615
 2274TIP3    H231018   1.244   4.010   8.324  1.1409  1.6008 -3.7864
 2275TIP3   OH231019   4.839   5.942   9.162 -0.6084 -0.0915  0.6126
 2275TIP3    H131020   4.817   6.025   9.121 -0.8829 -1.3287 -1.9658
 2275TIP3    H231021   4.933   5.932   9.150 -0.6269 -0.2995  0.6251
 2276TIP3   OH231022   0.460   6.922   9.354  0.0292  0.0334  0.0960
 2276TIP3    H131023   0.551   6.894   9.364 -0.4939 -2.4748 -1.1029
 2276TIP3    H231024   0.464   7.005   9.306  1.6827  0.3271  0.7065
 2277TIP3   OH231025   6.163   1.151   7.400 -0.0339 -0.2318 -0.6067
 2277TIP3    H131026   6.180   1.124   7.490 -0.6442  1.1125 -0.0667
 2277TIP3    H231027   6.106   1.082   7.364  0.7267 -1.1043 -0.1913
 2278TIP3   OH231028   2.262   1.891   8.239 -0.0090 -0.7628 -0.3873
 2278TIP3    H131029   2.348   1.931   8.239 -0.3891  0.0735 -0.4364
 2278TIP3    H231030   2.222   1.918   8.322 -0.5994 -0.2929 -0.8102
 2279TIP3   OH231031   3.458   7.022   8.562 -0.6283  0.3605 -0.0833
 2279TIP3    H131032   3.534   6.996   8.615 -1.5269 -0.3855  0.8878
 2279TIP3    H231033   3.494   7.081   8.496  0.7495  0.2531  0.5322
 2280TIP3   OH231034   1.561   1.167   7.818  0.1819  0.2766  0.1042
 2280TIP3    H131035   1.521   1.153   7.732  1.7956  0.1822 -0.6618
 2280TIP3    H231036   1.611   1.087   7.834 -0.1803  0.2564  1.1872
 2281TIP3   OH231037   6.853   0.892   9.352  1.0565 -0.4797  0.0975
 2281TIP3    H131038   6.848   0.799   9.330 -0.0601 -0.4005 -0.0723
 2281TIP3    H231039   6.943   0.917   9.335  0.9362 -1.1069 -1.6303
 2282TIP3   OH231040   3.335   4.570   8.601 -0.9221 -0.6239 -0.0889
 2282TIP3    H131041   3.403   4.636   8.587 -0.0173 -1.3667  0.6564
 2282TIP3    H231042   3.369   4.515   8.672 -2.1185 -1.2682  0.0150
 2283TIP3   OH231043   0.541   2.740   7.689  0.3242 -0.6089  0.0992
 2283TIP3    H131044   0.474   2.765   7.626 -2.1326  1.9253  3.3093
 2283TIP3    H231045   0.612   2.803   7.676 -1.4151  1.8147  1.5073
 2284TIP3   OH231046   0.240   7.628   9.626 -0.3030  0.2263 -0.2480
 2284TIP3    H131047   0.231   7.617   9.532 -0.3163 -2.4627 -0.0111
 2284TIP3    H231048   0.317   7.575   9.649  0.9911  2.5077  1.0161
 2285TIP3   OH231049   0.521   2.205   9.608  0.9498 -0.2552 -0.3919
 2285TIP3    H131050   0.532   2.114   9.636 -1.0091 -0.4346 -0.0272
 2285TIP3    H231051   0.603   2.248   9.631  1.4989 -1.6890  0.4307
 2286TIP3   OH231052   1.191   0.761   6.761 -0.3366  0.0938 -0.3062
 2286TIP3    H131053   1.183   0.741   6.668 -0.0509 -1.3067 -0.0493
 2286TIP3    H231054   1.235   0.685   6.799  2.8138  2.0846  0.4146
 2287TIP3   OH231055   5.666   6.298   8.227 -0.7456  0.1535  0.5860
 2287TIP3    H131056   5.715   6.366   8.183  0.6499 -0.3908  1.2458
 2287TIP3    H231057   5.587   6.287   8.174  1.4308 -1.4328 -2.6148
 2288TIP3   OH231058   6.494   6.575   9.180  0.5657  0.2619 -0.2699
 2288TIP3    H131059   6.492   6.490   9.136 -1.8878  0.4008 -0.5200
 2288TIP3    H231060   6.516   6.554   9.271  1.4175 -0.4505 -0.6185
 2289TIP3   OH231061   7.176   5.926   8.396 -0.0110  0.4960 -0.0403
 2289TIP3    H131062   7.239   5.996   8.412  0.8383  0.2050 -1.9407
 2289TIP3    H231063   7.202   5.856   8.456  1.2817  0.5063 -0.5666
 2290TIP3   OH231064   4.108   1.840   7.469 -0.3521 -0.3209  0.2571
 2290TIP3    H131065   4.169   1.858   7.398 -0.3814 -0.8944  0.0810
 2290TIP3    H231066   4.160   1.792   7.534 -0.6554 -0.9839  0.0198
 2291TIP3   OH231067   6.495   3.459   8.194 -0.1357  0.0499  0.2255
 2291TIP3    H131068   6.535   3.394   8.137  1.0930  0.3014  0.7710
 2291TIP3    H231069   6.473   3.532   8.135  0.4310  0.0039 -0.0509
 2292TIP3   OH231070   6.973   0.758   8.121 -0.3531 -0.6003 -0.1673
 2292TIP3    H131071   6.970   0.662   8.129 -3.3413 -0.9625 -2.9864
 2292TIP3    H231072   6.888   0.787   8.155 -0.0630  0.8664 -0.6421
 2293TIP3   OH231073   6.476   3.427   8.628  0.5285  0.1198 -0.2788
 2293TIP3    H131074   6.471   3.427   8.723  1.6992 -0.2558 -0.2003
 2293TIP3    H231075   6.411   3.491   8.600 -0.2346 -0.1964  0.7444
 2294TIP3   OH231076   0.057   1.177   9.356 -0.0338 -0.1724 -0.1241
 2294TIP3    H131077   0.084   1.137   9.274  1.3574  0.2731  0.0924
 2294TIP3    H231078  -0.035   1.198   9.343  0.2894  0.3944 -1.7742
 2295TIP3   OH231079   3.410   0.895   8.407  0.6971  0.2424 -0.2627
 2295TIP3    H131080   3.414   0.859   8.319  1.2893  0.0542 -0.1643
 2295TIP3    H231081   3.446   0.984   8.398 -2.0969  1.4196 -0.7843
 2296TIP3   OH231082   6.071   2.070   8.882 -0.3058  0.1463  0.5367
 2296TIP3    H131083   6.075   2.148   8.937 -1.9684  1.1803 -0.6927
 2296TIP3    H231084   6.017   2.096   8.807  1.3722 -1.3491 -1.3222
 2297TIP3   OH231085   0.315   1.363   8.967  0.4709  0.3354  0.2982
 2297TIP3    H131086   0.339   1.371   9.059 -0.8994  1.8386  0.5682
 2297TIP3    H231087   0.298   1.453   8.939 -0.2271 -0.2084 -1.1302
 2298TIP3   OH231088   1.800   4.667   9.073  0.1505 -0.1557  0.1255
 2298TIP3    H131089   1.732   4.606   9.042 -0.3806 -0.0086  0.9778
 2298TIP3    H231090   1.774   4.688   9.162  0.7435  0.7519  0.0895
 2299TIP3   OH231091   7.418   0.946   6.906  0.3400 -0.0503 -0.0243
 2299TIP3    H131092   7.394   0.947   6.813 -0.3655 -0.7579  0.1402
 2299TIP3    H231093   7.379   0.865   6.940  0.6135  0.1889  0.8849
 2300TIP3   OH231094   3.758   5.307   6.983 -0.5672 -0.2210 -0.6539
 2300TIP3    H131095   3.848   5.283   6.963 -0.2740 -1.5869  1.8794
 2300TIP3    H231096   3.707   5.271   6.910  0.8617  0.3912 -2.0181
 2301TIP3   OH231097   2.492   1.225   8.161  0.0800 -0.0906 -0.4937
 2301TIP3    H131098   2.586   1.238   8.165 -0.1210  1.0690  1.8339
 2301TIP3    H231099   2.455   1.297   8.213 -1.8256 -2.8410  2.3237
 2302TIP3   OH231100   1.509   2.737   8.749  0.5048 -0.2154 -0.0653
 2302TIP3    H131101   1.506   2.662   8.689  2.0705 -0.2972 -0.0783
 2302TIP3    H231102   1.433   2.725   8.805 -0.4969 -0.6290 -1.4513
 2303TIP3   OH231103   3.960   0.418   9.545  0.5116  0.0161 -0.4307
 2303TIP3    H131104   3.920   0.436   9.460 -1.1944  0.7492  0.4697
 2303TIP3    H231105   3.949   0.499   9.594 -2.6582 -1.6341  1.9856
 2304TIP3   OH231106   5.496   1.191   8.051 -0.1102 -0.6754 -0.4659
 2304TIP3    H131107   5.444   1.236   7.984 -0.7418 -1.4459 -0.5139
 2304TIP3    H231108   5.465   1.101   8.049 -0.7127 -0.5645  1.3950
 2305TIP3   OH231109   5.375   7.613   8.399  0.0052  0.6974  0.5142
 2305TIP3    H131110   5.395   7.671   8.326  1.5318  1.8949  1.7906
 2305TIP3    H231111   5.451   7.554   8.404  0.3233  1.1759  1.6054
 2306TIP3   OH231112   2.317   2.894   8.063 -0.5574  0.1665  0.6964
 2306TIP3    H131113   2.232   2.858   8.036 -1.0086 -0.0093  2.2333
 2306TIP3    H231114   2.339   2.845   8.143 -0.0180  1.6360  1.4806
 2307TIP3   OH231115   6.705   2.455   7.218  0.4209 -0.5019  0.1212
 2307TIP3    H131116   6.627   2.509   7.223 -0.5158 -1.8099  0.2715
 2307TIP3    H231117   6.672   2.365   7.209  1.8840 -1.1922  1.1731
 2308TIP3   OH231118   5.823   6.185   8.408  0.1987 -0.1620  0.1788
 2308TIP3    H131119   5.771   6.198   8.329  1.8785  0.7368 -0.8249
 2308TIP3    H231120   5.768   6.129   8.464 -1.8238  0.7687 -0.7942
 2309TIP3   OH231121   2.460   3.992   9.401  0.2150 -0.2422  0.1521
 2309TIP3    H131122   2.543   3.946   9.386  0.8821  1.2302 -0.9734
 2309TIP3    H231123   2.396   3.922   9.416  1.2982 -1.5096 -0.8196
 2310TIP3   OH231124   1.103   3.937   7.590  0.2548  0.9283  0.3711
 2310TIP3    H131125   1.185   3.952   7.544  0.3400 -0.3665  0.0634
 2310TIP3    H231126   1.043   4.004   7.556  0.3521  0.0816 -1.5354
 2311TIP3   OH231127   7.053   5.268   8.284  0.5986  0.4164  1.1909
 2311TIP3    H131128   7.094   5.324   8.218  0.2489  1.6426  1.9810
 2311TIP3    H231129   7.104   5.282   8.363  0.5282 -0.4307  1.3980
 2312TIP3   OH231130   0.828   0.529   8.539  0.4526  0.1969  0.8129
 2312TIP3    H131131   0.904   0.524   8.481  0.4042 -1.1647  0.8219
 2312TIP3    H231132   0.852   0.474   8.614 -0.0696  0.7304  1.3728
 2313TIP3   OH231133   0.685   6.496   7.360  0.3381  0.2882  0.2824
 2313TIP3    H131134   0.641   6.510   7.276 -0.0561  0.1148  0.4570
 2313TIP3    H231135   0.686   6.401   7.372  0.3807  0.3129  0.4818
 2314TIP3   OH231136   0.808   3.000   8.738 -0.1557  0.0532 -0.5377
 2314TIP3    H131137   0.763   2.962   8.814  0.2633 -0.3543 -0.4871
 2314TIP3    H231138   0.749   3.068   8.707 -0.3730  0.1709  0.1063
 2315TIP3   OH231139   4.158   5.170   8.706 -0.6049 -0.6089  0.7384
 2315TIP3    H131140   4.170   5.154   8.800  0.5888  1.3444  0.9796
 2315TIP3    H231141   4.244   5.198   8.675 -1.4623  0.7917 -0.4967
 2316TIP3   OH231142   0.074   4.812   9.240 -0.5448  0.7310  0.0275
 2316TIP3    H131143   0.141   4.765   9.290 -0.7476  2.5268  2.1480
 2316TIP3    H231144   0.016   4.744   9.206  1.2375 -0.7295 -0.1976
 2317TIP3   OH231145   2.324   1.877   8.651 -0.6789  0.5793  0.3484
 2317TIP3    H131146   2.371   1.814   8.706 -0.1247  0.4309 -0.2837
 2317TIP3    H231147   2.393   1.919   8.599 -1.3702 -0.9753 -1.9739
 2318TIP3   OH231148   0.267   0.759   8.959  0.4383  0.5670  0.8578
 2318TIP3    H131149   0.259   0.829   9.024  0.5226  0.8830  0.5309
 2318TIP3    H231150   0.358   0.763   8.929 -0.5604  3.1757 -2.3016
 2319TIP3   OH231151   5.789   5.275   9.342  0.3934  0.5845 -0.0820
 2319TIP3    H131152   5.727   5.323   9.287  0.7324  0.0010 -0.9922
 2319TIP3    H231153   5.741   5.260   9.424  0.1707  2.1952  0.1345
 2320TIP3   OH231154   5.994   0.941   7.317 -0.2441 -1.1023 -0.0026
 2320TIP3    H131155   5.995   0.907   7.407 -1.8873  0.9076  0.8683
 2320TIP3    H231156   5.903   0.929   7.288 -0.5300  1.0287 -0.1749
 2321TIP3   OH231157   4.370   4.219   7.172 -0.2604 -0.0008 -1.0255
 2321TIP3    H131158   4.404   4.283   7.235  1.8765 -2.4975  0.5745
 2321TIP3    H231159   4.441   4.207   7.109 -1.0518 -0.0317 -1.9276
 2322TIP3   OH231160   3.299   7.393   8.173  0.2302  0.7446 -0.5255
 2322TIP3    H131161   3.293   7.334   8.098  1.4537  0.3818 -0.3569
 2322TIP3    H231162   3.234   7.461   8.155  1.0159  1.0778 -2.2852
 2323TIP3   OH231163   3.281   5.061   8.947 -0.2289  0.1964 -0.3815
 2323TIP3    H131164   3.336   4.987   8.922 -0.3920  0.4507 -1.5259
 2323TIP3    H231165   3.342   5.132   8.967 -0.0551 -0.3291  1.0854
 2324TIP3   OH231166   5.268   6.969   7.366 -0.3585 -0.0438 -0.1263
 2324TIP3    H131167   5.270   7.020   7.285  1.5255  0.4830  0.1885
 2324TIP3    H231168   5.316   6.889   7.345 -2.8237 -1.5127 -0.4603
 2325TIP3   OH231169   0.646   3.574   8.898 -0.0277 -0.4020  0.4014
 2325TIP3    H131170   0.589   3.651   8.903  0.3470  0.0353 -1.3804
 2325TIP3    H231171   0.734   3.610   8.899  0.1676 -0.8905  0.6745
 2326TIP3   OH231172   3.573   1.707   7.416 -0.2870 -0.1759 -0.3484
 2326TIP3    H131173   3.603   1.629   7.369 -1.1200  0.5074 -2.1268
 2326TIP3    H231174   3.591   1.779   7.356 -0.5941  0.8677  0.7776
 2327TIP3   OH231175   6.077   1.041   8.614 -0.8195 -0.0680  0.1567
 2327TIP3    H131176   6.113   1.038   8.703  1.1310  0.9062 -0.5589
 2327TIP3    H231177   6.098   0.955   8.577  2.7360  1.0644 -0.8845
 2328TIP3   OH231178   0.277   6.805   8.924 -0.0148 -0.1270 -0.4805
 2328TIP3    H131179   0.213   6.874   8.906 -0.1623 -0.2245 -0.3349
 2328TIP3    H231180   0.357   6.852   8.949  0.0031 -0.0028 -0.7651
 2329TIP3   OH231181   3.382   5.081   8.316  0.4529 -0.0640 -0.2935
 2329TIP3    H131182   3.365   4.995   8.279  0.0310  0.5910 -1.6798
 2329TIP3    H231183   3.470   5.075   8.353  0.7470 -0.8546 -1.1058
 2330TIP3   OH231184   3.940   5.325   9.062  0.0882 -0.0115  0.1572
 2330TIP3    H131185   4.035   5.337   9.067  0.3382 -1.8597  0.6880
 2330TIP3    H231186   3.929   5.233   9.038 -1.5644 -0.2644  1.6930
 2331TIP3   OH231187   0.680   2.988   9.466 -0.1474  0.3801  0.3696
 2331TIP3    H131188   0.636   2.906   9.488 -0.0159  0.1902 -0.0505
 2331TIP3    H231189   0.615   3.036   9.414 -0.1925  0.4996  0.5389
 2332TIP3   OH231190   6.180   6.755   9.231  0.3886 -0.2210 -0.6741
 2332TIP3    H131191   6.211   6.836   9.191 -0.5611  0.1008 -0.7791
 2332TIP3    H231192   6.193   6.688   9.163  1.8275 -0.3116 -0.3392
 2333TIP3   OH231193   5.712   1.544   9.216  0.6865 -0.1971 -0.1233
 2333TIP3    H131194   5.642   1.511   9.272  1.5068 -0.2386  0.9326
 2333TIP3    H231195   5.698   1.502   9.131  0.7341 -1.9814  0.6976
 2334TIP3   OH231196   2.390   6.425   6.886  0.0164  0.2183 -0.3810
 2334TIP3    H131197   2.450   6.449   6.816 -0.0828  1.4419 -0.0723
 2334TIP3    H231198   2.345   6.507   6.908  0.8872  0.1519  1.9052
 2335TIP3   OH231199   1.630   2.851   9.481  0.6715  0.1219  0.4350
 2335TIP3    H131200   1.541   2.858   9.448  0.6313 -1.2269  0.1887
 2335TIP3    H231201   1.668   2.937   9.467 -0.8792  1.0183  1.4387
 2336TIP3   OH231202   0.167   0.380   9.523 -0.1613 -0.1111  0.4936
 2336TIP3    H131203   0.236   0.446   9.530  0.9250 -1.1221 -0.2312
 2336TIP3    H231204   0.165   0.339   9.610  0.5150 -0.4067  0.3782
 2337TIP3   OH231205   0.521   4.290   6.771  0.4886 -0.1886 -0.2997
 2337TIP3    H131206   0.593   4.328   6.821 -0.8023  2.2982 -0.1324
 2337TIP3    H231207   0.563   4.251   6.694  2.0255  1.1075 -0.1719
 2338TIP3   OH231208   4.193   2.882   8.928  0.6298 -0.5682  0.8981
 2338TIP3    H131209   4.211   2.862   8.836 -1.1750 -0.4863  0.4940
 2338TIP3    H231210   4.279   2.905   8.964  1.0951  1.9512 -1.4092
 2339TIP3   OH231211   2.351   7.345   8.544  0.0159  0.3311  0.4919
 2339TIP3    H131212   2.336   7.293   8.465 -0.5311  0.7109  0.3386
 2339TIP3    H231213   2.420   7.298   8.591 -0.7801 -0.7648  0.5812
 2340TIP3   OH231214   6.155   2.030   6.751  0.5568  0.0940  0.0194
 2340TIP3    H131215   6.106   2.009   6.672 -1.1591 -2.1091  1.5243
 2340TIP3    H231216   6.238   1.983   6.741 -0.4997 -1.9492  0.3611
 2341TIP3   OH231217   3.078   3.228   8.677 -0.0514 -0.0448  0.6355
 2341TIP3    H131218   3.016   3.298   8.700  2.2122  1.7851  1.6525
 2341TIP3    H231219   3.103   3.190   8.761 -0.8379 -1.7644  0.1204
 2342TIP3   OH231220   5.427   4.248   8.928 -0.0229 -0.3442  0.3319
 2342TIP3    H131221   5.393   4.333   8.957 -0.2572 -0.2334 -0.2505
 2342TIP3    H231222   5.350   4.201   8.896 -0.0662 -1.1888  1.5989
 2343TIP3   OH231223   4.506   2.608   8.787 -0.4634 -0.1923 -0.0368
 2343TIP3    H131224   4.450   2.547   8.834  0.6763 -1.1882  0.0718
 2343TIP3    H231225   4.593   2.592   8.821 -0.0446  1.1019 -0.4369
 2344TIP3   OH231226   1.537   5.340   8.988  0.0766 -0.2036  0.0126
 2344TIP3    H131227   1.453   5.382   9.006  0.3416  0.9757 -1.2863
 2344TIP3    H231228   1.555   5.288   9.066 -2.2653 -1.2062 -0.0243
 2345TIP3   OH231229   4.921   5.436   7.743  0.5081  0.1417  0.3409
 2345TIP3    H131230   4.960   5.348   7.742  1.7341  0.5584  2.7382
 2345TIP3    H231231   4.916   5.458   7.836  2.1669  3.4051 -0.1975
 2346TIP3   OH231232   3.587   6.617   8.694  1.0664  0.0317 -0.3740
 2346TIP3    H131233   3.510   6.597   8.641 -0.5711 -0.2822  2.0008
 2346TIP3    H231234   3.636   6.535   8.697 -0.2005 -0.7256  0.7160
 2347TIP3   OH231235   0.315   6.738   9.207  0.7059 -0.3411 -0.0865
 2347TIP3    H131236   0.378   6.791   9.256  1.1059  1.4648 -2.3843
 2347TIP3    H231237   0.360   6.717   9.125 -0.9975 -0.6048 -1.0056
 2348TIP3   OH231238   5.502   3.370   9.034 -0.1960  0.0582  0.2176
 2348TIP3    H131239   5.510   3.324   9.117  1.8802 -0.4464 -0.1950
 2348TIP3    H231240   5.458   3.452   9.056 -2.8532 -1.4911  1.1758
 2349TIP3   OH231241   7.109   7.672   7.932 -0.1062  0.4648  0.6402
 2349TIP3    H131242   7.117   7.590   7.883 -1.4617  0.9118 -0.3631
 2349TIP3    H231243   7.182   7.669   7.994  1.7366 -0.0681 -1.4450
 2350TIP3   OH231244   6.561   1.988   8.129  0.4666 -0.1996 -0.1292
 2350TIP3    H131245   6.506   2.058   8.165 -0.0031 -0.6281  0.0063
 2350TIP3    H231246   6.649   2.026   8.125  0.3836  0.1113  0.7478
 2351TIP3   OH231247   6.168   3.973   7.558 -0.0543 -0.2527  0.2579
 2351TIP3    H131248   6.200   4.007   7.641  0.1214  0.1559  0.0281
 2351TIP3    H231249   6.157   3.879   7.573  0.6566 -0.3005  0.5346
 2352TIP3   OH231250   4.130   0.075   9.635 -0.2257 -0.4779 -0.2033
 2352TIP3    H131251   4.142   0.111   9.547 -3.8356 -1.2160 -1.1814
 2352TIP3    H231252   4.175   0.136   9.693 -0.5116  1.8940 -2.3056
 2353TIP3   OH231253   7.177   6.697   6.792  0.0348 -0.5151 -0.1520
 2353TIP3    H131254   7.160   6.785   6.759 -2.0496 -1.0575 -0.6762
 2353TIP3    H231255   7.217   6.711   6.878  0.7966  0.9221 -0.7128
 2354TIP3   OH231256   3.201   7.091   8.526 -0.4743  0.5039 -0.4401
 2354TIP3    H131257   3.286   7.099   8.569 -0.4474  1.0808 -0.5820
 2354TIP3    H231258   3.222   7.066   8.436 -0.4065  1.2202 -0.6365
 2355TIP3   OH231259   0.428   5.863   7.243 -0.6712 -0.2153  0.5763
 2355TIP3    H131260   0.365   5.858   7.171  1.0074  1.4838 -1.1569
 2355TIP3    H231261   0.374   5.864   7.322 -2.8021  0.7991 -0.7877
 2356TIP3   OH231262   6.103   6.563   7.934 -0.0957  0.8849 -0.1237
 2356TIP3    H131263   6.163   6.635   7.916  0.1872  0.6583 -0.0891
 2356TIP3    H231264   6.079   6.530   7.848  1.2486 -0.1904 -0.1243
 2357TIP3   OH231265   2.316   7.047   7.757  0.1862 -0.6492 -0.6424
 2357TIP3    H131266   2.355   7.129   7.726  0.0110 -0.2286  0.2207
 2357TIP3    H231267   2.331   7.047   7.851  0.1026 -1.5760 -0.6184
 2358TIP3   OH231268   1.161   6.600   9.617 -0.1786  0.1671 -0.3912
 2358TIP3    H131269   1.191   6.544   9.689 -0.2246  0.4200 -0.1753
 2358TIP3    H231270   1.215   6.574   9.542 -0.4167 -0.3942 -0.3749
 2359TIP3   OH231271   4.153   3.800   8.008  0.3528 -0.3712  0.5023
 2359TIP3    H131272   4.067   3.836   8.032  0.9581  1.2899  0.3107
 2359TIP3    H231273   4.139   3.761   7.921 -0.1961 -0.0351  0.4342
 2360TIP3   OH231274   4.787   1.355   9.438 -0.1667  0.2779 -0.1043
 2360TIP3    H131275   4.694   1.350   9.458  0.1654  0.1810  1.6298
 2360TIP3    H231276   4.829   1.370   9.523  1.3336  1.2678 -0.9589
 2361TIP3   OH231277   6.504   2.628   6.950 -0.1807  0.1716 -0.5739
 2361TIP3    H131278   6.579   2.584   6.911  1.8958  0.8842  2.2888
 2361TIP3    H231279   6.530   2.719   6.960 -0.8062  0.1879  1.6570
 2362TIP3   OH231280   0.309   3.199   8.217 -0.1116  0.1215 -0.0488
 2362TIP3    H131281   0.363   3.264   8.171  1.0511  0.0562  1.1734
 2362TIP3    H231282   0.300   3.127   8.155  0.5587  0.4727 -0.5661
 2363TIP3   OH231283   4.224   0.850   6.840 -0.4399  0.0614  0.5718
 2363TIP3    H131284   4.302   0.878   6.791  0.0332 -0.7131  0.8605
 2363TIP3    H231285   4.193   0.773   6.793 -0.4924 -0.1729  0.9882
 2364TIP3   OH231286   5.802   2.132   6.960 -0.5413  0.2213  0.1331
 2364TIP3    H131287   5.758   2.169   7.037  0.3475 -0.3229  0.9344
 2364TIP3    H231288   5.870   2.076   6.997 -0.5810 -0.6485 -1.0591
 2365TIP3   OH231289   4.102   3.392   8.588 -0.6682 -0.3908 -0.3565
 2365TIP3    H131290   4.166   3.333   8.547 -0.2807  1.0176 -1.8676
 2365TIP3    H231291   4.115   3.380   8.682  3.4744  1.4929 -0.5132
 2366TIP3   OH231292   7.461   1.152   7.393  0.6988  0.3126 -0.0679
 2366TIP3    H131293   7.465   1.113   7.305 -0.4688 -0.6038  0.2651
 2366TIP3    H231294   7.394   1.102   7.439  2.0805  0.0236  1.7383
 2367TIP3   OH231295   1.831   2.189   8.946  0.3511 -0.3215  0.0362
 2367TIP3    H131296   1.799   2.253   8.882  0.2021 -0.0003  0.4306
 2367TIP3    H231297   1.768   2.194   9.018  0.3632 -0.8807  0.0867
 2368TIP3   OH231298   1.918   0.749   9.405 -0.2574 -0.2348 -1.1832
 2368TIP3    H131299   1.906   0.836   9.443  1.6742  0.1666 -1.3539
 2368TIP3    H231300   1.991   0.712   9.454 -0.0436 -1.1299 -2.1378
 2369TIP3   OH231301   1.105   5.072   7.721 -0.0098  0.0881 -0.0175
 2369TIP3    H131302   1.131   5.009   7.654 -1.3031 -0.4861 -0.0095
 2369TIP3    H231303   1.011   5.083   7.708  0.1136  1.6578  0.3001
 2370TIP3   OH231304   3.158   1.703   6.445 -0.7201  0.0762  0.3765
 2370TIP3    H131305   3.189   1.793   6.449  0.1322 -0.1001 -1.1947
 2370TIP3    H231306   3.236   1.650   6.461 -0.7722 -0.3727 -0.7617
 2371TIP3   OH231307   5.696   7.634   8.362 -0.1453 -0.4905 -0.0853
 2371TIP3    H131308   5.668   7.553   8.404  1.2481 -0.2338  1.4457
 2371TIP3    H231309   5.710   7.610   8.271 -1.0353 -1.6304  0.0475
 2372TIP3   OH231310   5.708   5.921   8.272 -0.5615  0.1284 -0.9808
 2372TIP3    H131311   5.796   5.926   8.235 -0.8863  1.2832 -1.6500
 2372TIP3    H231312   5.722   5.889   8.361  0.7141  1.7628 -0.5350
 2373TIP3   OH231313   0.615   1.172   7.124  0.3201 -0.1673 -0.2667
 2373TIP3    H131314   0.531   1.174   7.077  0.7796 -0.1281 -1.1018
 2373TIP3    H231315   0.622   1.081   7.154  1.2586 -0.9266 -2.6093
 2374TIP3   OH231316   5.459   4.202   7.193 -0.2329 -0.4131  0.1913
 2374TIP3    H131317   5.500   4.287   7.181 -0.0619 -0.5289 -0.0350
 2374TIP3    H231318   5.431   4.175   7.106 -3.3857  0.9424  0.6166
 2375TIP3   OH231319   5.265   3.769   8.576  0.0486 -0.0899 -0.0172
 2375TIP3    H131320   5.317   3.834   8.624 -1.4078  1.5333 -0.5183
 2375TIP3    H231321   5.238   3.814   8.496 -2.8460 -0.4902  0.6073
 2376TIP3   OH231322   3.968   4.347   8.246  0.0921 -0.4596 -0.0661
 2376TIP3    H131323   4.019   4.373   8.170 -1.7120  1.5891 -0.6846
 2376TIP3    H231324   4.031   4.347   8.318  1.6999 -1.7575 -1.3896
 2377TIP3   OH231325   2.562   0.906   8.914 -0.3276 -0.5078 -0.1912
 2377TIP3    H131326   2.505   0.879   8.842  1.0035 -1.8055 -0.7973
 2377TIP3    H231327   2.535   0.851   8.988 -1.7267  0.8581  0.3752
 2378TIP3   OH231328   0.416   2.860   7.391  0.4073  0.5767 -0.7666
 2378TIP3    H131329   0.414   2.956   7.390 -0.2654  0.6869  2.0695
 2378TIP3    H231330   0.338   2.835   7.439  1.2855 -1.3382 -0.2517
 2379TIP3   OH231331   4.801   4.099   8.448  0.6631 -0.1330 -0.0579
 2379TIP3    H131332   4.707   4.083   8.446  0.0127  2.1031  3.2569
 2379TIP3    H231333   4.837   4.030   8.504 -0.0119  1.7681  3.0084
 2380TIP3   OH231334   3.880   1.776   9.071  0.4184 -0.5291  0.4026
 2380TIP3    H131335   3.926   1.849   9.030 -1.0181 -0.2106 -0.7261
 2380TIP3    H231336   3.911   1.775   9.161  1.4806  0.5964  0.0751
 2381TIP3   OH231337   4.043   5.456   8.306 -0.1611  0.4090 -0.3357
 2381TIP3    H131338   4.012   5.540   8.272 -1.5997 -0.0479 -0.2428
 2381TIP3    H231339   4.059   5.403   8.228  0.2266  0.5987 -0.3838
 2382TIP3   OH231340   5.630   1.553   8.690 -0.0290  0.3185 -0.1030
 2382TIP3    H131341   5.712   1.547   8.641 -1.0848  0.1093 -1.9516
 2382TIP3    H231342   5.600   1.643   8.675 -0.0980  0.4178  0.6257
 2383TIP3   OH231343   6.841   4.592   8.370  0.2170 -0.3766 -0.0335
 2383TIP3    H131344   6.876   4.581   8.281 -0.1357  1.4173 -0.4321
 2383TIP3    H231345   6.797   4.509   8.388 -1.7200 -0.0442 -2.4972
 2384TIP3   OH231346   4.052   6.367   9.120 -0.8386  0.2345  0.1751
 2384TIP3    H131347   4.013   6.280   9.117  0.6298 -0.4141 -1.4633
 2384TIP3    H231348   4.146   6.352   9.121 -0.5277  1.8053  1.9468
 2385TIP3   OH231349   5.356   0.055   7.239 -0.2614 -0.7711 -0.3521
 2385TIP3    H131350   5.400   0.129   7.197 -0.4713 -0.6072 -0.2809
 2385TIP3    H231351   5.362  -0.016   7.175 -1.0044 -0.3830 -0.8528
 2386TIP3   OH231352   2.144   6.592   7.739 -0.6464 -0.0665  0.1100
 2386TIP3    H131353   2.112   6.542   7.813 -1.1226  1.7629  1.2058
 2386TIP3    H231354   2.231   6.623   7.766 -0.9058  0.7841  0.0145
 2387TIP3   OH231355   2.369   5.262   7.288  0.3670  0.1167 -0.1531
 2387TIP3    H131356   2.413   5.283   7.206 -1.2847  0.7816 -0.8980
 2387TIP3    H231357   2.389   5.336   7.345 -0.3411  0.7442 -0.7139
 2388TIP3   OH231358   4.070   3.799   9.084 -0.0599 -0.0405 -0.7723
 2388TIP3    H131359   4.020   3.741   9.141  1.6191  1.3418  2.3222
 2388TIP3    H231360   4.049   3.887   9.115  3.5719  0.6315  0.2003
 2389TIP3   OH231361   2.464   5.023   7.662 -0.3504  0.3827  0.1066
 2389TIP3    H131362   2.411   4.980   7.730 -1.1101  1.0249 -0.0636
 2389TIP3    H231363   2.429   4.987   7.580  0.2619 -0.0506  0.0284
 2390TIP3   OH231364   2.193   1.500   8.088  0.3147 -0.1534  0.1154
 2390TIP3    H131365   2.124   1.566   8.094 -0.7001 -0.9124 -2.1593
 2390TIP3    H231366   2.163   1.427   8.141  0.7961  0.6392  1.5201
 2391TIP3   OH231367   3.979   1.758   7.005  0.3426  0.0327 -0.6321
 2391TIP3    H131368   4.041   1.807   7.059  0.3159 -0.0261 -0.5475
 2391TIP3    H231369   3.918   1.825   6.972  0.8533  0.1917 -1.2752
 2392TIP3   OH231370   3.406   2.774   8.239 -0.1952  0.3823  0.4565
 2392TIP3    H131371   3.374   2.798   8.326  0.9778 -0.6954  1.2092
 2392TIP3    H231372   3.336   2.802   8.180 -0.9685  1.2284  1.7243
 2393TIP3   OH231373   4.939   3.662   7.330 -0.1038 -0.2923 -0.1039
 2393TIP3    H131374   4.997   3.678   7.405 -0.1989 -0.6929  0.0576
 2393TIP3    H231375   4.854   3.695   7.359  0.0777  0.4871 -0.4176
 2394TIP3   OH231376   3.790   3.824   7.496 -0.0815  0.0861  0.6103
 2394TIP3    H131377   3.708   3.845   7.542 -0.4903 -1.2835  0.5562
 2394TIP3    H231378   3.855   3.881   7.537 -1.4260  2.9391 -0.9241
 2395TIP3   OH231379   5.084   4.560   7.552 -0.0983  0.6090  0.3605
 2395TIP3    H131380   4.993   4.560   7.522  0.1285  1.6530 -0.3917
 2395TIP3    H231381   5.121   4.479   7.517 -0.5875  0.4652  0.1768
 2396TIP3   OH231382   5.613   4.959   9.420 -0.0791  0.3176 -0.4926
 2396TIP3    H131383   5.581   4.998   9.502 -0.3324 -0.7971 -0.0427
 2396TIP3    H231384   5.702   4.930   9.440 -0.4688 -0.8042 -0.3015
 2397TIP3   OH231385   3.146   7.067   8.948  0.1770  0.0653 -0.5453
 2397TIP3    H131386   3.221   7.037   9.000  0.6414 -1.0440 -1.8129
 2397TIP3    H231387   3.184   7.124   8.882 -0.1090 -0.3741 -1.0966
 2398TIP3   OH231388   3.668   4.135   7.769 -0.4184  0.0839  0.6466
 2398TIP3    H131389   3.651   4.167   7.681  0.2860  0.3524  0.6004
 2398TIP3    H231390   3.581   4.126   7.809 -0.7093  0.4882  0.1136
 2399TIP3   OH231391   6.035   1.040   7.646 -0.0949 -0.1576 -0.5179
 2399TIP3    H131392   5.979   1.116   7.632 -0.9001 -0.6216  0.0774
 2399TIP3    H231393   5.984   0.983   7.704  0.3618 -1.2906 -1.1979
 2400TIP3   OH231394   5.286   0.962   8.155 -0.4307  0.3290  0.3806
 2400TIP3    H131395   5.226   1.032   8.178 -1.2630 -1.2046  3.4296
 2400TIP3    H231396   5.359   0.971   8.216 -0.2357 -1.0608  0.3933
 2401TIP3   OH231397   4.467   5.687   6.668 -0.3302 -0.0710  0.5901
 2401TIP3    H131398   4.449   5.615   6.729  1.0633  0.1615  1.3184
 2401TIP3    H231399   4.561   5.699   6.672 -0.3725  0.8678 -0.6072
 2402TIP3   OH231400   4.380   2.229   7.863  0.4366 -0.2873  0.0716
 2402TIP3    H131401   4.432   2.257   7.939 -0.2845  0.5903  0.2641
 2402TIP3    H231402   4.289   2.233   7.894  0.2539 -2.4807 -0.0394
 2403TIP3   OH231403   4.953   5.019   8.765  0.0951 -0.3569 -0.1143
 2403TIP3    H131404   4.976   4.946   8.708 -0.3309  0.8732 -1.9276
 2403TIP3    H231405   5.035   5.065   8.780  0.5383 -1.6239  1.7635
 2404TIP3   OH231406   1.840   1.527   7.193 -0.0585  0.5545 -0.1208
 2404TIP3    H131407   1.838   1.537   7.288  0.1693  0.5911 -0.1200
 2404TIP3    H231408   1.813   1.613   7.159 -1.8878  0.0276 -0.0729
 2405TIP3   OH231409   2.953   5.398   9.285 -0.4427 -0.2103 -0.0912
 2405TIP3    H131410   2.952   5.463   9.355  0.6607 -0.4516  0.1755
 2405TIP3    H231411   2.978   5.447   9.207  2.7384 -0.5904  0.5213
 2406TIP3   OH231412   4.075   5.614   8.763  0.2160  0.4682  0.1558
 2406TIP3    H131413   4.107   5.682   8.704  0.0663  0.0645 -0.4015
 2406TIP3    H231414   4.154   5.568   8.791  0.2460  0.3543 -0.1140
 2407TIP3   OH231415   0.858   5.155   8.035 -0.4952  0.0216  0.4298
 2407TIP3    H131416   0.871   5.230   7.978  0.9248  1.6920  2.7927
 2407TIP3    H231417   0.764   5.156   8.054 -0.7184  0.3554 -0.6241
 2408TIP3   OH231418   5.090   4.207   6.789 -0.4104 -0.2082  0.2250
 2408TIP3    H131419   5.019   4.186   6.728 -0.6265  0.2504  0.3169
 2408TIP3    H231420   5.150   4.132   6.782 -0.2158  0.0304 -0.8560
 2409TIP3   OH231421   3.885   2.157   7.371 -0.1829 -0.2648  0.0054
 2409TIP3    H131422   3.960   2.151   7.312  0.7797  2.4063  0.7942
 2409TIP3    H231423   3.811   2.177   7.314  0.6210  1.7039 -0.4253
 2410TIP3   OH231424   1.089   3.156   7.960  0.2117  0.3136 -0.1188
 2410TIP3    H131425   1.163   3.216   7.958  0.0044  0.5736 -0.1202
 2410TIP3    H231426   1.112   3.090   8.026  0.7748 -0.0464 -0.6731
 2411TIP3   OH231427   0.192   3.617   7.501  0.4846 -0.5121  0.5326
 2411TIP3    H131428   0.110   3.614   7.451  0.6306  1.7006  0.0703
 2411TIP3    H231429   0.187   3.699   7.551  1.9588 -0.8706  1.3255
 2412TIP3   OH231430   2.812   7.303   7.279  0.1547 -0.0083  0.1997
 2412TIP3    H131431   2.832   7.308   7.373  0.8472  0.1500  0.0480
 2412TIP3    H231432   2.716   7.305   7.275  0.0970 -0.9387  0.9557
 2413TIP3   OH231433   1.999   4.245   9.171 -0.1476 -0.0520  0.3761
 2413TIP3    H131434   2.013   4.340   9.170  0.5202 -0.1504 -0.0088
 2413TIP3    H231435   2.076   4.210   9.215 -0.6204 -0.3880  0.9441
 2414TIP3   OH231436   3.283   3.949   9.145 -0.1367  0.2841  0.3892
 2414TIP3    H131437   3.334   4.025   9.173 -0.4693  0.5679  0.2304
 2414TIP3    H231438   3.211   3.945   9.208  0.8336 -0.9546  1.4851
 2415TIP3   OH231439   6.070   3.257   8.115  0.0567  0.0871  0.7397
 2415TIP3    H131440   5.998   3.254   8.052  0.1465  0.4984  0.6121
 2415TIP3    H231441   6.133   3.318   8.076 -0.0243  0.5877  1.3748
 2416TIP3   OH231442   2.974   1.597   8.059  0.8269  0.2112 -0.1357
 2416TIP3    H131443   2.959   1.631   8.147  0.5551  1.5974 -0.6939
 2416TIP3    H231444   3.063   1.560   8.063  1.3028  1.3657  0.3974
 2417TIP3   OH231445   6.689   3.069   7.978 -0.0188 -0.2434 -0.4290
 2417TIP3    H131446   6.673   2.975   7.982  2.1204 -0.6528 -0.1191
 2417TIP3    H231447   6.772   3.078   7.932 -0.7244  1.5946 -1.4597
 2418TIP3   OH231448   1.341   5.762   8.619  0.8580  0.1216 -0.0810
 2418TIP3    H131449   1.409   5.773   8.553  0.8977 -1.3663 -0.3170
 2418TIP3    H231450   1.356   5.675   8.656 -0.6938 -0.1118  0.0933
 2419TIP3   OH231451   6.833   5.714   9.140  0.5040 -0.2620 -0.0970
 2419TIP3    H131452   6.742   5.714   9.169  0.5065  1.2106 -0.0199
 2419TIP3    H231453   6.844   5.631   9.094 -0.7606 -0.6340  0.2446
 2420TIP3   OH231454   1.962   4.914   7.741  0.0829  0.5275 -0.1677
 2420TIP3    H131455   2.002   4.852   7.680 -0.7343  0.2949 -0.4885
 2420TIP3    H231456   1.914   4.860   7.803  1.0859  0.7545  0.8323
 2421TIP3   OH231457   7.524   2.059   6.643 -0.1629 -0.2285 -0.2574
 2421TIP3    H131458   7.539   1.967   6.663  1.5267  0.2371  0.9011
 2421TIP3    H231459   7.607   2.102   6.664 -1.5652  1.8849  1.4020
 2422TIP3   OH231460   1.060   3.160   7.499 -0.2762 -0.3231 -0.2305
 2422TIP3    H131461   0.988   3.219   7.478 -0.2523 -0.2216 -0.0277
 2422TIP3    H231462   1.116   3.211   7.558 -0.4607 -0.6859  0.2604
 2423TIP3   OH231463   4.210   7.128   8.930 -0.6141 -0.2962 -0.5207
 2423TIP3    H131464   4.269   7.203   8.922 -2.0656  0.6949 -2.5255
 2423TIP3    H231465   4.185   7.127   9.022  0.3556  0.9380 -0.2196
 2424TIP3   OH231466   2.639   4.147   8.019  0.1423  0.1232  0.5872
 2424TIP3    H131467   2.592   4.190   7.948  0.0419 -0.4154  0.3278
 2424TIP3    H231468   2.571   4.104   8.070  0.0235  1.7488  1.9014
 2425TIP3   OH231469   0.248   6.288   7.155  0.0000 -0.3836 -0.8840
 2425TIP3    H131470   0.236   6.193   7.153 -0.8090 -0.3570  0.7740
 2425TIP3    H231471   0.160   6.323   7.150  0.3163  0.3103 -1.7965
 2426TIP3   OH231472   6.679   2.375   6.805 -0.0403 -0.2809 -0.3735
 2426TIP3    H131473   6.741   2.378   6.732  0.8083  0.5484  0.3576
 2426TIP3    H231474   6.729   2.337   6.877 -0.7068 -0.5806 -0.0678
 2427TIP3   OH231475   7.338   0.669   7.796 -0.1345  0.0502 -0.4143
 2427TIP3    H131476   7.366   0.758   7.775  0.3833  0.1614  0.6583
 2427TIP3    H231477   7.257   0.680   7.846 -1.3118 -0.2035 -2.1908
 2428TIP3   OH231478   2.242   6.637   6.944 -0.4892  0.3132  0.2764
 2428TIP3    H131479   2.299   6.687   7.002  2.0873  0.2257 -2.0156
 2428TIP3    H231480   2.163   6.691   6.936 -1.3163  0.0231  4.2030
 2429TIP3   OH231481   0.294   3.041   8.006  0.7445 -0.1938 -0.5026
 2429TIP3    H131482   0.371   2.985   8.018  0.0666 -1.3078 -1.1386
 2429TIP3    H231483   0.264   3.021   7.918 -1.3764 -1.1998  0.3932
 2430TIP3   OH231484   2.513   4.310   9.209 -0.1217 -0.5109 -0.6078
 2430TIP3    H131485   2.432   4.344   9.245 -0.2652 -1.3365 -0.1243
 2430TIP3    H231486   2.564   4.283   9.285  0.5512 -0.1399 -0.9142
 2431TIP3   OH231487   1.850   1.310   8.456  0.9221 -0.0343  0.0927
 2431TIP3    H131488   1.768   1.335   8.497 -0.1252  0.8473 -2.3514
 2431TIP3    H231489   1.829   1.233   8.404  1.3945  0.7127 -1.2529
 2432TIP3   OH231490   6.562   4.428   6.885  0.0876 -0.4792  0.4103
 2432TIP3    H131491   6.475   4.391   6.898 -0.7279  1.5788  1.2584
 2432TIP3    H231492   6.567   4.448   6.791 -0.6417  0.0401  0.4801
 2433TIP3   OH231493   2.854   4.816   9.095  0.2762  0.1742 -0.4017
 2433TIP3    H131494   2.766   4.837   9.125  0.4788 -0.6747  0.8544
 2433TIP3    H231495   2.860   4.855   9.007 -1.4223  0.0118 -0.6098
 2434TIP3   OH231496   1.060   2.438   7.467  0.6444 -1.1365 -0.4101
 2434TIP3    H131497   0.985   2.463   7.414  1.9517  0.2550 -1.6905
 2434TIP3    H231498   1.026   2.435   7.557 -0.9706 -0.7674 -0.9776
 2435TIP3   OH231499   4.672   7.586   6.666  0.0844 -0.4859  0.0582
 2435TIP3    H131500   4.670   7.586   6.570  1.6538 -1.3310  0.0014
 2435TIP3    H231501   4.722   7.664   6.689 -0.8733  0.0973  0.2397
 2436TIP3   OH231502   1.004   2.112   8.014  0.4395  0.4961  0.4019
 2436TIP3    H131503   0.942   2.039   8.011  0.7449  0.2288  0.5284
 2436TIP3    H231504   1.082   2.076   8.056  1.1251  0.4905 -0.8394
 2437TIP3   OH231505   2.532   0.435   8.208 -0.6597 -0.0897 -0.2831
 2437TIP3    H131506   2.568   0.358   8.252 -0.7687 -0.9353 -1.6197
 2437TIP3    H231507   2.526   0.501   8.276 -0.0316 -1.0907  0.7718
 2438TIP3   OH231508   7.419   2.552   7.197  0.0335 -0.0970  0.5659
 2438TIP3    H131509   7.490   2.520   7.141 -0.2219  1.9242 -1.0221
 2438TIP3    H231510   7.346   2.566   7.137 -0.8489  0.3897  1.7276
 2439TIP3   OH231511   6.805   1.716   9.281  0.4155  0.1197  0.0809
 2439TIP3    H131512   6.769   1.633   9.252  1.8828 -0.0827 -1.2808
 2439TIP3    H231513   6.728   1.769   9.304 -0.6862 -0.7255 -1.4684
 2440TIP3   OH231514   1.910   2.308   6.663  0.0194  0.3839 -0.2102
 2440TIP3    H131515   1.913   2.218   6.630 -1.2083  0.0837  0.4406
 2440TIP3    H231516   1.918   2.363   6.585  3.3542 -0.2020 -0.4173
 2441TIP3   OH231517   6.756   6.648   9.126 -0.3128 -0.5344  0.3062
 2441TIP3    H131518   6.684   6.600   9.166  0.3159 -1.0898  0.7845
 2441TIP3    H231519   6.829   6.587   9.125 -0.7154 -1.2103 -3.2790
 2442TIP3   OH231520   0.981   6.528   7.602 -0.3365  0.4859 -0.3038
 2442TIP3    H131521   0.958   6.440   7.571 -0.1979  0.3232  0.0537
 2442TIP3    H231522   0.951   6.586   7.532  0.6736  0.0660 -1.1131
 2443TIP3   OH231523   7.176   3.925   8.865  0.4024 -0.2574  0.6763
 2443TIP3    H131524   7.203   3.892   8.951  1.0633 -0.8046  0.2745
 2443TIP3    H231525   7.097   3.875   8.844  0.2867 -0.1812  0.9355
 2444TIP3   OH231526   4.107   7.129   7.908  0.4556 -0.3597 -0.4606
 2444TIP3    H131527   4.040   7.128   7.976  2.1591  0.5342  1.3271
 2444TIP3    H231528   4.092   7.048   7.859  0.8749 -2.5441  2.7446
 2445TIP3   OH231529   3.517   7.158   8.319  0.0450 -0.3738  0.2379
 2445TIP3    H131530   3.437   7.176   8.270  0.4575  0.1874 -0.2469
 2445TIP3    H231531   3.587   7.162   8.253  0.3690 -1.8813  0.4655
 2446TIP3   OH231532   2.970   4.036   7.716 -0.0770  0.5890 -0.3960
 2446TIP3    H131533   2.904   4.059   7.782 -3.1481 -4.0186 -1.3973
 2446TIP3    H231534   2.932   4.065   7.633 -0.0513 -0.5401 -0.8212
 2447TIP3   OH231535   0.480   4.190   7.962  0.2185 -0.0282  0.5143
 2447TIP3    H131536   0.421   4.231   7.899 -1.2246  0.0215  1.8388
 2447TIP3    H231537   0.568   4.205   7.926 -0.5899 -1.8393 -2.5645
 2448TIP3   OH231538   3.998   1.541   7.583 -0.3442 -0.3524 -0.8282
 2448TIP3    H131539   4.078   1.584   7.554 -0.8125 -0.7272 -2.8127
 2448TIP3    H231540   3.935   1.612   7.594  0.4412  0.0511  1.6268
 2449TIP3   OH231541   3.882   2.662   7.292  0.6423  0.0506 -0.0504
 2449TIP3    H131542   3.864   2.690   7.202  0.6744  1.4180  0.3423
 2449TIP3    H231543   3.851   2.572   7.296 -0.5247  0.3759 -1.0839
 2450TIP3   OH231544   3.311   5.027   6.784  0.1088  0.0098  0.0636
 2450TIP3    H131545   3.265   5.008   6.865 -1.2842 -0.8275 -0.8893
 2450TIP3    H231546   3.348   4.943   6.756 -0.2505  0.0804 -0.6557
 2451TIP3   OH231547   5.042   4.476   7.861 -0.1048  0.1722  0.0809
 2451TIP3    H131548   5.018   4.447   7.949  0.1489  0.4174  0.2296
 2451TIP3    H231549   4.962   4.463   7.809 -0.0948 -0.4816  0.2213
 2452TIP3   OH231550   2.484   3.515   8.141  0.5282  0.4760 -0.4474
 2452TIP3    H131551   2.498   3.420   8.137 -1.1972  0.1549  0.3870
 2452TIP3    H231552   2.514   3.540   8.228  2.3261  0.9873 -1.1584
 2453TIP3   OH231553   1.539   3.615   8.671  0.1579 -0.4026  0.1773
 2453TIP3    H131554   1.456   3.653   8.644  0.0190 -0.4005  0.5955
 2453TIP3    H231555   1.530   3.521   8.654 -0.1174 -0.4706  0.6800
 2454TIP3   OH231556   4.859   3.960   7.817  0.2757 -0.2557 -0.2812
 2454TIP3    H131557   4.847   3.987   7.726  0.7682 -0.5580 -0.4379
 2454TIP3    H231558   4.953   3.944   7.825  0.6362  2.0722  0.9282
 2455TIP3   OH231559   6.853   6.324   6.674  0.6331  0.4728  0.2614
 2455TIP3    H131560   6.947   6.340   6.683  1.1250 -2.3824  1.2430
 2455TIP3    H231561   6.814   6.370   6.748  1.7357 -1.0983  1.9286
 2456TIP3   OH231562   2.250   0.149   8.422  0.1022 -0.2301  0.6808
 2456TIP3    H131563   2.320   0.197   8.467  0.1992 -0.8851  1.2531
 2456TIP3    H231564   2.250   0.063   8.464  0.7062 -1.1429 -1.1117
 2457TIP3   OH231565   2.437   1.111   9.186  0.0721  0.2357  0.2047
 2457TIP3    H131566   2.387   1.107   9.268 -1.1219 -3.0755 -0.5466
 2457TIP3    H231567   2.508   1.049   9.199  0.4236  0.3820 -0.9472
 2458TIP3   OH231568   5.141   4.899   8.442  0.3921  0.5844 -0.0608
 2458TIP3    H131569   5.106   4.839   8.507 -1.3453  1.6357  0.0398
 2458TIP3    H231570   5.123   4.856   8.358  2.6352 -0.7726  0.0602
 2459TIP3   OH231571   4.582   3.451   6.587  0.6303 -0.1273 -0.5370
 2459TIP3    H131572   4.608   3.374   6.637 -0.4797 -0.7666 -0.9262
 2459TIP3    H231573   4.489   3.463   6.606  0.1777 -0.3779 -2.4186
 2460TIP3   OH231574   6.727   1.136   9.379  0.0484 -0.0015 -0.3117
 2460TIP3    H131575   6.632   1.120   9.375 -0.1951  0.4425  1.9922
 2460TIP3    H231576   6.766   1.049   9.383 -0.3418 -0.1813 -0.4082
 2461TIP3   OH231577   6.599   7.669   8.350  0.5515  0.0294  0.2796
 2461TIP3    H131578   6.510   7.644   8.376  0.8889 -0.9016  0.6058
 2461TIP3    H231579   6.621   7.610   8.278  1.1766 -0.2756  0.7066
 2462TIP3   OH231580   7.131   0.836   8.805  0.3772 -0.1286  0.3048
 2462TIP3    H131581   7.039   0.861   8.818  0.2131 -0.4179 -0.2649
 2462TIP3    H231582   7.127   0.764   8.742  1.0494  0.3348 -0.2741
 2463TIP3   OH231583   3.931   6.809   7.516  0.2762 -0.1267  0.2867
 2463TIP3    H131584   3.849   6.840   7.477  0.3206 -2.5029 -1.9729
 2463TIP3    H231585   4.000   6.850   7.464  0.4821  0.1679  0.7844
 2464TIP3   OH231586   7.521   4.928   7.439  0.7280 -0.4173  0.2397
 2464TIP3    H131587   7.462   4.909   7.367  0.0873 -0.5302  0.7848
 2464TIP3    H231588   7.492   5.013   7.473 -0.0095 -1.0998  1.3713
 2465TIP3   OH231589   3.230   0.948   8.006 -0.3578 -0.1338 -0.4012
 2465TIP3    H131590   3.174   0.982   8.076  1.3082  2.7825 -0.3150
 2465TIP3    H231591   3.171   0.898   7.950 -2.6749  1.2726  0.6565
 2466TIP3   OH231592   3.095   3.931   7.353  0.2785  0.3382  0.0150
 2466TIP3    H131593   3.060   3.873   7.285 -0.9578  0.4573  0.5275
 2466TIP3    H231594   3.136   4.002   7.304 -0.6633  0.4656 -0.6213
 2467TIP3   OH231595   1.236   3.644   7.067 -0.2903 -0.3110  0.1381
 2467TIP3    H131596   1.167   3.708   7.081  0.5295  0.4498  0.8438
 2467TIP3    H231597   1.195   3.560   7.085 -1.0286  0.1238  0.5336
 2468TIP3   OH231598   0.110   0.964   7.267  0.1103 -0.6477 -0.3692
 2468TIP3    H131599   0.020   0.996   7.271 -0.0844 -1.0266 -1.2777
 2468TIP3    H231600   0.151   1.018   7.199  0.7085 -0.1614  0.3656
 2469TIP3   OH231601   1.519   5.821   7.593 -0.3981  0.0882  0.5280
 2469TIP3    H131602   1.591   5.849   7.649  2.1792  0.1575 -2.5375
 2469TIP3    H231603   1.502   5.731   7.620  1.8059 -0.3992  0.4825
 2470TIP3   OH231604   2.600   3.609   8.384 -0.4157 -0.5258  0.3780
 2470TIP3    H131605   2.512   3.632   8.414  0.0226 -1.5675  2.6745
 2470TIP3    H231606   2.658   3.669   8.431  0.1730 -0.4727 -0.3983
 2471TIP3   OH231607   1.271   1.640   7.990  0.0466 -0.0386 -0.3130
 2471TIP3    H131608   1.268   1.617   7.897 -2.4909  2.3884 -0.9839
 2471TIP3    H231609   1.296   1.732   7.991  0.0512 -0.0320  1.4344
 2472TIP3   OH231610   5.486   6.341   9.233  0.2800  0.0704 -0.1261
 2472TIP3    H131611   5.513   6.254   9.201  2.7204  0.2605  1.2198
 2472TIP3    H231612   5.447   6.383   9.156 -2.2866 -2.6587 -0.4855
 2473TIP3   OH231613   7.593   4.924   8.134 -0.7568 -0.3332  0.0170
 2473TIP3    H131614   7.651   4.883   8.199 -1.1453 -0.6963  0.1390
 2473TIP3    H231615   7.618   5.017   8.136  0.3502 -0.6014 -0.4914
 2474TIP3   OH231616   7.227   0.395   8.337  0.0738 -0.0247 -0.4748
 2474TIP3    H131617   7.276   0.336   8.395  0.4459 -0.1019 -0.8696
 2474TIP3    H231618   7.149   0.419   8.388  0.4052 -0.0831  0.0662
 2475TIP3   OH231619   5.130   7.316   8.775  0.3380 -0.0846 -0.0636
 2475TIP3    H131620   5.141   7.377   8.702  0.4764  0.3013  0.2716
 2475TIP3    H231621   5.118   7.373   8.851  0.3331 -0.4807  0.2328
 2476TIP3   OH231622   4.035   1.857   9.571  0.2026  0.1174  0.8822
 2476TIP3    H131623   3.957   1.821   9.613 -1.2223  1.2697 -0.6884
 2476TIP3    H231624   4.061   1.930   9.627 -1.4643  1.4142  0.0214
 2477TIP3   OH231625   6.491   2.537   9.529  0.1762 -0.1428  0.2069
 2477TIP3    H131626   6.552   2.463   9.530  1.0112  0.4976 -1.0884
 2477TIP3    H231627   6.410   2.502   9.566  0.5780 -1.6766 -0.3123
 2478TIP3   OH231628   1.506   0.063   7.391 -0.4474 -0.1992  0.0101
 2478TIP3    H131629   1.472  -0.027   7.397  2.2104 -1.2204  4.2579
 2478TIP3    H231630   1.441   0.115   7.438  1.1436 -1.3275  3.8495
 2479TIP3   OH231631   2.160   6.404   8.631 -0.1895  0.1972 -0.3286
 2479TIP3    H131632   2.138   6.470   8.697 -0.1673  0.2921 -0.4154
 2479TIP3    H231633   2.080   6.351   8.624 -0.2892  0.3601 -0.4296
 2480TIP3   OH231634   5.876   5.536   8.309 -0.4709  0.2692  0.1864
 2480TIP3    H131635   5.861   5.441   8.305  0.9024  0.0363  0.1684
 2480TIP3    H231636   5.897   5.561   8.219  1.5922  0.1344  0.5842
 2481TIP3   OH231637   2.886   6.096   8.124 -0.3957 -0.1104 -0.4550
 2481TIP3    H131638   2.794   6.112   8.101 -0.6149  0.3865  0.6673
 2481TIP3    H231639   2.892   6.124   8.216  1.0357  0.4963 -0.7124
 2482TIP3   OH231640   4.510   2.873   8.891 -0.4618  0.0256 -0.0580
 2482TIP3    H131641   4.515   2.808   8.820  1.0508  0.1589 -0.1047
 2482TIP3    H231642   4.560   2.834   8.963 -0.8023  0.5014  0.4469
 2483TIP3   OH231643   3.064   5.397   8.138  1.0046 -0.4458  0.9488
 2483TIP3    H131644   3.110   5.452   8.074 -2.2609  1.6278  0.1759
 2483TIP3    H231645   3.074   5.308   8.104  0.9141  0.3981 -1.5146
 2484TIP3   OH231646   2.294   5.826   7.172  0.5706  0.3870 -0.1696
 2484TIP3    H131647   2.297   5.806   7.266  0.7271  2.5311  0.3496
 2484TIP3    H231648   2.212   5.787   7.142  0.1401  0.3168  1.0406
 2485TIP3   OH231649   3.487   1.439   7.998  1.2727 -0.1609  0.3438
 2485TIP3    H131650   3.536   1.517   8.025 -0.4808  2.1881 -2.6178
 2485TIP3    H231651   3.506   1.430   7.905  0.9782 -3.0308  0.4821
 2486TIP3   OH231652   0.527   1.908   8.385 -0.1260 -0.7331  0.2863
 2486TIP3    H131653   0.487   1.824   8.361 -0.5478 -0.7199  0.9277
 2486TIP3    H231654   0.546   1.900   8.478 -0.9469  0.1841  0.5568
 2487TIP3   OH231655   2.489   2.202   8.321 -0.3524 -0.6296 -0.5073
 2487TIP3    H131656   2.408   2.196   8.271 -0.3736 -1.7445 -0.3675
 2487TIP3    H231657   2.533   2.280   8.287 -1.4768  0.0009 -0.5704
 2488TIP3   OH231658   6.146   5.946   9.140 -0.4982  0.1377 -0.2594
 2488TIP3    H131659   6.157   5.851   9.145 -1.2196  0.0941  0.9274
 2488TIP3    H231660   6.065   5.963   9.188 -0.6264  1.3154 -0.8525
 2489TIP3   OH231661   7.023   7.486   6.887 -0.1163  0.5695 -0.5615
 2489TIP3    H131662   7.024   7.411   6.947 -0.0148  0.3505 -0.8350
 2489TIP3    H231663   6.934   7.487   6.852 -0.7183  1.7506  0.8986
 2490TIP3   OH231664   5.556   7.413   8.392 -0.2581  0.4886  0.3204
 2490TIP3    H131665   5.516   7.360   8.323 -2.2891  0.5864  1.3527
 2490TIP3    H231666   5.543   7.362   8.472 -1.4931  2.1012  1.2022
 2491TIP3   OH231667   2.351   7.531   6.682 -0.3352  0.3915  0.0762
 2491TIP3    H131668   2.362   7.440   6.709 -0.0269  0.4370  0.1162
 2491TIP3    H231669   2.339   7.580   6.763  0.5562  0.5240  0.1470
 2492TIP3   OH231670   7.663   2.509   8.888 -0.1587 -0.2587 -0.2351
 2492TIP3    H131671   7.581   2.529   8.843  0.4190 -0.4150 -1.4027
 2492TIP3    H231672   7.720   2.475   8.819  0.6215 -0.9253  0.7063
 2493TIP3   OH231673   4.051   3.203   7.572 -0.7333  0.2761 -0.1388
 2493TIP3    H131674   3.999   3.127   7.599 -0.6000 -0.3422 -1.5349
 2493TIP3    H231675   4.022   3.274   7.630 -0.5523 -0.9204  1.4682
 2494TIP3   OH231676   7.656   2.903   8.616  0.0608 -0.9941 -0.6254
 2494TIP3    H131677   7.718   2.853   8.669 -0.2170  1.7434  2.6109
 2494TIP3    H231678   7.577   2.849   8.613  0.0893 -1.2927  1.9279
 2495TIP3   OH231679   0.179   3.228   8.846 -0.6883  0.1282  0.4123
 2495TIP3    H131680   0.129   3.235   8.764  2.0407  0.1644 -1.3947
 2495TIP3    H231681   0.183   3.317   8.879 -0.3076  0.4306 -0.4172
 2496TIP3   OH231682   1.121   6.650   8.135 -0.2064 -0.2562  0.4104
 2496TIP3    H131683   1.184   6.706   8.090 -1.6172  1.0221 -0.0734
 2496TIP3    H231684   1.110   6.691   8.221 -0.3163 -0.5142  0.5213
 2497TIP3   OH231685   0.444   0.928   8.194  0.5980 -0.0612 -0.7128
 2497TIP3    H131686   0.535   0.930   8.224  0.5544  0.3403 -0.5977
 2497TIP3    H231687   0.401   0.998   8.244  0.0665 -0.7135 -0.2464
 2498TIP3   OH231688   2.666   2.634   8.170  0.0156 -0.2788  0.5080
 2498TIP3    H131689   2.699   2.631   8.080 -0.3893  0.3111  0.3316
 2498TIP3    H231690   2.661   2.543   8.197  1.7750 -0.4002  0.5344
 2499TIP3   OH231691   7.529   2.776   7.079  0.0537 -0.7332  0.1399
 2499TIP3    H131692   7.467   2.807   7.013  1.0774  2.6470  0.5572
 2499TIP3    H231693   7.477   2.717   7.134 -1.8113 -0.7639 -1.5123
 2500TIP3   OH231694   5.053   3.577   7.044  0.3771 -0.5299 -0.5199
 2500TIP3    H131695   5.100   3.652   7.007 -2.5296  1.3052 -0.8121
 2500TIP3    H231696   5.009   3.612   7.121 -0.2374 -2.2184 -0.0590
 2501TIP3   OH231697   4.390   7.647   7.356 -0.3054  0.6233  0.7009
 2501TIP3    H131698   4.435   7.566   7.379 -0.2479  0.3880 -0.2024
 2501TIP3    H231699   4.459   7.704   7.323 -0.6067  0.3606 -0.4250
 2502TIP3   OH231700   2.108   5.664   7.371  0.4882 -0.0368 -0.1077
 2502TIP3    H131701   2.025   5.641   7.412  1.0139  0.3234  1.1956
 2502TIP3    H231702   2.087   5.673   7.278 -1.3224  1.8341  0.4198
 2503TIP3   OH231703   0.811   7.362   8.908  0.1695  0.2579 -0.0639
 2503TIP3    H131704   0.901   7.357   8.942  0.5161 -1.2210 -1.1190
 2503TIP3    H231705   0.758   7.318   8.975  0.2939  0.6593  0.3070
 2504TIP3   OH231706   5.884   5.442   7.166  0.3657  0.3550  0.0133
 2504TIP3    H131707   5.969   5.439   7.211  0.2264  0.2091  0.2683
 2504TIP3    H231708   5.822   5.468   7.234  0.0345 -0.5790  0.0832
 2505TIP3   OH231709   1.080   3.909   7.077  0.5139  0.6265 -0.1551
 2505TIP3    H131710   1.119   3.930   6.992 -1.7290  0.0066 -1.4067
 2505TIP3    H231711   1.048   3.993   7.110  1.6424  0.9180  0.2768
 2506TIP3   OH231712   5.917   1.987   7.254 -0.6293 -0.0303  0.0837
 2506TIP3    H131713   5.862   2.003   7.331  1.7540  1.3918  1.6071
 2506TIP3    H231714   5.944   1.896   7.262 -1.5305 -0.2999  0.1325
 2507TIP3   OH231715   2.380   3.915   7.353  0.2262 -0.2720 -0.2749
 2507TIP3    H131716   2.325   3.930   7.276  0.6762  0.0152 -0.5442
 2507TIP3    H231717   2.459   3.874   7.319  0.8851  0.8132 -0.1251
 2508TIP3   OH231718   0.582   6.348   8.388  0.1265 -0.6276  0.4398
 2508TIP3    H131719   0.520   6.414   8.418  0.4938 -0.7205  1.4306
 2508TIP3    H231720   0.643   6.337   8.461  0.6057 -1.4057 -0.0599
 2509TIP3   OH231721   1.626   2.188   6.245  0.3705 -0.4824  0.1429
 2509TIP3    H131722   1.571   2.112   6.226  0.3965 -0.3357 -0.5365
 2509TIP3    H231723   1.716   2.155   6.241  0.3689 -0.4992  0.2373
 2510TIP3   OH231724   4.691   5.269   8.107 -0.3241 -0.4223 -0.3343
 2510TIP3    H131725   4.619   5.319   8.068 -0.5924 -0.2961  0.3053
 2510TIP3    H231726   4.696   5.189   8.054 -0.6203 -0.2101 -0.6849
 2511TIP3   OH231727   1.154   7.177   8.345 -0.1409 -0.3631 -0.1847
 2511TIP3    H131728   1.118   7.246   8.290 -0.0218  0.6855  1.0151
 2511TIP3    H231729   1.078   7.144   8.394 -0.3698 -1.7467 -1.4156
 2512TIP3   OH231730   6.722   7.324   7.324 -0.2415 -0.2151  0.0308
 2512TIP3    H131731   6.653   7.308   7.260  0.8115 -0.4841 -1.0773
 2512TIP3    H231732   6.729   7.419   7.328  1.0485 -0.1643 -1.8452
 2513TIP3   OH231733   4.263   6.185   8.163  0.0430  0.5054 -0.1504
 2513TIP3    H131734   4.269   6.281   8.156  2.1830  0.5439  1.2585
 2513TIP3    H231735   4.280   6.167   8.255  0.0066 -1.2781 -0.4634
 2514TIP3   OH231736   6.710   4.668   9.020  0.0209  0.2140 -0.1718
 2514TIP3    H131737   6.635   4.726   9.008 -0.1265 -0.2497 -1.6994
 2514TIP3    H231738   6.673   4.590   9.061 -0.2841  0.0773 -0.7078
 2515TIP3   OH231739   1.820   0.681   7.488 -0.1440  0.6325 -0.0363
 2515TIP3    H131740   1.869   0.600   7.502  0.6619  1.2426  0.7593
 2515TIP3    H231741   1.873   0.730   7.425 -1.7062 -0.3424 -2.2443
 2516TIP3   OH231742   3.599   0.196   7.853  0.0887  0.1671  0.2396
 2516TIP3    H131743   3.524   0.213   7.796 -0.4282 -1.9850  0.2032
 2516TIP3    H231744   3.673   0.188   7.794  0.1564  1.1135  0.1766
 2517TIP3   OH231745   5.485   3.120   8.668  0.3022  0.0845 -0.2333
 2517TIP3    H131746   5.546   3.191   8.685 -0.0860  0.1874  0.7916
 2517TIP3    H231747   5.539   3.050   8.631  0.8395  0.5611 -0.3700
 2518TIP3   OH231748   3.738   2.712   8.697  0.3734  0.2006  0.0759
 2518TIP3    H131749   3.707   2.647   8.634  0.4444 -0.2896  0.5305
 2518TIP3    H231750   3.686   2.790   8.680 -0.1326 -0.1672 -0.0871
 2519TIP3   OH231751   0.929   1.855   8.048 -0.2950  0.3999  0.8848
 2519TIP3    H131752   0.897   1.774   8.087 -0.2185 -0.3324 -0.5041
 2519TIP3    H231753   1.023   1.841   8.039 -0.6506 -0.8316 -2.4260
 2520TIP3   OH231754   4.422   3.111   9.000 -0.4369 -0.3863 -0.2329
 2520TIP3    H131755   4.484   3.042   8.977  0.5150  1.2556 -3.0655
 2520TIP3    H231756   4.469   3.192   8.984 -2.1352  0.9679  1.1840
 2521TIP3   OH231757   3.948   0.077   7.234  0.2456 -0.4362 -0.3861
 2521TIP3    H131758   3.873   0.019   7.245 -0.0407  0.1334  0.9086
 2521TIP3    H231759   3.988   0.081   7.321  0.5844  0.8372 -0.5799
 2522TIP3   OH231760   2.082   7.178   7.862 -0.1825  0.2511  0.1969
 2522TIP3    H131761   2.157   7.135   7.820  1.3149  2.5208  0.3318
 2522TIP3    H231762   2.086   7.269   7.831 -2.9874  0.4353  0.1386
 2523TIP3   OH231763   5.766   3.533   9.008  0.0562 -0.7630 -0.2157
 2523TIP3    H131764   5.790   3.441   9.014 -0.6187 -0.9973 -0.9091
 2523TIP3    H231765   5.670   3.534   9.013  0.1177  0.0641  1.5978
 2524TIP3   OH231766   2.719   6.486   7.597 -0.3023 -0.2214  0.8072
 2524TIP3    H131767   2.796   6.542   7.586 -0.5308  0.5955  2.8341
 2524TIP3    H231768   2.751   6.397   7.580  0.0774  0.4105 -2.4549
 2525TIP3   OH231769   3.917   7.475   8.916 -0.2753  0.3818 -0.6762
 2525TIP3    H131770   3.938   7.431   8.998 -2.0645 -1.4247 -1.1228
 2525TIP3    H231771   3.973   7.433   8.851  1.2476  1.9115 -0.4297
 2526TIP3   OH231772   4.569   0.087   6.995 -0.3874 -0.3488  0.1834
 2526TIP3    H131773   4.620   0.065   6.917 -0.4566 -2.8046  0.7606
 2526TIP3    H231774   4.503   0.148   6.964 -2.2182 -3.3691 -2.3727
 2527TIP3   OH231775   6.986   5.766   7.854  0.0729 -0.3482  0.1798
 2527TIP3    H131776   6.991   5.845   7.801  0.0696 -0.3364  0.1968
 2527TIP3    H231777   7.053   5.707   7.817 -1.0066 -0.9629 -0.8611
 2528TIP3   OH231778   7.318   6.890   7.851 -0.4030  0.3049 -0.1436
 2528TIP3    H131779   7.283   6.859   7.768 -1.9596  1.2072  0.1327
 2528TIP3    H231780   7.384   6.955   7.827  0.4982 -0.7838 -0.6722
 2529TIP3   OH231781   2.004   0.594   8.668 -0.0637 -0.2297  1.0524
 2529TIP3    H131782   1.929   0.653   8.660  1.2208  1.3990  0.3032
 2529TIP3    H231783   2.031   0.577   8.577  0.3496 -0.9876  1.3074
 2530TIP3   OH231784   0.589   3.134   7.114  0.0887  0.2432 -0.0481
 2530TIP3    H131785   0.533   3.102   7.043  0.1609  1.2133 -0.5631
 2530TIP3    H231786   0.542   3.110   7.194 -1.0289  0.9135 -0.4649
 2531TIP3   OH231787   4.919   2.396   6.726  0.0786  0.4304 -0.7705
 2531TIP3    H131788   4.878   2.430   6.647 -1.9042 -1.3174 -0.5975
 2531TIP3    H231789   4.952   2.473   6.771  0.3159  1.5654 -2.7755
 2532TIP3   OH231790   6.538   3.227   8.452  0.0478 -0.2641  0.1637
 2532TIP3    H131791   6.511   3.284   8.524  0.2613  0.1316 -0.0713
 2532TIP3    H231792   6.555   3.142   8.494 -0.4142 -0.1999  0.4904
 2533TIP3   OH231793   3.753   1.460   8.743  0.0711 -1.0598 -0.3891
 2533TIP3    H131794   3.675   1.459   8.688 -1.0234 -0.8185  1.0754
 2533TIP3    H231795   3.787   1.549   8.735 -0.1442 -0.9939 -0.5810
 2534TIP3   OH231796   0.226   2.929   7.155  0.4120  0.2798  0.2599
 2534TIP3    H131797   0.191   2.899   7.239 -0.4930  2.0997  0.5912
 2534TIP3    H231798   0.308   2.972   7.177  1.5301 -1.5172 -0.1696
 2535TIP3   OH231799   4.729   2.086   6.847  0.0294 -0.5199 -0.5442
 2535TIP3    H131800   4.701   2.098   6.756 -2.4265 -0.3353  0.1621
 2535TIP3    H231801   4.671   2.018   6.881  0.8397 -0.5212  0.9130
 2536TIP3   OH231802   3.131   3.379   9.657 -0.0214  0.2496  0.1085
 2536TIP3    H131803   3.175   3.451   9.612  3.4498 -1.4155  0.5254
 2536TIP3    H231804   3.121   3.409   9.747  1.9522  0.0569  0.4236
 2537TIP3   OH231805   0.062   1.109   8.815 -0.5251  0.5293 -0.1477
 2537TIP3    H131806   0.057   1.202   8.790 -1.0311 -0.0786 -2.4968
 2537TIP3    H231807   0.145   1.079   8.779 -0.5844 -0.0726  0.2103
 2538TIP3   OH231808   1.818   5.672   8.367 -0.1106 -0.4216 -0.2596
 2538TIP3    H131809   1.792   5.731   8.297 -0.0996 -0.5817 -0.3979
 2538TIP3    H231810   1.799   5.585   8.334 -2.4909 -0.4185  0.8743
 2539TIP3   OH231811   5.410   6.753   7.253 -0.1420 -0.0855  0.1792
 2539TIP3    H131812   5.469   6.679   7.268 -1.2305 -0.9040  0.5550
 2539TIP3    H231813   5.406   6.760   7.157 -0.1162 -0.5998  0.1338
 2540TIP3   OH231814   4.901   7.029   8.822  0.4935  0.1359  0.0141
 2540TIP3    H131815   4.909   6.998   8.912  1.5809  0.3468  0.0067
 2540TIP3    H231816   4.987   7.011   8.783  0.6633  1.7935 -0.4282
 2541TIP3   OH231817   5.218   2.865   8.902  0.0555  0.2391 -0.2049
 2541TIP3    H131818   5.178   2.829   8.981  1.6825  0.5671  0.8079
 2541TIP3    H231819   5.246   2.953   8.927 -0.3333  0.7504 -1.4735
 2542TIP3   OH231820   6.784   4.857   8.049 -0.3791 -0.1286 -0.6767
 2542TIP3    H131821   6.878   4.841   8.062 -0.5270 -0.4612  0.0382
 2542TIP3    H231822   6.773   4.951   8.065 -0.4739 -0.4315  1.3126
 2543TIP3   OH231823   2.015   2.202   9.309  0.1263 -0.1401 -0.2768
 2543TIP3    H131824   2.108   2.200   9.288 -0.1464 -2.3555 -1.4762
 2543TIP3    H231825   2.002   2.127   9.367 -0.9655  0.0163 -0.3007
 2544TIP3   OH231826   3.579   5.401   7.545  0.1248 -0.7992 -0.3162
 2544TIP3    H131827   3.605   5.345   7.618  0.6960 -1.6228 -1.1252
 2544TIP3    H231828   3.626   5.483   7.559  1.0137 -1.3010 -0.2711
 2545TIP3   OH231829   7.147   2.235   6.792 -0.0706  0.1224 -0.0882
 2545TIP3    H131830   7.190   2.208   6.711  1.3346 -0.7397  0.9066
 2545TIP3    H231831   7.104   2.155   6.824 -0.1053  0.3055  0.3245
 2546TIP3   OH231832   0.867   2.520   9.547 -0.7578  0.3382  0.3342
 2546TIP3    H131833   0.933   2.588   9.547  0.1852 -0.5484 -0.3192
 2546TIP3    H231834   0.883   2.470   9.467 -2.0371 -0.0682  0.3017
 2547TIP3   OH231835   2.240   2.530   8.616 -0.1331  0.0181  0.0674
 2547TIP3    H131836   2.183   2.481   8.675 -0.4139 -0.4969 -0.6166
 2547TIP3    H231837   2.327   2.522   8.655 -0.5113  0.8681  1.1564
 2548TIP3   OH231838   3.989   2.406   7.694 -0.1257 -0.2302  0.0328
 2548TIP3    H131839   3.934   2.415   7.615 -0.2744  0.4268  0.2040
 2548TIP3    H231840   3.988   2.493   7.733  0.9241 -0.2566  0.1226
 2549TIP3   OH231841   6.338   4.092   8.838 -1.0264  0.5203 -0.1178
 2549TIP3    H131842   6.404   4.061   8.776  0.3735  0.8370  1.1550
 2549TIP3    H231843   6.263   4.033   8.825 -0.3950 -0.0409 -1.3838
 2550TIP3   OH231844   2.638   4.543   9.400  0.4818 -0.2455 -0.1397
 2550TIP3    H131845   2.662   4.459   9.438  1.4925  0.0601 -0.0747
 2550TIP3    H231846   2.704   4.560   9.333  1.2534  1.2173  0.9276
 2551TIP3   OH231847   3.244   1.517   7.692 -0.2049  0.0288  0.0264
 2551TIP3    H131848   3.242   1.471   7.777  1.1578 -0.8187 -0.3587
 2551TIP3    H231849   3.298   1.594   7.709  0.6254 -0.4827 -0.1935
 2552TIP3   OH231850   3.485   1.695   6.728 -0.0041  0.5200 -0.0170
 2552TIP3    H131851   3.463   1.753   6.802 -1.6007 -0.3254  0.2194
 2552TIP3    H231852   3.521   1.617   6.770  1.0209  0.8447 -0.2703
 2553TIP3   OH231853   6.167   1.203   6.566  0.1167 -0.1632 -0.1365
 2553TIP3    H131854   6.104   1.272   6.549 -0.8518 -0.6109  1.4079
 2553TIP3    H231855   6.171   1.153   6.484 -1.4862 -0.0881 -0.2844
 2554TIP3   OH231856   5.894   5.673   8.757  0.0790 -0.1260  0.3850
 2554TIP3    H131857   5.929   5.586   8.772 -0.1155  0.0608  2.2870
 2554TIP3    H231858   5.801   5.666   8.779 -0.3061  0.2015 -1.0527
 2555TIP3   OH231859   2.364   3.061   7.706 -0.3938  0.4820  0.2142
 2555TIP3    H131860   2.458   3.079   7.707 -0.2967 -0.0380  1.2058
 2555TIP3    H231861   2.339   3.069   7.613  1.0451 -1.4744 -0.4158
 2556TIP3   OH231862   6.246   2.601   6.774 -1.0166 -0.2005  0.3659
 2556TIP3    H131863   6.296   2.529   6.737 -0.5948  0.9089 -1.3333
 2556TIP3    H231864   6.293   2.623   6.855 -0.4477 -1.0242  0.2756
 2557TIP3   OH231865   4.371   3.238   7.005 -0.2167  0.4395 -0.3289
 2557TIP3    H131866   4.375   3.155   6.957 -0.1740 -0.6373  1.4413
 2557TIP3    H231867   4.279   3.245   7.033 -0.8611  2.3387 -2.6254
 2558TIP3   OH231868   6.218   7.601   9.562  0.1807 -0.8701 -0.6191
 2558TIP3    H131869   6.160   7.578   9.490 -2.1558 -0.7710  1.1234
 2558TIP3    H231870   6.169   7.578   9.641  0.7430  2.9952  1.0790
 2559TIP3   OH231871   3.549   1.401   8.570  0.5305  0.2287  0.3978
 2559TIP3    H131872   3.536   1.314   8.533  0.3976  0.5587 -0.3562
 2559TIP3    H231873   3.587   1.452   8.498 -0.3063  1.0446  0.5141
 2560TIP3   OH231874   4.357   2.966   6.892  0.4712  0.4787 -0.4308
 2560TIP3    H131875   4.370   2.926   6.806 -0.4387  1.6140 -1.1322
 2560TIP3    H231876   4.391   2.902   6.954  0.9363 -0.4652 -1.6229
 2561TIP3   OH231877   5.534   5.452   8.167  0.5318 -0.0073 -0.2654
 2561TIP3    H131878   5.552   5.546   8.164 -0.6597  0.2168 -0.4567
 2561TIP3    H231879   5.616   5.412   8.137  1.6094  0.8904  1.2613
 2562TIP3   OH231880   5.560   3.474   8.258  0.0572 -0.3795  0.0802
 2562TIP3    H131881   5.541   3.521   8.339  0.9228 -1.9335  1.2401
 2562TIP3    H231882   5.650   3.498   8.236 -0.5471  0.9349 -1.1020
 2563TIP3   OH231883   5.131   3.411   7.598 -0.2991 -0.2830  0.1701
 2563TIP3    H131884   5.177   3.401   7.514  1.0592 -0.3881  0.8938
 2563TIP3    H231885   5.077   3.489   7.586  0.4200  0.1258 -0.5765
 2564TIP3   OH231886   5.034   0.281   8.565 -0.2704 -0.2652 -0.4593
 2564TIP3    H131887   4.969   0.337   8.523  0.1404 -0.3035 -1.1613
 2564TIP3    H231888   4.982   0.216   8.612 -0.7487  0.4681  0.0622
 2565TIP3   OH231889   1.103   2.469   7.191  0.2359 -0.2334  0.1366
 2565TIP3    H131890   1.112   2.436   7.102 -3.1619  0.4518 -0.5956
 2565TIP3    H231891   1.058   2.398   7.238 -0.8429  0.6276  0.4285
 2566TIP3   OH231892   0.793   3.657   9.372 -0.2750  0.1943 -0.0524
 2566TIP3    H131893   0.742   3.601   9.431  0.6495  0.2168  0.7937
 2566TIP3    H231894   0.839   3.717   9.430  0.7287  0.1638 -0.7854
 2567TIP3   OH231895   6.237   2.902   8.675 -0.0056 -0.5140  0.0362
 2567TIP3    H131896   6.328   2.912   8.648 -0.1976 -0.3440 -0.5744
 2567TIP3    H231897   6.237   2.829   8.737  0.4729 -0.8209 -0.3232
 2568TIP3   OH231898   2.654   2.059   6.411  0.0489  0.5057  0.1508
 2568TIP3    H131899   2.573   2.035   6.454 -0.1499  0.0081 -0.4849
 2568TIP3    H231900   2.723   2.032   6.471 -0.1946 -0.8874 -0.1555
 2569TIP3   OH231901   6.351   3.100   8.033  0.3360  0.0133  0.6087
 2569TIP3    H131902   6.403   3.179   8.024  0.6781 -0.1877  0.7929
 2569TIP3    H231903   6.306   3.109   8.117 -0.2723  0.3844  0.2532
 2570TIP3   OH231904   6.687   7.116   8.142 -0.0786  0.2996 -0.0596
 2570TIP3    H131905   6.696   7.153   8.054  3.6128  1.8013  0.7212
 2570TIP3    H231906   6.656   7.189   8.196 -0.3363 -0.0088  0.2146
 2571TIP3   OH231907   1.650   2.363   8.522 -0.0020  0.1247 -0.4064
 2571TIP3    H131908   1.565   2.374   8.564  0.4070  0.3220  0.3952
 2571TIP3    H231909   1.711   2.410   8.579  0.6484 -0.0505 -0.9446
 2572TIP3   OH231910   5.855   6.389   8.003 -0.2934 -0.1724 -0.2463
 2572TIP3    H131911   5.875   6.299   8.028 -0.4023 -0.4402 -1.1025
 2572TIP3    H231912   5.939   6.435   8.012 -0.1251 -0.4678 -0.2898
 2573TIP3   OH231913   5.606   5.239   9.598 -0.1373  0.4134 -0.1975
 2573TIP3    H131914   5.669   5.299   9.637  0.4851  0.7044 -1.5853
 2573TIP3    H231915   5.624   5.155   9.640  1.2075  0.4847 -0.5877
 2574TIP3   OH231916   4.455   6.183   7.379  0.0963  0.7231  0.7954
 2574TIP3    H131917   4.450   6.274   7.349 -1.5575  0.4107  0.0068
 2574TIP3    H231918   4.433   6.131   7.301 -0.6404 -0.2756  1.6529
 2575TIP3   OH231919   6.084   4.673   6.769 -0.1854  0.6746  0.3108
 2575TIP3    H131920   6.154   4.732   6.797  0.2902  0.8287 -1.1030
 2575TIP3    H231921   6.087   4.601   6.832  0.4718  1.2527  0.9594
 2576TIP3   OH231922   4.148   1.119   8.904 -0.4538 -0.7575 -0.6988
 2576TIP3    H131923   4.112   1.130   8.816 -1.1234  1.1669 -0.2234
 2576TIP3    H231924   4.075   1.138   8.963  0.3374 -0.6426  0.2786
 2577TIP3   OH231925   2.687   1.477   9.612  0.6211 -0.7530 -0.2063
 2577TIP3    H131926   2.683   1.479   9.516 -0.5510  0.6088 -0.1517
 2577TIP3    H231927   2.712   1.566   9.637 -2.7563  0.0098  0.8546
 2578TIP3   OH231928   3.238   4.803   7.537 -0.0985 -0.0025 -0.0614
 2578TIP3    H131929   3.238   4.802   7.441  1.3778 -0.4609 -0.0765
 2578TIP3    H231930   3.230   4.895   7.560  0.3783  0.1947 -0.6452
 2579TIP3   OH231931   6.462   2.808   8.971  0.4060 -0.5118  0.0792
 2579TIP3    H131932   6.529   2.741   8.959  1.2377 -0.1267  2.1758
 2579TIP3    H231933   6.382   2.770   8.934  1.3367 -1.7642 -0.7062
 2580TIP3   OH231934   0.569   4.770   6.998  0.2252  0.1390  0.0236
 2580TIP3    H131935   0.577   4.708   6.926  0.8123  0.4545 -0.1892
 2580TIP3    H231936   0.491   4.742   7.045 -0.2628  0.0260 -0.8305
 2581TIP3   OH231937   1.107   0.078   8.612 -0.4907  0.2399  0.2794
 2581TIP3    H131938   1.141   0.031   8.535 -0.1009  2.6080 -1.1084
 2581TIP3    H231939   1.027   0.031   8.635 -0.1534 -1.0643 -1.0216
 2582TIP3   OH231940   3.646   3.516   7.737 -0.4290  0.3652  0.3431
 2582TIP3    H131941   3.690   3.572   7.801 -3.0892  1.1771  1.6430
 2582TIP3    H231942   3.554   3.544   7.741 -1.1118 -1.2523 -2.0910
 2583TIP3   OH231943   4.537   5.333   8.756 -0.0364 -0.6002 -0.9521
 2583TIP3    H131944   4.613   5.381   8.791 -0.3508 -0.0711 -0.9859
 2583TIP3    H231945   4.462   5.388   8.778 -0.4937 -1.4417 -0.3195
 2584TIP3   OH231946   3.204   4.243   7.729 -0.7540  0.1589  0.0351
 2584TIP3    H131947   3.163   4.159   7.709  1.0234 -0.7255 -0.1354
 2584TIP3    H231948   3.252   4.227   7.810 -1.7398  1.5318  0.9379
 2585TIP3   OH231949   3.963   4.528   9.171  0.3364 -0.3201  0.4220
 2585TIP3    H131950   3.966   4.444   9.125 -0.0165  0.7858 -1.7603
 2585TIP3    H231951   3.871   4.555   9.165  0.6661  0.7857 -0.0538
 2586TIP3   OH231952   3.302   0.244   8.702 -0.5416  0.0173  0.2031
 2586TIP3    H131953   3.378   0.200   8.741 -0.7781 -0.0997  0.5396
 2586TIP3    H231954   3.333   0.274   8.617 -0.9980 -2.6813 -1.0076
 2587TIP3   OH231955   5.014   2.528   8.732  0.2331  0.2736 -0.3824
 2587TIP3    H131956   5.051   2.606   8.773  0.0205 -0.0769  0.5026
 2587TIP3    H231957   4.967   2.560   8.656  0.9069  0.9126 -0.5363
 2588TIP3   OH231958   7.554   3.316   8.364 -0.0426 -0.7300 -0.3432
 2588TIP3    H131959   7.512   3.255   8.424  1.2087  0.0860  1.4813
 2588TIP3    H231960   7.509   3.399   8.380 -0.4312 -0.7354 -1.3676
 2589TIP3   OH231961   4.317   5.813   6.931  0.0882 -0.0866  0.3470
 2589TIP3    H131962   4.410   5.797   6.947 -0.0091 -0.5793  0.4537
 2589TIP3    H231963   4.313   5.839   6.839  0.5426  1.8394  0.8306
 2590TIP3   OH231964   5.444   7.166   7.503 -0.2335 -0.2982  0.1350
 2590TIP3    H131965   5.425   7.076   7.477 -1.7034  0.0494 -0.0932
 2590TIP3    H231966   5.484   7.206   7.426 -0.2420 -0.5555 -0.0017
 2591TIP3   OH231967   6.475   4.534   7.758  0.2852  0.0893  0.1770
 2591TIP3    H131968   6.501   4.442   7.754  1.4364  0.4239 -0.4328
 2591TIP3    H231969   6.537   4.573   7.819 -0.5998  0.3551  0.9361
 2592TIP3   OH231970   7.337   5.880   7.404 -0.2489  0.0295 -0.8992
 2592TIP3    H131971   7.424   5.911   7.430  0.0344 -1.3453 -0.0909
 2592TIP3    H231972   7.347   5.855   7.312  0.1973 -0.0551 -0.8300
 2593TIP3   OH231973   3.389   4.825   9.294  0.2095  0.5748  0.2787
 2593TIP3    H131974   3.374   4.814   9.388 -0.9688 -0.3897  0.0111
 2593TIP3    H231975   3.343   4.905   9.271 -1.3864 -0.3190  0.1775
 2594TIP3   OH231976   1.551   0.626   7.231  0.5810 -0.1538  0.0298
 2594TIP3    H131977   1.529   0.548   7.181 -1.1740 -0.0165  0.5315
 2594TIP3    H231978   1.467   0.667   7.252  1.2521  0.1984  2.4311
 2595TIP3   OH231979   2.667   6.031   7.879 -0.0226  0.1069  0.2993
 2595TIP3    H131980   2.639   6.085   7.953  0.1213  1.3215 -0.4901
 2595TIP3    H231981   2.627   5.946   7.894 -1.2408  0.7780  1.0019
 2596TIP3   OH231982   5.165   1.124   7.878  0.1324 -0.2628 -0.2830
 2596TIP3    H131983   5.198   1.210   7.852  0.8904 -0.3333  0.4098
 2596TIP3    H231984   5.072   1.138   7.895  0.5915  0.8336  1.5615
 2597TIP3   OH231985   4.147   3.017   8.491  0.2426  0.0702  0.1955
 2597TIP3    H131986   4.166   2.967   8.571  1.0384  0.2129  0.1090
 2597TIP3    H231987   4.202   3.095   8.499 -1.7112  1.4656  0.8046
 2598TIP3   OH231988   1.433   2.996   8.892  0.9462  0.3261 -0.9041
 2598TIP3    H131989   1.486   3.044   8.955 -2.2111  0.8305  1.6697
 2598TIP3    H231990   1.446   2.904   8.915 -0.1158  0.5013  0.5781
 2599TIP3   OH231991   5.969   2.698   9.150 -0.1080  0.1052  0.4747
 2599TIP3    H131992   6.053   2.704   9.194  0.1474  3.0471 -0.2090
 2599TIP3    H231993   5.904   2.721   9.217  0.0389  1.8023  0.0792
 2600TIP3   OH231994   2.148   0.855   9.006  0.1217 -0.2596  0.4742
 2600TIP3    H131995   2.221   0.845   9.066  1.8233  1.1377 -1.2421
 2600TIP3    H231996   2.093   0.778   9.022  1.5163 -0.9220  2.3946
 2601TIP3   OH231997   2.949   5.329   8.376  0.3870  0.6707  0.3054
 2601TIP3    H131998   3.002   5.361   8.303  2.5762 -1.7270  0.6754
 2601TIP3    H231999   2.870   5.293   8.336  1.5649 -0.6359 -0.9512
 2602TIP3   OH232000   3.657   6.136   7.781  0.0530 -0.0082 -0.2171
 2602TIP3    H132001   3.642   6.106   7.871 -0.0799 -0.1292 -0.2801
 2602TIP3    H232002   3.749   6.164   7.781 -0.4802  1.9660  0.5328
 2603TIP3   OH232003   4.571   6.146   7.927 -0.5415 -0.1487 -0.0443
 2603TIP3    H132004   4.644   6.205   7.945  0.3959 -1.1622 -0.4140
 2603TIP3    H232005   4.568   6.141   7.831 -1.2135  0.0105 -0.0374
 2604TIP3   OH232006   1.032   4.547   8.106 -0.2906  0.5513  0.6839
 2604TIP3    H132007   0.977   4.585   8.037  0.1268  0.5609  0.3563
 2604TIP3    H232008   1.099   4.613   8.122  0.0458  0.2335  0.5815
 2605TIP3   OH232009   1.089   3.548   8.017 -0.5952 -0.2667  0.4271
 2605TIP3    H132010   1.013   3.503   7.981 -1.8404  0.7528  1.7167
 2605TIP3    H232011   1.117   3.607   7.947 -1.3700 -0.1890  0.1756
 2606TIP3   OH232012   2.827   1.755   9.326 -0.6521 -0.2062  0.4310
 2606TIP3    H132013   2.835   1.697   9.401 -0.7717 -2.7671 -1.4003
 2606TIP3    H232014   2.891   1.722   9.262 -0.7477  1.6798 -0.7424
 2607TIP3   OH232015   5.310   3.188   8.909 -0.1578  0.3923  0.3657
 2607TIP3    H132016   5.352   3.166   8.825 -0.7558 -0.8779  0.3754
 2607TIP3    H232017   5.383   3.201   8.969  0.2677 -0.4387  0.0571
 2608TIP3   OH232018   1.503   1.031   8.869  0.7232  0.2202 -0.1851
 2608TIP3    H132019   1.499   0.957   8.928 -0.2298  0.6301  0.2857
 2608TIP3    H232020   1.524   1.106   8.926  0.5176  0.4952 -0.4658
 2609TIP3   OH232021   7.008   6.154   8.073 -0.5715 -0.3946  0.2247
 2609TIP3    H132022   6.983   6.127   8.161 -0.4502  1.0226  0.7139
 2609TIP3    H232023   7.037   6.073   8.030  0.4779 -0.9072  1.8420
 2610TIP3   OH232024   2.598   7.597   8.658  0.3254 -0.3472  0.5337
 2610TIP3    H132025   2.672   7.620   8.603 -0.1648 -0.1022 -0.0423
 2610TIP3    H232026   2.636   7.568   8.741  1.0666  3.7653  1.8741
 2611TIP3   OH232027   1.604   1.666   7.814 -0.3707 -0.3684  0.1454
 2611TIP3    H132028   1.541   1.738   7.825  0.4718  0.3265  0.5084
 2611TIP3    H232029   1.562   1.592   7.857  0.4439  0.9209  3.5203
 2612TIP3   OH232030   4.746   7.073   9.279 -0.3185  0.4588  0.1838
 2612TIP3    H132031   4.728   7.107   9.191  2.0348 -0.0660 -0.5772
 2612TIP3    H232032   4.669   7.021   9.301 -0.5165 -0.3079 -2.0662
 2613TIP3   OH232033   4.200   6.684   8.870  0.2123  0.0660  0.2213
 2613TIP3    H132034   4.196   6.739   8.948 -0.7104 -0.5706  0.6309
 2613TIP3    H232035   4.186   6.744   8.797 -1.5337  0.2912  0.7022
 2614TIP3   OH232036   3.260   5.538   7.770  0.4372 -0.1957 -0.1973
 2614TIP3    H132037   3.287   5.617   7.722  0.2020  0.7818  1.2055
 2614TIP3    H232038   3.189   5.569   7.828 -0.1645 -1.6034 -0.1432
 2615TIP3   OH232039   1.139   6.230   9.208 -0.0226 -0.6428  0.4788
 2615TIP3    H132040   1.206   6.236   9.276 -0.7419  1.0361  1.1209
 2615TIP3    H232041   1.187   6.239   9.125  0.5922  0.3305  0.9206
 2616TIP3   OH232042   6.348   1.545   6.998 -0.1520 -0.1011 -0.3974
 2616TIP3    H132043   6.370   1.632   6.965  0.6161  0.0098  0.3595
 2616TIP3    H232044   6.339   1.491   6.920 -3.1956  1.1841 -1.0644
 2617TIP3   OH232045   7.049   4.890   9.241  0.4034 -0.3001 -0.5197
 2617TIP3    H132046   6.969   4.839   9.252  1.7305 -2.7427 -1.6210
 2617TIP3    H232047   7.041   4.929   9.154 -0.6866  1.6628  0.3870
 2618TIP3   OH232048   3.206   5.386   9.110  0.0217 -0.4936 -0.1883
 2618TIP3    H132049   3.164   5.304   9.134 -1.5538  0.5666  0.8162
 2618TIP3    H232050   3.266   5.404   9.183  0.0205 -0.5104 -0.1830
 2619TIP3   OH232051   5.770   6.736   8.303 -0.1344  0.0904 -0.8588
 2619TIP3    H132052   5.791   6.752   8.211 -1.4942  0.5458 -1.1130
 2619TIP3    H232053   5.777   6.641   8.313  1.2203  0.1487 -1.1047
 2620TIP3   OH232054   6.042   4.058   7.936 -0.5343  0.4164 -0.3572
 2620TIP3    H132055   6.026   4.073   8.029 -1.7371 -1.0926 -0.2741
 2620TIP3    H232056   5.955   4.067   7.896 -0.1516  0.3182 -1.2218
 2621TIP3   OH232057   6.955   6.552   7.384 -0.1103  0.5618 -0.3230
 2621TIP3    H132058   6.935   6.629   7.331  0.0617  0.9245  0.1309
 2621TIP3    H232059   6.880   6.494   7.371  0.4701  0.1245 -1.8912
 2622TIP3   OH232060   2.949   4.055   9.033  0.2091 -0.1785 -0.0577
 2622TIP3    H132061   3.010   4.120   8.997 -0.6789  1.2235  0.9051
 2622TIP3    H232062   2.987   4.032   9.118  0.4400 -0.8227 -0.3313
 2623TIP3   OH232063   7.603   1.335   8.569  0.3768  0.6362 -0.2172
 2623TIP3    H132064   7.607   1.420   8.524 -0.5832  0.9003  0.1697
 2623TIP3    H232065   7.640   1.353   8.655 -0.0525  0.7286 -0.0493
 2624TIP3   OH232066   4.661   1.144   9.276 -0.1351 -0.1489 -0.3249
 2624TIP3    H132067   4.712   1.192   9.342 -0.0066 -0.8751  0.1126
 2624TIP3    H232068   4.573   1.139   9.313 -0.1869 -0.1126 -0.4431
 2625TIP3   OH232069   3.277   3.587   8.624 -0.8604  0.0427 -0.0239
 2625TIP3    H132070   3.358   3.550   8.657  0.4318  1.1742 -1.7253
 2625TIP3    H232071   3.255   3.532   8.549 -0.1335  1.2929 -1.2095
 2626TIP3   OH232072   1.412   6.637   7.647 -0.7188 -0.0156  0.3832
 2626TIP3    H132073   1.381   6.672   7.564  0.2312 -0.0198  0.0207
 2626TIP3    H232074   1.342   6.578   7.676 -0.3888 -1.2310 -1.1813
 2627TIP3   OH232075   6.483   3.855   7.700 -0.1715  0.0013 -0.0428
 2627TIP3    H132076   6.521   3.940   7.679  1.3610 -1.3338 -3.2219
 2627TIP3    H232077   6.553   3.807   7.745  0.7441 -1.1460 -2.5349
 2628TIP3   OH232078   4.949   6.640   9.356 -0.7442 -0.0554  0.0301
 2628TIP3    H132079   4.962   6.733   9.375  0.4480 -0.1859 -0.0580
 2628TIP3    H232080   4.879   6.638   9.291 -0.3024  0.8329 -0.4886
 2629TIP3   OH232081   7.370   0.947   8.930  0.6300  0.3455 -0.1914
 2629TIP3    H132082   7.335   0.910   9.012 -0.5672  1.2329 -0.2764
 2629TIP3    H232083   7.309   0.919   8.863 -0.7461  2.9263 -0.1713
 2630TIP3   OH232084   5.412   0.682   9.434 -0.0128  0.2108 -0.1950
 2630TIP3    H132085   5.343   0.749   9.433  0.0990  0.4452  1.9844
 2630TIP3    H232086   5.367   0.601   9.456 -0.0018 -0.2715 -1.8484
 2631TIP3   OH232087   5.602   0.405   7.758 -0.0629  0.1636  0.6435
 2631TIP3    H132088   5.629   0.458   7.683  0.1201  0.9567  1.2629
 2631TIP3    H232089   5.605   0.464   7.832 -0.8582 -0.4540  1.1863
 2632TIP3   OH232090   5.860   6.220   8.972 -0.0293 -0.5534  0.6143
 2632TIP3    H132091   5.874   6.191   9.062 -1.9114  1.4068  1.6264
 2632TIP3    H232092   5.871   6.141   8.920 -2.2281 -2.5393  2.9058
 2633TIP3   OH232093   5.337   5.832   7.330 -0.2458  0.3373  0.1120
 2633TIP3    H132094   5.425   5.801   7.309 -0.1209  1.0888 -0.4993
 2633TIP3    H232095   5.351   5.899   7.397 -0.3253  0.6670 -0.1990
 2634TIP3   OH232096   0.295   3.963   8.794  0.4531  0.4549  0.1381
 2634TIP3    H132097   0.259   4.033   8.848 -1.3701  0.1328 -0.6068
 2634TIP3    H232098   0.365   4.005   8.745 -0.5945  1.7730 -0.2734
 2635TIP3   OH232099   3.938   4.842   9.452 -0.0534  0.1896 -0.8353
 2635TIP3    H132100   3.849   4.849   9.417  0.0468  1.0545 -0.9372
 2635TIP3    H232101   3.966   4.933   9.464 -0.6688  0.0542  2.9559
 2636TIP3   OH232102   2.766   6.806   7.775 -0.2749  1.0383 -0.5243
 2636TIP3    H132103   2.816   6.744   7.829 -1.4918  0.0902 -0.4341
 2636TIP3    H232104   2.750   6.880   7.833 -0.2566  0.6910 -0.0654
 2637TIP3   OH232105   5.052   2.271   8.824  0.4395 -0.3379 -0.5256
 2637TIP3    H132106   5.053   2.362   8.793 -0.8798 -0.6344 -1.5198
 2637TIP3    H232107   5.144   2.253   8.847  0.7948  1.1003 -0.6811
 2638TIP3   OH232108   6.165   2.856   6.861  0.3051  0.2005  0.7423
 2638TIP3    H132109   6.185   2.780   6.805 -1.1076 -0.0417  0.5333
 2638TIP3    H232110   6.089   2.828   6.912  0.9471  0.8014  2.0582
 2639TIP3   OH232111   3.030   5.021   7.724 -0.2918 -0.3845 -0.1729
 2639TIP3    H132112   2.942   4.991   7.746 -0.5415  0.0743 -0.5441
 2639TIP3    H232113   3.027   5.040   7.630 -0.0933  0.6487  0.0224
 2640TIP3   OH232114   6.773   4.078   7.082  0.1964  0.3607  0.4335
 2640TIP3    H132115   6.765   4.161   7.035 -0.5616  0.3328  0.4974
 2640TIP3    H232116   6.770   4.012   7.013 -0.3033  0.3466  0.4619
 2641TIP3   OH232117   1.992   5.265   7.454 -0.8558 -0.4837 -0.1607
 2641TIP3    H132118   1.912   5.308   7.485  0.3383  1.6933  0.1283
 2641TIP3    H232119   1.985   5.266   7.358 -0.7949  0.5120 -0.1615
 2642TIP3   OH232120   3.150   4.117   9.519 -0.0065 -0.0511  0.0874
 2642TIP3    H132121   3.204   4.138   9.443  1.6748  0.6957  1.4242
 2642TIP3    H232122   3.082   4.184   9.520  0.2196  0.1925 -0.5131
 2643TIP3   OH232123   3.707   6.341   7.155 -0.0865 -0.2091  0.0491
 2643TIP3    H132124   3.643   6.279   7.190 -0.8818  0.6282  0.0954
 2643TIP3    H232125   3.721   6.312   7.064 -0.0799 -0.7381  0.2139
 2644TIP3   OH232126   6.536   0.410   8.514 -0.0278  0.4305 -0.2677
 2644TIP3    H132127   6.611   0.352   8.507  1.3392  2.2409 -1.5332
 2644TIP3    H232128   6.547   0.455   8.598  0.5592  0.9772 -0.6257
 2645TIP3   OH232129   6.792   3.894   8.959 -0.8208  0.8669 -0.3034
 2645TIP3    H132130   6.852   3.877   9.032 -0.0578 -1.4003 -1.3669
 2645TIP3    H232131   6.791   3.989   8.950  1.5409  1.0423  0.6355
 2646TIP3   OH232132   5.405   2.616   8.954 -0.1739 -0.2572 -0.3023
 2646TIP3    H132133   5.357   2.688   8.914  0.1943 -0.3182 -0.8689
 2646TIP3    H232134   5.386   2.623   9.047 -0.0553  0.6445 -0.3352
 2647TIP3   OH232135   5.205   6.574   7.341 -0.3106  0.6530  0.6129
 2647TIP3    H132136   5.268   6.639   7.309 -1.6824  1.4140 -0.7014
 2647TIP3    H232137   5.121   6.603   7.304 -1.1782 -1.1404  1.0919
 2648TIP3   OH232138   4.703   1.488   8.154 -0.2746  0.0693  0.0387
 2648TIP3    H132139   4.641   1.559   8.142  0.0251  0.6993  1.9321
 2648TIP3    H232140   4.650   1.413   8.181 -0.2625  0.7102  2.0431
 2649TIP3   OH232141   0.801   0.900   9.069  0.0277 -0.3861  0.1309
 2649TIP3    H132142   0.735   0.963   9.097  1.2796  0.7395  0.6787
 2649TIP3    H232143   0.819   0.924   8.978 -0.1806 -0.5628  0.0440
 2650TIP3   OH232144   6.820   0.775   9.589 -0.8249  0.0162  0.2736
 2650TIP3    H132145   6.821   0.846   9.524  0.4693  0.2688  0.5411
 2650TIP3    H232146   6.727   0.761   9.607 -1.1287  1.4011 -0.0533
 2651TIP3   OH232147   7.206   7.066   8.166 -0.1154  0.4361 -0.0039
 2651TIP3    H132148   7.172   6.978   8.156  0.9002  0.1718 -1.3968
 2651TIP3    H232149   7.174   7.095   8.252 -0.1851 -1.3920  0.6171
 2652TIP3   OH232150   0.050   6.021   8.140  0.3739 -0.0854 -0.5315
 2652TIP3    H132151   0.110   5.961   8.186 -1.7294 -2.1419 -0.2772
 2652TIP3    H232152   0.039   6.094   8.200  0.3225 -1.1081  0.7604
 2653TIP3   OH232153   7.118   0.020   8.750  0.2622  0.4082 -0.1582
 2653TIP3    H132154   7.088   0.008   8.660  0.3819  2.4831 -0.5312
 2653TIP3    H232155   7.110   0.114   8.765  2.0220  0.3684  1.3677
 2654TIP3   OH232156   3.396   5.352   8.507 -0.3481 -0.2658  0.5487
 2654TIP3    H132157   3.362   5.294   8.575 -0.5752 -0.1035  0.5742
 2654TIP3    H232158   3.485   5.320   8.491 -0.0450  0.1264  1.4032
 2655TIP3   OH232159   0.693   1.801   7.788 -0.2902 -0.5164 -0.2227
 2655TIP3    H132160   0.777   1.760   7.808 -1.1112 -0.8611  3.0682
 2655TIP3    H232161   0.630   1.730   7.789 -0.9177  0.0257 -0.3467
 2656TIP3   OH232162   0.873   3.839   7.394  0.5289 -0.3937  0.4724
 2656TIP3    H132163   0.870   3.787   7.313  0.7029  1.4919 -0.8043
 2656TIP3    H232164   0.943   3.798   7.445  0.4708 -1.5849 -0.3521
 2657TIP3   OH232165   2.691   1.809   8.166 -0.3890 -0.3005  0.0221
 2657TIP3    H132166   2.763   1.859   8.205  1.4734 -2.3496 -0.5621
 2657TIP3    H232167   2.665   1.746   8.233 -0.0338 -1.0801 -0.5465
 2658TIP3   OH232168   4.892   3.546   9.201 -0.5635  0.2466 -0.4085
 2658TIP3    H132169   4.978   3.588   9.209  0.1482 -0.8519 -1.7852
 2658TIP3    H232170   4.845   3.600   9.138 -0.8562  0.7804  0.2556
 2659TIP3   OH232171   0.484   5.223   8.912 -0.5178  0.1684  0.6970
 2659TIP3    H132172   0.506   5.304   8.867 -0.2336  0.4219  1.2818
 2659TIP3    H232173   0.412   5.185   8.860  0.9039 -0.4155 -0.9417
 2660TIP3   OH232174   4.487   1.328   9.455 -0.5182 -0.0301 -0.2729
 2660TIP3    H132175   4.460   1.259   9.395  0.4332  0.1861 -0.9701
 2660TIP3    H232176   4.425   1.323   9.527 -0.8866 -1.1490 -0.6543
 2661TIP3   OH232177   3.398   6.912   9.043 -0.0303 -0.2953  0.5575
 2661TIP3    H132178   3.404   6.889   8.950 -1.7632 -2.3419  0.8856
 2661TIP3    H232179   3.432   7.001   9.047  2.4147 -0.9940 -1.6422
 2662TIP3   OH232180   1.556   2.016   7.048  0.5074 -0.1775 -0.1729
 2662TIP3    H132181   1.522   1.936   7.088  0.5609  0.0982  0.4244
 2662TIP3    H232182   1.624   1.985   6.988 -0.4098 -0.6914 -0.9841
 2663TIP3   OH232183   4.322   1.388   7.915 -0.1523 -0.0909 -0.3014
 2663TIP3    H132184   4.372   1.378   7.834 -2.1574 -0.4672 -1.5561
 2663TIP3    H232185   4.354   1.318   7.972  1.0474 -0.0322 -0.8787
 2664TIP3   OH232186   7.418   3.589   6.985  0.1391  0.0582 -0.4055
 2664TIP3    H132187   7.418   3.684   6.996  0.6799 -0.0091  0.2572
 2664TIP3    H232188   7.510   3.565   6.983  0.0413 -0.3110 -2.0220
 2665TIP3   OH232189   3.875   0.478   8.903  0.3115 -0.0276 -0.6927
 2665TIP3    H132190   3.815   0.525   8.961 -0.1436 -1.2500 -0.1331
 2665TIP3    H232191   3.823   0.458   8.826 -0.1318 -1.3263 -0.0945
 2666TIP3   OH232192   2.381   2.398   7.471  0.5489  0.4593 -0.3467
 2666TIP3    H132193   2.416   2.402   7.560  0.0606 -0.5659 -0.0947
 2666TIP3    H232194   2.455   2.370   7.417  1.0740  1.8868 -0.4232
 2667TIP3   OH232195   5.876   2.791   7.672  0.4655  0.3860 -0.0610
 2667TIP3    H132196   5.833   2.736   7.737 -0.5470 -1.4486 -2.1521
 2667TIP3    H232197   5.830   2.875   7.678 -2.2637 -0.9262 -0.9475
 2668TIP3   OH232198   2.456   7.108   8.657  0.1800 -0.4709 -0.4674
 2668TIP3    H132199   2.414   7.031   8.695  2.0257 -0.8053  0.9789
 2668TIP3    H232200   2.538   7.077   8.621 -0.4649  0.2815 -2.7896
 2669TIP3   OH232201   1.314   6.259   9.419  0.5388 -0.0632  0.7605
 2669TIP3    H132202   1.386   6.238   9.359  0.3345  0.3087  0.3774
 2669TIP3    H232203   1.329   6.350   9.444 -0.2760  0.2971 -0.0127
 2670TIP3   OH232204   4.866   2.610   8.536 -0.0146 -0.0851  0.3198
 2670TIP3    H132205   4.897   2.661   8.461 -0.5830 -0.4000 -0.1413
 2670TIP3    H232206   4.811   2.671   8.585 -0.0966 -0.0365  0.1701
 2671TIP3   OH232207   5.457   3.848   8.992  0.1229 -0.0655  0.2175
 2671TIP3    H132208   5.507   3.916   9.038  0.7670 -0.0487 -0.4903
 2671TIP3    H232209   5.441   3.885   8.905 -1.2095 -0.0360  0.4457
 2672TIP3   OH232210   1.805   1.090   8.289  0.0500  0.7403 -0.4679
 2672TIP3    H132211   1.755   1.091   8.207  1.6180  1.6063 -1.4805
 2672TIP3    H232212   1.812   0.997   8.312 -1.2365  0.5517 -0.7796
 2673TIP3   OH232213   2.185   3.321   6.520 -0.8017 -0.9530 -0.4274
 2673TIP3    H132214   2.187   3.376   6.442  2.3338 -0.6566 -0.2648
 2673TIP3    H232215   2.110   3.263   6.506 -1.3905  0.2473 -2.8173
 2674TIP3   OH232216   3.763   1.792   9.658  0.1389 -0.1328 -0.1382
 2674TIP3    H132217   3.755   1.710   9.609  1.6719 -0.5268  0.2105
 2674TIP3    H232218   3.716   1.775   9.740  2.7020 -1.7492  1.1475
 2675TIP3   OH232219   7.167   6.106   7.573  0.2518  0.6006 -0.5615
 2675TIP3    H132220   7.122   6.103   7.489  1.6614  0.1185 -1.3153
 2675TIP3    H232221   7.256   6.076   7.555  0.9243  1.5978  0.8763
 2676TIP3   OH232222   3.487   7.500   9.238  0.1890 -0.2855  0.2621
 2676TIP3    H132223   3.395   7.475   9.235 -0.2977  0.9806  2.2660
 2676TIP3    H232224   3.493   7.577   9.182  0.2019 -0.8113 -0.4668
 2677TIP3   OH232225   2.818   4.353   7.442  0.8718 -0.3334  1.1311
 2677TIP3    H132226   2.805   4.281   7.503  1.6744 -1.5385 -0.0541
 2677TIP3    H232227   2.900   4.394   7.471  2.1395 -1.9032  0.0176
 2678TIP3   OH232228   7.186   1.906   7.563 -0.8172  0.1741  0.1482
 2678TIP3    H132229   7.241   1.866   7.630 -1.3756  0.6099  0.8883
 2678TIP3    H232230   7.160   1.833   7.507  0.8345  0.0240 -0.4744
 2679TIP3   OH232231   7.488   4.031   7.818 -0.4615  0.0047 -0.2846
 2679TIP3    H132232   7.393   4.031   7.832 -0.3927 -0.2941  0.2021
 2679TIP3    H232233   7.508   4.120   7.789 -0.7695  0.3310  0.4702
 2680TIP3   OH232234   6.848   2.893   9.159  0.2049  0.4112 -0.1441
 2680TIP3    H132235   6.780   2.828   9.139  0.5455 -0.0526  0.1735
 2680TIP3    H232236   6.802   2.976   9.164 -0.1957  0.2396 -0.8564
 2681TIP3   OH232237   7.316   2.296   7.404 -0.1823  0.1311 -0.7656
 2681TIP3    H132238   7.387   2.232   7.414  0.2722  0.8020  0.4710
 2681TIP3    H232239   7.350   2.376   7.443 -1.6535  0.4501 -0.0571
 2682TIP3   OH232240   7.506   7.623   9.081  0.2185  0.3894 -0.0925
 2682TIP3    H132241   7.566   7.694   9.104 -0.1364  0.7711 -0.3241
 2682TIP3    H232242   7.425   7.645   9.127  0.2583 -0.1288  0.2307
 2683TIP3   OH232243   1.981   2.724   8.885  0.3886 -0.1610 -0.3418
 2683TIP3    H132244   1.946   2.766   8.807 -1.2222 -1.2068 -0.2254
 2683TIP3    H232245   1.911   2.731   8.950  0.1364 -2.7133 -0.2343
 2684TIP3   OH232246   2.731   4.443   8.989  0.6287 -0.1762  0.5247
 2684TIP3    H132247   2.730   4.514   9.053  0.0868  0.8631 -0.6164
 2684TIP3    H232248   2.655   4.389   9.011 -0.8427  1.3805 -0.5293
 2685TIP3   OH232249   5.679   2.276   6.738  0.3958  0.2271 -0.1656
 2685TIP3    H132250   5.596   2.291   6.785 -0.8189 -0.6330 -1.9194
 2685TIP3    H232251   5.730   2.220   6.797 -0.9128 -0.5169  0.3040
 2686TIP3   OH232252   2.066   3.378   9.500  0.1735  0.1878 -0.3177
 2686TIP3    H132253   2.076   3.316   9.572 -0.4105  0.0009 -0.3873
 2686TIP3    H232254   2.145   3.368   9.448  1.3342  1.4448  1.1273
 2687TIP3   OH232255   1.687   7.165   8.160  0.0014  0.5436  0.3513
 2687TIP3    H132256   1.729   7.166   8.246 -2.0802 -0.7875  1.4595
 2687TIP3    H232257   1.736   7.099   8.110  0.1904  0.1359  1.0647
 2688TIP3   OH232258   2.708   5.129   9.031  0.0530  0.4934 -1.0584
 2688TIP3    H132259   2.732   5.205   8.978 -0.0738  0.5384 -1.0510
 2688TIP3    H232260   2.701   5.057   8.969  1.5347  0.1818 -0.8888
 2689TIP3   OH232261   3.424   7.624   9.542  0.5162 -0.1062  0.4594
 2689TIP3    H132262   3.481   7.559   9.584  0.8097 -0.3428 -0.2857
 2689TIP3    H232263   3.358   7.571   9.496  0.2386  0.1496  0.5601
 2690TIP3   OH232264   2.194   4.124   7.850  0.1831  0.5800 -0.3774
 2690TIP3    H132265   2.220   4.038   7.884 -0.4348  0.9096  1.0192
 2690TIP3    H232266   2.110   4.109   7.808 -0.0273  0.5432  0.0583
 2691TIP3   OH232267   3.235   4.162   7.230  0.0754  0.0800  0.4281
 2691TIP3    H132268   3.158   4.218   7.231 -0.2723 -0.3778  1.7183
 2691TIP3    H232269   3.307   4.219   7.254  0.3627  0.7429 -1.7683
 2692TIP3   OH232270   7.167   3.147   7.092 -0.3298  0.3087 -0.1981
 2692TIP3    H132271   7.146   3.112   7.005  0.0666  1.0937 -0.6168
 2692TIP3    H232272   7.084   3.184   7.123 -0.8825 -1.3442  0.4501
 2693TIP3   OH232273   5.067   2.337   8.402  0.0006 -0.5209  0.3494
 2693TIP3    H132274   5.119   2.310   8.478 -1.6596 -0.7133  1.4632
 2693TIP3    H232275   4.979   2.353   8.437 -0.6853 -0.0923 -1.4486
 2694TIP3   OH232276   7.583   5.886   7.962  0.2308  0.4097 -0.1240
 2694TIP3    H132277   7.557   5.970   7.926  1.0156  0.7640  0.1068
 2694TIP3    H232278   7.651   5.907   8.026  0.7057 -0.4250 -0.3383
 2695TIP3   OH232279   2.535   2.564   6.724  0.2076 -0.3812 -0.1877
 2695TIP3    H132280   2.513   2.657   6.719 -1.7700 -0.8379 -0.5251
 2695TIP3    H232281   2.468   2.520   6.671  0.1434 -2.1511  1.2735
 2696TIP3   OH232282   2.214   7.015   8.833 -0.0571  0.3769 -0.6019
 2696TIP3    H132283   2.250   6.960   8.902 -0.6390  0.7571  0.0146
 2696TIP3    H232284   2.193   6.953   8.763 -1.0125 -0.2505  0.2072
 2697TIP3   OH232285   4.339   0.451   7.685 -0.1487 -0.5167 -0.0320
 2697TIP3    H132286   4.247   0.435   7.706 -0.3050 -0.0938 -0.3840
 2697TIP3    H232287   4.387   0.401   7.750 -0.6187  0.8813  1.4542
 2698TIP3   OH232288   7.599   6.433   6.525 -0.3958  0.0586 -0.0055
 2698TIP3    H132289   7.530   6.369   6.508 -0.0036 -0.4584  0.2985
 2698TIP3    H232290   7.555   6.506   6.569 -0.7165 -0.3537  0.3629
 2699TIP3   OH232291   3.440   1.127   8.710  0.4579  0.4673  0.1613
 2699TIP3    H132292   3.425   1.186   8.636 -0.6638 -0.5985 -0.4909
 2699TIP3    H232293   3.361   1.074   8.716  1.0754 -0.3855  1.2776
 2700TIP3   OH232294   3.025   2.283   7.970  0.3024  0.4412  0.0759
 2700TIP3    H132295   3.089   2.238   7.915  0.0627 -0.3787  0.4639
 2700TIP3    H232296   3.075   2.349   8.016  1.0420 -0.7585  1.0250
 2701TIP3   OH232297   4.083   7.083   7.435 -0.5026  0.4130  0.3694
 2701TIP3    H132298   4.145   7.118   7.370 -0.8374 -0.1134 -0.2451
 2701TIP3    H232299   4.069   7.156   7.495 -0.5036  1.0590 -0.3868
 2702TIP3   OH232300   2.187   0.585   9.140 -0.2142  0.7873  0.8366
 2702TIP3    H132301   2.226   0.660   9.185 -0.7881  2.9263 -1.9815
 2702TIP3    H232302   2.095   0.606   9.132 -0.1007  0.6534 -1.4977
 2703TIP3   OH232303   1.797   7.125   7.832 -0.1135  0.2630  0.2573
 2703TIP3    H132304   1.794   7.038   7.873  1.7648  0.0136 -0.0429
 2703TIP3    H232305   1.890   7.147   7.830 -0.4830  1.8778 -0.5488
 2704TIP3   OH232306   2.953   4.522   8.329  0.2190  0.2767 -0.2849
 2704TIP3    H132307   2.929   4.469   8.404 -0.7660 -0.5527 -1.1611
 2704TIP3    H232308   3.040   4.557   8.351  0.7695 -1.4390  0.4559
 2705TIP3   OH232309   0.122   5.244   8.449  0.0994  0.6112 -0.0267
 2705TIP3    H132310   0.063   5.319   8.448 -0.5630  0.0945 -0.4599
 2705TIP3    H232311   0.173   5.254   8.530 -0.7661  0.9181  0.4935
 2706TIP3   OH232312   7.091   0.737   7.874 -0.2710  0.4536 -0.3886
 2706TIP3    H132313   7.011   0.776   7.838 -1.1530  0.8684  1.8328
 2706TIP3    H232314   7.073   0.729   7.968  1.2153 -2.1052 -0.2279
 2707TIP3   OH232315   3.478   5.024   7.481 -0.4851  0.0343 -0.9087
 2707TIP3    H132316   3.430   5.026   7.398 -0.2891 -0.0685 -1.0261
 2707TIP3    H232317   3.565   4.993   7.457 -0.7528 -1.0686 -0.5027
 2708TIP3   OH232318   2.650   3.172   9.376  0.3545 -0.4528  0.1580
 2708TIP3    H132319   2.720   3.234   9.401  0.9143 -1.3803  0.9717
 2708TIP3    H232320   2.693   3.087   9.376 -0.2379 -0.7863 -1.6560
 2709TIP3   OH232321   3.216   1.462   8.132  0.8827  0.3744  0.0011
 2709TIP3    H132322   3.308   1.441   8.113  0.8635 -0.4990  0.8046
 2709TIP3    H232323   3.217   1.496   8.221  0.5666  1.4586 -0.4019
 2710TIP3   OH232324   3.080   7.629   7.809  0.5749  0.0715 -0.0527
 2710TIP3    H132325   2.996   7.672   7.827  0.6548 -0.2800  1.2808
 2710TIP3    H232326   3.086   7.628   7.714 -1.2427 -0.4781 -0.2085
 2711TIP3   OH232327   2.331   0.101   9.380  0.2560  0.0527  0.0062
 2711TIP3    H132328   2.398   0.158   9.342 -1.0007  0.2696 -2.0595
 2711TIP3    H232329   2.375   0.018   9.394  1.7340  1.0551  1.6669
 2712TIP3   OH232330   6.372   7.508   8.387  0.1647 -0.7446  0.0919
 2712TIP3    H132331   6.348   7.528   8.477 -0.1123  0.7352 -0.2845
 2712TIP3    H232332   6.290   7.482   8.345  0.4046 -2.0862  0.4028
 2713TIP3   OH232333   2.731   0.754   8.287 -0.1501  0.4432  0.2374
 2713TIP3    H132334   2.718   0.787   8.199 -1.9345  0.6187  0.5461
 2713TIP3    H232335   2.727   0.832   8.343  1.0428  0.3433  0.4904
 2714TIP3   OH232336   4.971   4.735   8.242  0.1897  0.4490  0.4825
 2714TIP3    H132337   4.916   4.708   8.314 -1.3217 -1.3265 -1.2201
 2714TIP3    H232338   4.914   4.733   8.165  2.3645 -0.6175 -1.2399
 2715TIP3   OH232339   2.348   4.777   7.591  0.4315  0.4975  0.5556
 2715TIP3    H132340   2.417   4.710   7.595  0.2304  0.2736  0.3033
 2715TIP3    H232341   2.344   4.802   7.499 -0.7692 -0.4947  0.3158
 2716TIP3   OH232342   1.777   4.465   6.886 -0.1702  0.4491  0.1267
 2716TIP3    H132343   1.721   4.542   6.882 -2.4360 -1.0126  1.4475
 2716TIP3    H232344   1.757   4.417   6.805  0.9091  0.9876 -0.4816
 2717TIP3   OH232345   2.253   3.596   7.087  0.1802 -0.0940 -0.0155
 2717TIP3    H132346   2.173   3.555   7.057 -0.6048  1.2443  0.1625
 2717TIP3    H232347   2.227   3.686   7.110  1.1926 -0.3374  2.3944
 2718TIP3   OH232348   5.790   4.663   9.262 -0.3604 -0.0481 -0.3105
 2718TIP3    H132349   5.833   4.747   9.247 -1.2931  0.1282 -2.3675
 2718TIP3    H232350   5.798   4.617   9.178 -1.5738 -1.1922  0.1754
 2719TIP3   OH232351   7.124   4.264   8.169  0.2307 -0.1754  0.3169
 2719TIP3    H132352   7.174   4.205   8.111 -1.1043 -0.5653 -0.4899
 2719TIP3    H232353   7.191   4.315   8.214  1.4158 -1.6534  0.3386
 2720TIP3   OH232354   2.453   5.544   8.532  0.1477  0.5504  0.3356
 2720TIP3    H132355   2.389   5.550   8.603  0.7915 -0.5614  1.0308
 2720TIP3    H232356   2.467   5.450   8.520  0.9774  0.7593 -0.4302
 2721TIP3   OH232357   0.600   5.740   7.747 -0.2430 -0.1257 -0.0210
 2721TIP3    H132358   0.632   5.680   7.815 -0.3853  0.8098  0.8890
 2721TIP3    H232359   0.624   5.697   7.665 -1.0788 -1.8398  0.5803
 2722TIP3   OH232360   0.103   0.674   9.345  0.4207 -0.2717  1.1207
 2722TIP3    H132361   0.133   0.753   9.301  0.2437 -0.8584 -0.0949
 2722TIP3    H232362   0.033   0.704   9.403  0.7836  0.5480  1.1417
 2723TIP3   OH232363   5.612   7.503   8.823 -0.4170 -0.0247 -0.1631
 2723TIP3    H132364   5.662   7.493   8.742  0.8088 -0.1252  0.5762
 2723TIP3    H232365   5.633   7.426   8.875  0.1152  0.7949  0.9023
 2724TIP3   OH232366   3.054   1.838   9.633  0.4796  0.9283  0.5600
 2724TIP3    H132367   3.097   1.824   9.549  1.4898  0.3732  1.1384
 2724TIP3    H232368   3.105   1.909   9.674  0.7133  0.4358  1.1507
 2725TIP3   OH232369   0.832   6.953   7.196  0.5058 -0.0086 -0.5129
 2725TIP3    H132370   0.907   6.997   7.236 -0.5847 -0.1961  1.9415
 2725TIP3    H232371   0.798   6.897   7.266 -0.5853 -1.6614 -2.2679
 2726TIP3   OH232372   6.303   5.121   7.966  0.1910  0.7048 -0.1688
 2726TIP3    H132373   6.209   5.129   7.978 -0.1084 -0.1669 -1.6592
 2726TIP3    H232374   6.313   5.064   7.889  1.9314  0.2853  0.3093
 2727TIP3   OH232375   1.223   3.601   9.079  0.0623 -0.1223  0.0857
 2727TIP3    H132376   1.221   3.677   9.021 -0.4912 -0.9586 -1.0244
 2727TIP3    H232377   1.131   3.574   9.086  0.1899 -0.3873  0.8920
 2728TIP3   OH232378   3.090   5.607   6.899  0.2293 -0.0106 -0.3470
 2728TIP3    H132379   3.167   5.609   6.842  0.8194  1.4402  0.4413
 2728TIP3    H232380   3.073   5.699   6.919 -1.4586 -0.3335 -0.1460
 2729TIP3   OH232381   0.817   4.818   9.315 -0.0456 -0.4583 -0.1932
 2729TIP3    H132382   0.771   4.884   9.264 -1.1678 -1.2097 -0.1812
 2729TIP3    H232383   0.869   4.868   9.379  1.0952  0.4787 -1.7930
 2730TIP3   OH232384   3.931   0.324   6.652 -0.3539  0.4921 -1.0222
 2730TIP3    H132385   4.005   0.341   6.710 -0.9082 -0.7396  0.0714
 2730TIP3    H232386   3.972   0.297   6.569  0.4210  1.5799 -1.0234
 2731TIP3   OH232387   4.532   2.933   8.432 -0.4874  0.4004  0.2172
 2731TIP3    H132388   4.616   2.971   8.408 -1.4576  2.3388 -0.2765
 2731TIP3    H232389   4.517   2.960   8.523 -0.3615 -0.3753  0.4792
 2732TIP3   OH232390   6.744   0.011   8.080  0.2543 -0.7281  0.5882
 2732TIP3    H132391   6.814  -0.048   8.108  0.8507  0.3340  1.4211
 2732TIP3    H232392   6.780   0.056   8.003  0.2151 -0.6956  0.5882
 2733TIP3   OH232393   3.972   1.470   7.009 -0.4707 -0.2428 -0.9026
 2733TIP3    H132394   3.973   1.566   7.006 -0.5787 -0.2370 -0.7428
 2733TIP3    H232395   4.059   1.444   6.979  0.7720 -0.0182  2.1545
 2734TIP3   OH232396   0.652   0.212   7.782 -0.1773  0.1305  0.0565
 2734TIP3    H132397   0.735   0.228   7.737  0.6679  0.4137  1.6187
 2734TIP3    H232398   0.642   0.288   7.841 -0.8891 -0.5295  0.8089
 2735TIP3   OH232399   1.349   4.465   7.867  0.4007 -0.6754  0.5458
 2735TIP3    H132400   1.323   4.451   7.958  1.4612 -0.8841  0.8391
 2735TIP3    H232401   1.442   4.489   7.873  0.2259  0.2730 -0.4165
 2736TIP3   OH232402   6.189   0.770   9.595  0.0501  0.5823 -0.3669
 2736TIP3    H132403   6.228   0.811   9.517  0.5709  0.3875 -0.2099
 2736TIP3    H232404   6.130   0.703   9.560  1.7567 -0.8665 -0.5871
 2737TIP3   OH232405   1.870   3.684   7.266 -0.1171 -0.2795  0.2232
 2737TIP3    H132406   1.797   3.671   7.326  0.8539  2.5147  2.2429
 2737TIP3    H232407   1.860   3.775   7.236  2.5158  0.2336  0.6580
 2738TIP3   OH232408   2.699   6.970   8.055  0.3941  0.7453 -0.8559
 2738TIP3    H132409   2.684   7.061   8.080 -0.1967  0.4617 -0.1596
 2738TIP3    H232410   2.794   6.962   8.051  0.5182  0.8678  1.1200
 2739TIP3   OH232411   6.326   0.578   8.051 -0.1239 -0.0384  0.3113
 2739TIP3    H132412   6.414   0.553   8.022 -0.4720 -1.7717  0.6215
 2739TIP3    H232413   6.325   0.553   8.144 -0.5201  1.2148  0.6612
 2740TIP3   OH232414   6.594   1.484   7.699  0.0296  0.6871 -0.6223
 2740TIP3    H132415   6.507   1.447   7.682  0.8754 -1.7109 -0.1339
 2740TIP3    H232416   6.589   1.516   7.789 -0.3225  0.4726 -0.5618
 2741TIP3   OH232417   0.489   3.667   9.290 -0.0720  0.3916 -0.0056
 2741TIP3    H132418   0.583   3.679   9.273  0.2298  0.6474  1.6854
 2741TIP3    H232419   0.480   3.573   9.308 -0.2111  0.3125 -0.4609
 2742TIP3   OH232420   2.856   3.622   7.704 -0.0535 -0.1414  0.3570
 2742TIP3    H132421   2.771   3.615   7.747 -0.6201 -0.6916 -0.8019
 2742TIP3    H232422   2.850   3.700   7.650  0.9797  1.0722  1.9157
 2743TIP3   OH232423   7.583   5.306   9.118  0.0225  0.1818 -0.3534
 2743TIP3    H132424   7.676   5.324   9.130 -0.1501 -0.5034  3.0585
 2743TIP3    H232425   7.577   5.212   9.108 -0.3554 -0.1089  1.9299
 2744TIP3   OH232426   3.693   6.997   8.687  0.3640  0.4673  0.1670
 2744TIP3    H132427   3.775   7.028   8.649  0.5528  0.2631  0.4006
 2744TIP3    H232428   3.720   6.930   8.750 -0.0822 -0.9109 -1.0495
 2745TIP3   OH232429   4.526   5.616   9.194 -0.2527  0.2135  0.0234
 2745TIP3    H132430   4.491   5.535   9.232 -0.7660  0.3269 -0.1905
 2745TIP3    H232431   4.607   5.590   9.150  0.9401  0.2535  2.0852
 2746TIP3   OH232432   7.262   0.423   9.493  0.0176  0.3933 -0.6358
 2746TIP3    H132433   7.348   0.389   9.519 -0.5021 -0.7935 -0.4287
 2746TIP3    H232434   7.209   0.419   9.573  0.0940  2.2510 -0.4567
 2747TIP3   OH232435   1.587   4.671   7.569  0.0673 -0.3889 -0.2721
 2747TIP3    H132436   1.498   4.683   7.601 -0.5509 -2.4481 -1.0695
 2747TIP3    H232437   1.595   4.734   7.497 -0.9153 -0.4940 -0.4943
 2748TIP3   OH232438   0.185   0.114   7.957 -0.1296 -0.4702 -0.0587
 2748TIP3    H132439   0.236   0.069   8.024  1.0681 -0.0712 -0.6716
 2748TIP3    H232440   0.143   0.187   8.003  4.0115  2.4261 -0.3563
 2749TIP3   OH232441   0.965   2.944   7.765 -0.1883  0.0234  0.6103
 2749TIP3    H132442   0.992   2.969   7.854 -0.3074 -1.7515  1.1937
 2749TIP3    H232443   1.047   2.924   7.720 -0.1501  0.5679  0.4391
 2750TIP3   OH232444   5.052   5.215   7.845 -0.0530  0.4303 -0.2439
 2750TIP3    H132445   5.047   5.264   7.927  0.0816  0.8519 -0.4812
 2750TIP3    H232446   5.128   5.158   7.856 -1.8296 -1.8197  1.1372
 2751TIP3   OH232447   6.814   3.102   8.319  0.0734  0.0439 -0.7422
 2751TIP3    H132448   6.726   3.065   8.326 -0.0637  0.6593  1.6975
 2751TIP3    H232449   6.805   3.176   8.260 -0.9811 -0.0711 -0.7371
 2752TIP3   OH232450   2.254   4.106   8.232  0.1755 -0.3549 -0.1449
 2752TIP3    H132451   2.287   4.195   8.240  0.5136 -0.4341 -0.6070
 2752TIP3    H232452   2.259   4.070   8.320  0.9760 -0.2380 -0.1355
 2753TIP3   OH232453   1.216   4.532   8.538  0.1914 -0.0674  0.0812
 2753TIP3    H132454   1.221   4.505   8.629  1.0072  0.7219  0.2903
 2753TIP3    H232455   1.127   4.565   8.527 -0.1304 -0.8246  0.3929
 2754TIP3   OH232456   1.738   2.400   8.060  0.1291 -0.4485  0.0498
 2754TIP3    H132457   1.759   2.360   7.976  3.0988  0.4316  0.2557
 2754TIP3    H232458   1.770   2.337   8.125 -0.8205 -0.4739  0.4999
 2755TIP3   OH232459   7.224   5.087   7.621  0.3567  0.1402  0.2908
 2755TIP3    H132460   7.238   4.993   7.633 -0.3205  0.3079  3.2785
 2755TIP3    H232461   7.144   5.092   7.569  0.7999 -0.9249 -0.5243
 2756TIP3   OH232462   4.417   5.000   8.067  0.3633  0.0293  0.5465
 2756TIP3    H132463   4.352   5.002   7.997  0.7159 -2.2606  0.0821
 2756TIP3    H232464   4.500   4.980   8.023  1.0511  1.0044  1.3537
 2757TIP3   OH232465   0.390   2.579   7.884 -0.1393 -0.1327 -0.2509
 2757TIP3    H132466   0.458   2.642   7.861  1.0846 -1.6388 -1.0201
 2757TIP3    H232467   0.313   2.606   7.835 -0.1438  1.6531  0.6803
 2758TIP3   OH232468   6.668   0.512   9.141 -0.2982  0.6206  0.4584
 2758TIP3    H132469   6.629   0.425   9.134 -1.6264  1.2097  0.2812
 2758TIP3    H232470   6.600   0.572   9.112  1.2886  1.6140 -1.4298
 2759TIP3   OH232471   0.400   2.159   8.388  0.2635 -0.2559  0.1405
 2759TIP3    H132472   0.440   2.081   8.350 -3.2719 -2.3531  0.2833
 2759TIP3    H232473   0.350   2.127   8.463 -1.3121  2.1305  0.2264
 2760TIP3   OH232474   0.847   1.073   8.866  0.7936  0.2222  0.6829
 2760TIP3    H132475   0.792   1.113   8.798 -0.2723 -1.5088  0.4590
 2760TIP3    H232476   0.887   1.147   8.911 -0.5601  1.5039 -0.1190
 2761TIP3   OH232477   5.209   0.253   7.584 -0.2464  0.7909  0.0081
 2761TIP3    H132478   5.115   0.247   7.599  0.1523 -1.5730  2.1899
 2761TIP3    H232479   5.241   0.313   7.651  0.1358 -0.9879  1.4998
 2762TIP3   OH232480   4.451   3.968   7.509  0.4824  0.0715 -0.0581
 2762TIP3    H132481   4.410   3.921   7.437  0.3040 -0.4514  0.3815
 2762TIP3    H232482   4.521   4.018   7.468  1.4534 -1.4899 -0.3924
 2763TIP3   OH232483   3.329   0.407   7.920  0.1657  0.6580 -0.7300
 2763TIP3    H132484   3.353   0.390   8.012 -0.5154  3.0616 -0.0434
 2763TIP3    H232485   3.253   0.465   7.926 -0.2612  0.3750 -2.8405
 2764TIP3   OH232486   5.461   0.995   8.881 -0.4023 -0.2942 -0.1100
 2764TIP3    H132487   5.531   1.010   8.944 -1.1306  0.0866  0.6364
 2764TIP3    H232488   5.387   0.967   8.935 -1.1746  0.4744 -0.7439
 2765TIP3   OH232489   3.336   4.541   7.616  0.2206  0.1363 -0.0502
 2765TIP3    H132490   3.308   4.622   7.658  1.9522  1.0414 -0.5436
 2765TIP3    H232491   3.351   4.565   7.525 -1.5488 -1.3347 -0.7956
 2766TIP3   OH232492   0.346   4.082   6.818  0.0102  0.0291 -0.1470
 2766TIP3    H132493   0.384   4.024   6.752  0.7797  0.0829  0.2384
 2766TIP3    H232494   0.384   4.168   6.799  0.7515 -0.0783  0.7411
 2767TIP3   OH232495   6.142   6.429   8.535 -0.4922  0.0368 -0.2262
 2767TIP3    H132496   6.132   6.356   8.474 -1.4848  0.4409 -0.5729
 2767TIP3    H232497   6.113   6.506   8.485 -0.0462  0.5731  0.3270
 2768TIP3   OH232498   3.130   1.699   8.582  0.0925 -0.3090 -0.2255
 2768TIP3    H132499   3.134   1.724   8.674  2.0127  0.4451 -0.4805
 2768TIP3    H232500   3.038   1.675   8.568 -0.1697 -0.7252  1.9380
 2769TIP3   OH232501   5.003   2.268   8.156  0.5746 -0.3544 -0.2457
 2769TIP3    H132502   5.041   2.272   8.244  0.7812 -1.6499 -0.2600
 2769TIP3    H232503   4.910   2.249   8.170  0.2103  1.2824 -0.2651
 2770TIP3   OH232504   0.175   1.135   9.066 -0.7367 -0.0126 -0.6539
 2770TIP3    H132505   0.224   1.217   9.073 -0.5959 -0.1278 -0.1957
 2770TIP3    H232506   0.146   1.132   8.975  0.5749 -0.2066 -1.0982
 2771TIP3   OH232507   4.604   1.586   7.865 -0.3103  0.0158 -0.5979
 2771TIP3    H132508   4.591   1.615   7.956  0.4878  1.2299 -0.8515
 2771TIP3    H232509   4.579   1.661   7.812  2.1173  0.4203 -1.2795
 2772TIP3   OH232510   6.676   5.420   8.736 -0.2016 -0.4723 -0.0177
 2772TIP3    H132511   6.729   5.477   8.792 -2.5006 -0.1944  2.0395
 2772TIP3    H232512   6.681   5.334   8.777 -0.9783 -0.5468 -0.0694
 2773TIP3   OH232513   2.766   1.344   8.859 -0.4533 -0.4411  0.1784
 2773TIP3    H132514   2.861   1.355   8.847 -0.1282 -1.1512  1.8025
 2773TIP3    H232515   2.756   1.254   8.888 -1.6943 -0.5041 -0.4054
 2774TIP3   OH232516   4.328   3.774   7.656  0.4267 -0.3646  0.0424
 2774TIP3    H132517   4.374   3.847   7.613  0.3059 -0.2951  0.0307
 2774TIP3    H232518   4.235   3.789   7.637  0.3253 -0.0522  0.7409
 2775TIP3   OH232519   6.553   2.906   6.929 -0.6206  0.1654  0.1766
 2775TIP3    H132520   6.463   2.921   6.960 -1.0236 -0.2843 -0.7221
 2775TIP3    H232521   6.561   2.960   6.851 -0.0915  0.2310  0.2737
 2776TIP3   OH232522   4.303   3.878   8.967  0.5021 -0.3910  0.3930
 2776TIP3    H132523   4.228   3.829   8.999 -0.2273  1.6198  1.9290
 2776TIP3    H232524   4.275   3.969   8.968  3.5188  0.7021  2.9941
 2777TIP3   OH232525   2.022   4.123   8.926  0.3658  0.0533  0.3008
 2777TIP3    H132526   2.024   4.168   9.010  1.5310  0.4230  0.0867
 2777TIP3    H232527   1.999   4.191   8.863 -0.9187 -0.3081  0.3567
 2778TIP3   OH232528   4.814   2.108   8.339  0.3289  0.3486  0.1425
 2778TIP3    H132529   4.724   2.081   8.354 -0.1579  2.1704  0.7146
 2778TIP3    H232530   4.824   2.190   8.388  1.8649  0.9293 -1.0408
 2779TIP3   OH232531   4.277   5.043   8.939  0.1208  0.1923 -0.3981
 2779TIP3    H132532   4.362   5.011   8.970 -0.1972 -1.0231 -0.7277
 2779TIP3    H232533   4.214   5.005   9.001 -0.2558  0.3140 -0.7074
 2780TIP3   OH232534   6.650   7.668   7.002 -0.0468 -0.3684  0.0260
 2780TIP3    H132535   6.711   7.727   7.046  0.4190 -0.3073 -0.6685
 2780TIP3    H232536   6.704   7.624   6.936 -1.0197  0.7856 -1.6387
 2781TIP3   OH232537   6.558   6.333   6.874 -0.3977 -0.2174  0.1387
 2781TIP3    H132538   6.601   6.248   6.863  0.6852  0.3527 -0.2649
 2781TIP3    H232539   6.604   6.374   6.947 -1.3430 -0.2208  0.7503
 2782TIP3   OH232540   2.328   7.608   8.571 -0.3869  0.8876 -0.3786
 2782TIP3    H132541   2.409   7.626   8.618 -0.7957  3.5573 -0.5493
 2782TIP3    H232542   2.317   7.513   8.576  2.2247  0.5753  0.4611
 2783TIP3   OH232543   5.839   3.264   8.992 -0.0170  0.3657  0.5631
 2783TIP3    H132544   5.814   3.179   9.028 -0.8226  0.3243 -0.0725
 2783TIP3    H232545   5.917   3.244   8.940 -0.1383  0.0325  0.5036
 2784TIP3   OH232546   7.151   6.677   8.565  0.3324 -0.0402  0.2501
 2784TIP3    H132547   7.082   6.646   8.624  0.4028 -0.8761 -0.0978
 2784TIP3    H232548   7.232   6.660   8.611  0.3763 -0.4584  0.0182
 2785TIP3   OH232549   6.609   1.591   7.947  0.3302  0.7641 -0.5080
 2785TIP3    H132550   6.677   1.657   7.937  1.9449 -0.7878 -0.2935
 2785TIP3    H232551   6.528   1.641   7.959  1.1909  2.6814 -2.0802
 2786TIP3   OH232552   4.546   7.205   9.110  0.8286  0.3533 -0.4148
 2786TIP3    H132553   4.545   7.115   9.076 -0.4460 -0.2194  1.0259
 2786TIP3    H232554   4.495   7.201   9.191  0.5328  2.4303 -0.4329
 2787TIP3   OH232555   1.620   2.865   8.417  0.0588 -0.1851  0.5366
 2787TIP3    H132556   1.556   2.911   8.364  1.5177  0.5568 -0.6651
 2787TIP3    H232557   1.615   2.774   8.388  0.2632  0.0623 -0.2769
 2788TIP3   OH232558   5.852   2.758   8.491 -0.6195 -0.2829 -0.2119
 2788TIP3    H132559   5.851   2.805   8.408  0.7539  1.9768  0.9639
 2788TIP3    H232560   5.925   2.696   8.483  0.0330  0.5040 -0.4119
 2789TIP3   OH232561   5.954   4.092   6.919  0.3422  0.3622  0.7771
 2789TIP3    H132562   5.868   4.076   6.881 -0.3135 -0.1699  2.3834
 2789TIP3    H232563   6.015   4.042   6.864 -0.1729  1.7408 -1.1226
 2790TIP3   OH232564   6.967   4.705   8.921  0.6491 -0.3417 -0.3270
 2790TIP3    H132565   6.934   4.683   8.834 -1.9445  1.3102  0.0986
 2790TIP3    H232566   6.901   4.669   8.981  1.8206 -0.5090  0.8985
 2791TIP3   OH232567   5.462   1.370   7.555  0.2553 -0.0506 -0.5219
 2791TIP3    H132568   5.473   1.458   7.520 -3.5252  0.6244 -0.4517
 2791TIP3    H232569   5.520   1.315   7.503  2.0439  2.3144 -1.1538
 2792TIP3   OH232570   3.859   7.362   7.792 -0.0363  0.0246 -0.2234
 2792TIP3    H132571   3.808   7.437   7.761  1.8351  1.4281 -0.0451
 2792TIP3    H232572   3.918   7.398   7.858 -0.1074 -1.9056  0.9866
 2793TIP3   OH232573   5.281   6.056   8.673  0.1738 -0.1862 -0.1973
 2793TIP3    H132574   5.363   6.102   8.688  0.5309 -1.2126  1.1009
 2793TIP3    H232575   5.303   5.985   8.614 -0.1554  0.5576 -1.2606
 2794TIP3   OH232576   7.623   5.036   8.746  0.2348  0.2953  0.0001
 2794TIP3    H132577   7.665   4.950   8.745  1.0342  0.6805 -0.9995
 2794TIP3    H232578   7.543   5.023   8.797 -0.1552 -1.2817 -0.9508
 2795TIP3   OH232579   3.829   2.814   8.437 -0.4108  0.1860  0.5402
 2795TIP3    H132580   3.796   2.901   8.412  0.7938  0.4064 -0.4016
 2795TIP3    H232581   3.836   2.818   8.532 -0.0420  1.2686  0.4906
 2796TIP3   OH232582   4.593   3.396   7.177  0.0306 -0.8388  0.2669
 2796TIP3    H132583   4.643   3.314   7.177 -0.3173 -1.0684  1.3034
 2796TIP3    H232584   4.511   3.374   7.133 -0.0429 -1.0380  0.5011
 2797TIP3   OH232585   5.046   7.398   9.264  0.2918  0.2318  0.2401
 2797TIP3    H132586   4.968   7.394   9.319 -1.0870  1.1770 -1.5490
 2797TIP3    H232587   5.077   7.307   9.260  0.6783  0.1641  2.7821
 2798TIP3   OH232588   5.549   3.693   6.735  0.5326 -0.0792 -0.5782
 2798TIP3    H132589   5.568   3.631   6.665  0.1123  0.6890 -1.4046
 2798TIP3    H232590   5.541   3.778   6.690 -2.1475  0.0922  0.0116
 2799TIP3   OH232591   0.366   0.214   9.857  0.5084 -0.2013 -0.7176
 2799TIP3    H132592   0.362   0.172   9.943 -2.3254  1.9558  0.3494
 2799TIP3    H232593   0.284   0.189   9.814  1.3061 -0.2112 -2.3096
 2800TIP3   OH232594   1.010   1.350   7.957 -0.5504  0.6344  0.8224
 2800TIP3    H132595   1.079   1.286   7.976 -0.4463  0.0004 -1.4721
 2800TIP3    H232596   1.007   1.404   8.036  3.5997  1.6360  0.5709
 2801TIP3   OH232597   6.957   2.560   9.025  0.6282 -1.1016  0.1845
 2801TIP3    H132598   6.895   2.579   9.095 -0.3259 -0.3050 -0.8431
 2801TIP3    H232599   6.991   2.646   8.999  0.2824 -1.2914 -0.9286
 2802TIP3   OH232600   7.369   5.078   8.851 -0.2018  0.0585 -0.2279
 2802TIP3    H132601   7.368   5.069   8.947  1.8303  1.8813  0.0365
 2802TIP3    H232602   7.279   5.101   8.828 -0.8758 -1.0471  1.1415
 2803TIP3   OH232603   1.392   4.994   7.791 -0.0820  0.5574 -0.4616
 2803TIP3    H132604   1.342   4.936   7.734 -0.7781  1.5180 -0.8554
 2803TIP3    H232605   1.471   4.944   7.813 -0.5431 -0.4297 -0.9863
 2804TIP3   OH232606   2.341   4.986   8.832 -0.4817 -0.3108  0.1226
 2804TIP3    H132607   2.433   4.969   8.854  0.5536  1.6523 -2.2464
 2804TIP3    H232608   2.327   4.941   8.749 -2.8930 -3.6879  2.1036
 2805TIP3   OH232609   4.555   0.579   8.704 -0.1348 -0.3070  0.1240
 2805TIP3    H132610   4.519   0.621   8.626 -1.0303  0.5502  0.9767
 2805TIP3    H232611   4.635   0.629   8.723 -0.0276 -0.3839 -0.1212
 2806TIP3   OH232612   4.939   7.312   8.177 -0.5304  0.6646  0.0687
 2806TIP3    H132613   5.018   7.282   8.132 -0.6377  0.2518  0.1516
 2806TIP3    H232614   4.903   7.234   8.218 -1.7221  0.5729 -1.0894
 2807TIP3   OH232615   5.181   0.784   9.303  0.2847 -0.3924  0.4763
 2807TIP3    H132616   5.095   0.745   9.287  0.1377 -0.1826  0.7448
 2807TIP3    H232617   5.205   0.825   9.220  0.9960 -2.0967 -0.1933
 2808TIP3   OH232618   3.311   4.166   8.589 -0.2748  0.3071  0.6215
 2808TIP3    H132619   3.305   4.192   8.497  2.4213 -1.1911 -0.0816
 2808TIP3    H232620   3.376   4.096   8.590 -1.0211 -0.4863  3.5519
 2809TIP3   OH232621   0.764   0.965   9.411  0.1344  0.0825  0.2920
 2809TIP3    H132622   0.809   0.885   9.386  1.6243  1.0725 -0.3923
 2809TIP3    H232623   0.818   1.002   9.481  1.2812  1.9856 -1.4614
 2810TIP3   OH232624   0.153   1.045   9.575  0.0786  0.3852 -0.4269
 2810TIP3    H132625   0.097   1.086   9.509 -0.1932  0.9952  0.1702
 2810TIP3    H232626   0.242   1.072   9.552 -0.1533  2.0206  0.4151
 2811TIP3   OH232627   7.343   1.173   8.084 -0.2590  0.1625 -0.0546
 2811TIP3    H132628   7.265   1.136   8.044  0.2747 -0.9271 -0.1109
 2811TIP3    H232629   7.383   1.101   8.133  1.0591  0.5110 -0.5527
 2812TIP3   OH232630   5.304   0.322   8.664  0.6418 -0.3443  0.2163
 2812TIP3    H132631   5.215   0.298   8.640  0.5228  0.0606  0.2479
 2812TIP3    H232632   5.353   0.239   8.662  0.7929 -0.2608 -2.0598
 2813TIP3   OH232633   5.213   1.562   9.104  0.0668 -0.3008  0.3137
 2813TIP3    H132634   5.126   1.584   9.070  0.2856  1.4678  0.8296
 2813TIP3    H232635   5.273   1.582   9.033  0.1477 -0.6304  0.2850
 2814TIP3   OH232636   2.345   2.823   8.981 -0.1338  0.4769  0.6254
 2814TIP3    H132637   2.362   2.876   9.058  2.2084 -0.3361  0.7380
 2814TIP3    H232638   2.287   2.753   9.012  0.4530  0.3927  1.5611
 2815TIP3   OH232639   0.957   3.593   9.145 -0.0994  0.1520 -0.1159
 2815TIP3    H132640   0.914   3.640   9.074 -0.8980  0.3377  0.4733
 2815TIP3    H232641   0.895   3.598   9.218  0.2844 -0.8602  0.2968
 2816TIP3   OH232642   0.109   7.108   8.505 -0.0839  0.1084  0.0403
 2816TIP3    H132643   0.019   7.089   8.477  0.6325 -3.0098 -0.4541
 2816TIP3    H232644   0.149   7.151   8.429 -0.3704 -1.1312 -0.8348
 2817TIP3   OH232645   4.812   5.950   8.270  0.5899 -0.7454  0.3021
 2817TIP3    H132646   4.748   5.879   8.261  0.2166 -0.6808  2.0284
 2817TIP3    H232647   4.758   6.028   8.285  1.0255 -0.2421 -0.6851
 2818TIP3   OH232648   4.526   7.534   8.074 -0.4243 -0.5590  0.0936
 2818TIP3    H132649   4.592   7.494   8.017  1.0993  1.3952  0.4006
 2818TIP3    H232650   4.472   7.587   8.016  1.3393  1.7089  0.3753
 2819TIP3   OH232651   0.067   3.988   7.285  0.7324 -0.0530 -0.3687
 2819TIP3    H132652   0.073   4.029   7.198 -0.6491  0.6633 -0.1455
 2819TIP3    H232653   0.142   4.024   7.333  1.3986 -0.3107 -1.1901
 2820TIP3   OH232654   7.542   3.170   8.135  0.1968  0.2618  0.4529
 2820TIP3    H132655   7.610   3.219   8.088  0.5493 -1.1939 -0.6053
 2820TIP3    H232656   7.530   3.219   8.217  1.6043  1.2564  0.1052
 2821TIP3   OH232657   7.625   0.625   7.739 -0.2418  0.1256 -0.1576
 2821TIP3    H132658   7.538   0.657   7.716 -1.3974 -1.1171  2.1453
 2821TIP3    H232659   7.619   0.530   7.733  1.0484  0.0309 -0.2260
 2822TIP3   OH232660   6.105   7.561   6.681  0.4192  0.3569 -0.2122
 2822TIP3    H132661   6.037   7.602   6.629  0.7562 -0.6019 -1.4337
 2822TIP3    H232662   6.065   7.548   6.767 -0.6824  0.4761 -0.6940
 2823TIP3   OH232663   1.767   6.180   8.442  0.2508 -0.4665 -0.2771
 2823TIP3    H132664   1.789   6.108   8.384  0.0142 -0.0468 -0.9044
 2823TIP3    H232665   1.772   6.143   8.530 -0.0021 -1.2804 -0.5976
 2824TIP3   OH232666   4.147   3.112   9.095  0.0820  0.5224 -0.3116
 2824TIP3    H132667   4.112   3.045   9.036 -3.1752  0.9187  0.9566
 2824TIP3    H232668   4.242   3.108   9.083 -0.1654 -2.4667 -2.2179
 2825TIP3   OH232669   3.395   5.687   6.941 -0.0734 -0.1389 -0.3584
 2825TIP3    H132670   3.475   5.657   6.985 -0.6624 -0.6507  0.3923
 2825TIP3    H232671   3.381   5.624   6.871 -0.0753 -0.3267 -0.1908
 2826TIP3   OH232672   6.053   5.625   7.619  0.0600  0.3706  0.1761
 2826TIP3    H132673   5.973   5.669   7.590  0.1236  0.3163 -0.0799
 2826TIP3    H232674   6.022   5.555   7.677 -0.1373 -0.1980 -0.6016
 2827TIP3   OH232675   3.905   0.658   9.627  0.2387  0.7179  0.5636
 2827TIP3    H132676   3.823   0.667   9.675 -0.3672  0.8245 -0.4578
 2827TIP3    H232677   3.922   0.745   9.592  1.2852  0.9209  1.5244
 2828TIP3   OH232678   1.506   6.157   8.708 -0.0915 -0.2486  0.2749
 2828TIP3    H132679   1.543   6.245   8.712  0.3154 -0.4556  1.7841
 2828TIP3    H232680   1.580   6.100   8.688  0.1725 -0.5017  1.8421
 2829TIP3   OH232681   2.879   2.157   7.664 -0.5602  0.5008 -0.5098
 2829TIP3    H132682   2.941   2.154   7.591  0.3831  0.5318  0.2776
 2829TIP3    H232683   2.849   2.066   7.674  1.1097  0.0322  0.5645
 2830TIP3   OH232684   6.951   3.464   8.459 -0.1957 -0.6002  0.4476
 2830TIP3    H132685   6.975   3.381   8.500 -1.2500 -1.8506 -1.2962
 2830TIP3    H232686   7.027   3.487   8.405  0.4492  0.0556  1.6208
 2831TIP3   OH232687   2.811   7.456   7.542 -0.4943  0.1176 -0.9277
 2831TIP3    H132688   2.761   7.535   7.564  0.1007  0.1491  0.3615
 2831TIP3    H232689   2.746   7.386   7.543 -0.9047  0.4781 -1.4405
 2832TIP3   OH232690   3.497   0.904   8.075 -0.2115  0.1225 -0.3040
 2832TIP3    H132691   3.515   0.997   8.088  1.1541  0.1743 -2.0845
 2832TIP3    H232692   3.411   0.901   8.033 -0.2850  0.5734 -0.1907
 2833TIP3   OH232693   5.316   6.070   7.482 -0.0601 -0.1011  0.2504
 2833TIP3    H132694   5.374   6.089   7.409  1.2106 -0.9459  0.9918
 2833TIP3    H232695   5.245   6.133   7.474  0.6331  0.5455 -1.0614
 2834TIP3   OH232696   1.774   6.029   7.030  0.0176 -0.2519  0.2746
 2834TIP3    H132697   1.799   6.098   6.969 -0.3080 -0.6052 -0.2670
 2834TIP3    H232698   1.822   5.952   7.001  0.3953 -0.2566  0.8901
 2835TIP3   OH232699   3.376   5.801   8.285  0.1153 -0.1629  0.3954
 2835TIP3    H132700   3.324   5.791   8.366 -0.4752  0.1392  0.0655
 2835TIP3    H232701   3.451   5.854   8.312 -1.9400  3.2484  0.0651
 2836TIP3   OH232702   6.961   6.402   8.993  0.0556 -0.0893  0.1638
 2836TIP3    H132703   6.960   6.313   9.031 -0.9207 -1.0891 -2.0349
 2836TIP3    H232704   7.054   6.423   8.984  0.3050 -0.5719  1.3307
 2837TIP3   OH232705   2.277   0.965   8.394  0.1842 -0.2131 -0.2055
 2837TIP3    H132706   2.190   0.928   8.387  0.6142 -1.1321 -0.8843
 2837TIP3    H232707   2.276   1.013   8.477 -1.1386  0.3030 -0.4999
 2838TIP3   OH232708   4.626   4.266   8.899  0.1739  0.4070 -0.1876
 2838TIP3    H132709   4.544   4.219   8.884  0.9577 -1.0752 -0.0528
 2838TIP3    H232710   4.681   4.204   8.948  1.4847  1.2335 -0.5508
 2839TIP3   OH232711   7.342   5.390   9.233 -0.4387  0.1857  0.4703
 2839TIP3    H132712   7.434   5.368   9.219 -0.3772  0.1638  0.8863
 2839TIP3    H232713   7.343   5.481   9.262 -0.7959  1.2779 -2.5800
 2840TIP3   OH232714   2.766   3.688   8.095  0.7801  0.2331 -0.3577
 2840TIP3    H132715   2.780   3.769   8.143  1.2038 -0.4046  0.6265
 2840TIP3    H232716   2.680   3.699   8.054  0.9538  1.2752 -0.4666
 2841TIP3   OH232717   5.165   0.878   8.421  0.2287 -0.2942 -0.1646
 2841TIP3    H132718   5.212   0.797   8.439  1.2397  0.3233  0.0244
 2841TIP3    H232719   5.191   0.903   8.333  0.0890 -0.0626 -0.1437
 2842TIP3   OH232720   2.477   2.890   9.317 -0.0580  0.1626 -0.0433
 2842TIP3    H132721   2.509   2.940   9.242 -0.6242 -2.6712 -2.3143
 2842TIP3    H232722   2.547   2.897   9.382  1.8761  0.1701 -2.0275
 2843TIP3   OH232723   0.447   5.186   7.512  0.4389 -0.5231  0.1476
 2843TIP3    H132724   0.358   5.186   7.547  0.1639 -1.8722 -0.4642
 2843TIP3    H232725   0.503   5.185   7.590 -0.1391 -2.0530  0.5836
 2844TIP3   OH232726   7.437   0.519   8.012  0.3222  0.0528  0.2429
 2844TIP3    H132727   7.375   0.563   8.070  1.2605 -2.5820  3.5551
 2844TIP3    H232728   7.419   0.555   7.926 -3.8560  1.4425  1.4696
 2845TIP3   OH232729   6.992   3.711   7.027 -0.1211  0.1599  0.2062
 2845TIP3    H132730   7.069   3.731   6.974 -1.7636  0.9901 -2.0737
 2845TIP3    H232731   6.931   3.783   7.010 -2.0196 -1.2442  0.5803
 2846TIP3   OH232732   7.428   5.232   7.516 -0.3027  0.0010 -0.0856
 2846TIP3    H132733   7.365   5.179   7.566  0.1714  0.4241  0.9741
 2846TIP3    H232734   7.390   5.237   7.428 -0.9326 -1.1213  0.1028
 2847TIP3   OH232735   6.856   1.716   8.877  0.0907 -0.7152  0.7620
 2847TIP3    H132736   6.901   1.652   8.933  0.1581 -0.7744  0.6388
 2847TIP3    H232737   6.879   1.691   8.788 -0.0650 -0.6548  0.7041
 2848TIP3   OH232738   1.838   6.975   8.336  0.1337  0.4465 -0.3797
 2848TIP3    H132739   1.881   6.947   8.417  1.4420  2.1000 -0.4569
 2848TIP3    H232740   1.910   6.992   8.275 -0.6796  1.8964 -0.9799
 2849TIP3   OH232741   0.323   6.489   8.213 -0.2521 -0.7700  0.4250
 2849TIP3    H132742   0.394   6.430   8.188  0.2314 -0.6707  1.5013
 2849TIP3    H232743   0.351   6.526   8.297 -0.0365  1.8146 -0.6791
 2850TIP3   OH232744   4.993   2.506   8.006  0.0612 -0.2523 -0.1605
 2850TIP3    H132745   5.005   2.426   8.057  1.7949  0.3038  0.3641
 2850TIP3    H232746   5.050   2.496   7.930  0.4990  0.5863  0.0424
 2851TIP3   OH232747   3.203   1.109   9.312 -0.3833 -0.3638 -0.4643
 2851TIP3    H132748   3.201   1.193   9.266 -0.6902  0.0332  0.2561
 2851TIP3    H232749   3.291   1.075   9.297  0.0114  0.4608 -0.1085
 2852TIP3   OH232750   0.795   1.279   8.400  0.4809 -0.1070  0.0271
 2852TIP3    H132751   0.789   1.244   8.489  2.1975 -0.4643  0.0385
 2852TIP3    H232752   0.738   1.355   8.400  0.8516  0.2044  1.5935
 2853TIP3   OH232753   7.141   5.521   7.640  0.0911  0.5084  0.6889
 2853TIP3    H132754   7.142   5.617   7.639 -0.1046  0.5290  1.5005
 2853TIP3    H232755   7.233   5.496   7.633  0.1389  0.7564  0.4332
 2854TIP3   OH232756   4.392   1.845   7.355  0.3533  0.3741  0.1092
 2854TIP3    H132757   4.421   1.907   7.288 -0.8279 -0.6725 -1.4542
 2854TIP3    H232758   4.473   1.811   7.393  1.0520  1.2560 -0.5525
 2855TIP3   OH232759   2.315   1.122   9.424  0.8957  0.2006 -0.5398
 2855TIP3    H132760   2.364   1.157   9.497  0.1459 -1.3962  0.7891
 2855TIP3    H232761   2.223   1.141   9.445  0.7055  0.2653 -1.3700
 2856TIP3   OH232762   4.152   4.496   7.733 -0.3752 -0.3686  0.3982
 2856TIP3    H132763   4.178   4.514   7.643  2.1976  2.4907  1.5455
 2856TIP3    H232764   4.225   4.447   7.770 -0.4220  0.3369  1.4617
 2857TIP3   OH232765   2.224   5.691   8.381  0.4387 -0.0423  0.1714
 2857TIP3    H132766   2.219   5.666   8.473  1.0300  0.6104  0.3913
 2857TIP3    H232767   2.313   5.669   8.354 -0.1993 -1.7153 -0.7163
 2858TIP3   OH232768   2.683   3.797   9.060  0.2870  0.0665 -0.0045
 2858TIP3    H132769   2.599   3.751   9.055  0.2922  0.0923 -0.4317
 2858TIP3    H232770   2.660   3.889   9.047  0.2320  0.2393  1.2402
 2859TIP3   OH232771   2.654   5.140   8.045 -0.1690 -0.4485 -0.2815
 2859TIP3    H132772   2.701   5.223   8.050 -0.7535 -0.1839  1.2274
 2859TIP3    H232773   2.695   5.094   7.972  1.0164  0.6404 -0.3358
 2860TIP3   OH232774   2.564   1.036   6.579 -0.1363 -0.7043  0.5952
 2860TIP3    H132775   2.647   0.996   6.553  0.5796  0.5329  0.9013
 2860TIP3    H232776   2.579   1.130   6.572 -1.9250 -0.4533 -0.5714
 2861TIP3   OH232777   7.180   3.515   6.823  0.1855  0.3131  0.6301
 2861TIP3    H132778   7.265   3.520   6.866 -0.4309 -0.4560  2.0059
 2861TIP3    H232779   7.200   3.527   6.730  1.7608  0.3934  0.9435
 2862TIP3   OH232780   6.090   7.072   8.090  0.5094 -0.1819 -0.1443
 2862TIP3    H132781   6.091   7.101   7.999  0.7473  1.7384  0.4398
 2862TIP3    H232782   6.175   7.030   8.103  1.0056  0.6930 -0.4690
 2863TIP3   OH232783   1.747   6.418   8.169  0.3087 -0.1932  0.2946
 2863TIP3    H132784   1.788   6.493   8.128 -1.2813  0.8148  0.4616
 2863TIP3    H232785   1.811   6.387   8.233  1.7474 -0.1818 -1.0691
 2864TIP3   OH232786   3.827   1.492   8.013 -0.4112  0.6254 -0.1429
 2864TIP3    H132787   3.753   1.547   8.038 -1.3936 -0.0955 -1.3108
 2864TIP3    H232788   3.807   1.406   8.050  1.3182  1.0772  2.0305
 2865TIP3   OH232789   3.916   5.485   7.306 -0.1128 -0.0219 -0.4400
 2865TIP3    H132790   3.845   5.421   7.298 -0.7193  0.4606  0.7993
 2865TIP3    H232791   3.912   5.513   7.398 -0.4715  2.4749 -1.1440
 2866TIP3   OH232792   5.876   0.535   6.971  0.7271  0.3393 -0.1890
 2866TIP3    H132793   5.943   0.586   6.926  0.5053  0.0719 -0.8276
 2866TIP3    H232794   5.874   0.451   6.926 -0.2006  0.4224 -0.3348
 2867TIP3   OH232795   5.006   1.523   8.383  0.3848  0.1262 -0.2145
 2867TIP3    H132796   4.953   1.575   8.443  0.6355 -0.0705  0.1847
 2867TIP3    H232797   4.968   1.538   8.296  0.6902  1.2804 -0.1594
 2868TIP3   OH232798   0.485   7.593   8.484  0.3465 -0.2289 -0.2498
 2868TIP3    H132799   0.455   7.683   8.492  2.7903  0.5143  1.7569
 2868TIP3    H232800   0.533   7.590   8.401 -1.2568 -0.2271 -1.2137
 2869TIP3   OH232801   2.078   0.799   6.876 -0.0499 -0.1555 -0.5864
 2869TIP3    H132802   2.046   0.736   6.942 -1.8773 -0.8002 -1.9943
 2869TIP3    H232803   2.036   0.882   6.900  0.8733  0.0981  0.1899
 2870TIP3   OH232804   2.849   3.001   8.942 -0.4978  0.3038  0.0838
 2870TIP3    H132805   2.904   3.079   8.947  0.7827 -0.6354  2.5012
 2870TIP3    H232806   2.906   2.934   8.905 -0.3773 -0.3661  1.4348
 2871TIP3   OH232807   0.454   3.349   8.853  0.0789 -0.2523 -0.2056
 2871TIP3    H132808   0.410   3.312   8.930 -0.4350 -1.4099 -1.0147
 2871TIP3    H232809   0.494   3.430   8.884 -1.5419  0.1719  0.8829
 2872TIP3   OH232810   6.001   0.753   7.541 -0.2624 -0.3791  0.3433
 2872TIP3    H132811   5.987   0.776   7.632  1.0082  0.2421  0.4089
 2872TIP3    H232812   6.002   0.658   7.539  0.5198 -0.3974  1.1329
 2873TIP3   OH232813   1.634   0.171   9.204  0.0745  0.0197  0.0785
 2873TIP3    H132814   1.703   0.149   9.267 -0.2419  1.1214  0.8381
 2873TIP3    H232815   1.628   0.266   9.207 -0.4081  0.0404 -1.1438
 2874TIP3   OH232816   4.140   4.912   8.583  0.2304  0.2637  0.1081
 2874TIP3    H132817   4.118   4.997   8.621  0.0104  0.0945  0.3636
 2874TIP3    H232818   4.206   4.876   8.643  0.2819  0.2295  0.0302
 2875TIP3   OH232819   2.779   1.661   7.882 -0.2598  0.1858 -0.2002
 2875TIP3    H132820   2.841   1.631   7.948 -0.8308 -1.6467 -0.4369
 2875TIP3    H232821   2.695   1.662   7.927 -0.8767 -2.3231 -1.1473
 2876TIP3   OH232822   0.169   0.914   7.532 -0.5808  0.0229  0.5538
 2876TIP3    H132823   0.109   0.978   7.572 -3.0314 -1.1828 -0.9573
 2876TIP3    H232824   0.165   0.934   7.438  0.2839 -0.9903  0.2920
 2877TIP3   OH232825   4.502   6.748   9.045  0.2250  0.4710  0.0291
 2877TIP3    H132826   4.438   6.690   9.087 -1.3019  1.8973 -0.1843
 2877TIP3    H232827   4.475   6.750   8.954  1.4019  0.1017 -0.3410
 2878TIP3   OH232828   5.543   1.459   7.103 -0.2806 -0.2696 -0.0553
 2878TIP3    H132829   5.597   1.399   7.051 -1.4303 -0.4140 -1.1154
 2878TIP3    H232830   5.460   1.464   7.056 -0.8319  0.7753  0.9796
 2879TIP3   OH232831   3.355   3.122   9.263 -0.2845 -0.4739  0.2046
 2879TIP3    H132832   3.388   3.210   9.278  1.0595 -0.8892 -0.1568
 2879TIP3    H232833   3.264   3.134   9.239 -0.9847  0.6080  3.0042
 2880TIP3   OH232834   4.906   6.366   8.661 -0.5580 -0.0298 -0.3182
 2880TIP3    H132835   4.920   6.417   8.741  0.2838 -0.7740  0.0303
 2880TIP3    H232836   4.925   6.276   8.686  2.1299 -0.0078 -1.9061
 2881TIP3   OH232837   2.941   3.724   9.061 -0.2912 -0.0024  0.3240
 2881TIP3    H132838   2.851   3.756   9.052 -0.1240  0.0327 -1.7221
 2881TIP3    H232839   2.982   3.745   8.978  1.1895 -1.3544  0.6600
 2882TIP3   OH232840   6.940   2.668   8.508  0.3795  0.0551  0.1919
 2882TIP3    H132841   6.989   2.590   8.482  1.3736  0.2268  1.4436
 2882TIP3    H232842   6.888   2.691   8.431  1.2216 -0.9547 -0.7081
 2883TIP3   OH232843   1.603   4.169   8.863 -0.0364  0.0514  0.6927
 2883TIP3    H132844   1.618   4.235   8.795  0.1210 -1.2060 -0.5243
 2883TIP3    H232845   1.690   4.137   8.885 -0.0552  0.6673  1.7486
 2884TIP3   OH232846   2.245   3.650   8.918  0.2249 -0.0290  0.9882
 2884TIP3    H132847   2.179   3.583   8.938 -0.4704  0.4708  0.4310
 2884TIP3    H232848   2.328   3.611   8.945 -0.2529 -0.8316  1.3330
 2885TIP3   OH232849   6.254   3.435   7.731 -0.5277  0.2184  0.3649
 2885TIP3    H132850   6.288   3.524   7.719 -1.4857  0.3678 -1.7403
 2885TIP3    H232851   6.178   3.447   7.789 -0.5906  0.7824  0.1780
 2886TIP3   OH232852   5.438   4.370   9.339 -0.0171 -0.4236  0.0706
 2886TIP3    H132853   5.531   4.349   9.335  1.0821  3.4300  0.9236
 2886TIP3    H232854   5.409   4.333   9.423  1.4042  0.2994  0.9297
 2887TIP3   OH232855   5.300   0.842   8.670  0.0395 -0.5488  0.1424
 2887TIP3    H132856   5.285   0.923   8.622 -1.6669 -1.1878 -0.4752
 2887TIP3    H232857   5.318   0.869   8.759  0.3705  0.5356 -0.2423
 2888TIP3   OH232858   5.929   1.306   8.917  0.5093  0.3936 -0.2636
 2888TIP3    H132859   6.019   1.333   8.938  0.8901 -0.0137 -1.3377
 2888TIP3    H232860   5.928   1.295   8.822 -1.1960  2.2247 -0.5158
 2889TIP3   OH232861   5.193   0.294   7.315 -0.0298 -0.0853  0.0878
 2889TIP3    H132862   5.192   0.301   7.411  0.1493 -1.5949  0.2307
 2889TIP3    H232863   5.202   0.200   7.299  0.5980  0.2113 -1.4147
 2890TIP3   OH232864   1.822   7.325   8.399  0.4882 -0.1140 -0.5725
 2890TIP3    H132865   1.737   7.370   8.393  0.5384 -0.0541 -0.8262
 2890TIP3    H232866   1.811   7.265   8.473  0.6643  0.8215  0.2343
 2891TIP3   OH232867   0.482   5.708   8.516  0.6382 -0.1635 -0.2598
 2891TIP3    H132868   0.514   5.738   8.431  1.6348 -2.4389 -0.7417
 2891TIP3    H232869   0.387   5.711   8.508  0.7126 -1.0184 -1.7153
 2892TIP3   OH232870   6.072   5.501   9.554  0.3450 -0.2517  0.0019
 2892TIP3    H132871   6.157   5.543   9.542 -0.0371  0.4236 -0.3645
 2892TIP3    H232872   6.089   5.408   9.538  1.2812 -0.3194  1.2270
 2893TIP3   OH232873   6.512   6.306   7.440  0.4637 -0.0983 -0.7648
 2893TIP3    H132874   6.436   6.363   7.436 -0.5047 -1.1689  0.9987
 2893TIP3    H232875   6.581   6.360   7.478  0.9290  1.1472 -3.1948
 2894TIP3   OH232876   1.457   2.592   8.518  0.3743  0.7117 -0.1445
 2894TIP3    H132877   1.391   2.656   8.490  0.4141  0.4064 -0.9646
 2894TIP3    H232878   1.451   2.522   8.453 -0.0074 -0.3663  1.0246
 2895TIP3   OH232879   4.565   6.023   7.597 -0.7251 -0.3099 -0.2504
 2895TIP3    H132880   4.530   6.073   7.523 -0.7832  0.7876  0.5035
 2895TIP3    H232881   4.654   6.001   7.571 -0.5242  0.6214 -0.4020
 2896TIP3   OH232882   1.541   3.182   9.070 -0.3376 -0.1254 -0.2870
 2896TIP3    H132883   1.478   3.253   9.060 -0.6932 -0.5757 -1.4380
 2896TIP3    H232884   1.506   3.129   9.142 -1.2893 -0.3631 -0.9010
 2897TIP3   OH232885   6.318   2.620   7.824  0.5352 -0.2247 -0.0109
 2897TIP3    H132886   6.245   2.670   7.787  1.0294 -0.4986 -1.4009
 2897TIP3    H232887   6.389   2.683   7.833  0.2418 -0.0223  1.0821
 2898TIP3   OH232888   6.305   2.888   8.344  0.2505  0.5979 -0.7486
 2898TIP3    H132889   6.294   2.875   8.438 -0.3312  0.5779 -0.8144
 2898TIP3    H232890   6.233   2.947   8.320  1.1369  1.6320 -0.9584
 2899TIP3   OH232891   0.232   4.518   8.522 -0.0282  0.3392  0.3733
 2899TIP3    H132892   0.164   4.506   8.588 -0.7226 -0.7184 -0.5154
 2899TIP3    H232893   0.192   4.572   8.454 -0.4920 -1.4205 -0.8205
 2900TIP3   OH232894   4.422   5.659   7.795 -1.1409 -0.0481  0.0645
 2900TIP3    H132895   4.489   5.716   7.835 -0.6157  0.5702 -1.5851
 2900TIP3    H232896   4.431   5.675   7.701 -2.1425 -1.6284 -0.3334
 2901TIP3   OH232897   2.918   6.266   7.363 -0.2463  0.2470  0.2598
 2901TIP3    H132898   2.891   6.257   7.454  0.2477  0.9091  0.4856
 2901TIP3    H232899   2.879   6.349   7.334  1.8235  1.4661  0.7367
 2902TIP3   OH232900   6.717   7.086   8.454 -0.4538 -0.5416  0.0821
 2902TIP3    H132901   6.672   7.049   8.378 -1.4712 -0.9730  0.8772
 2902TIP3    H232902   6.806   7.050   8.449 -0.3851 -0.2731 -1.0905
 2903TIP3   OH232903   7.667   0.264   8.080  0.2371  0.2681  0.1567
 2903TIP3    H132904   7.585   0.234   8.041  0.7725  0.2247 -0.9938
 2903TIP3    H232905   7.660   0.360   8.078  0.4200  0.2711 -0.4071
 2904TIP3   OH232906   2.739   0.702   7.320  0.0305 -0.0909  0.4913
 2904TIP3    H132907   2.675   0.758   7.365 -0.1065 -0.1321  0.3513
 2904TIP3    H232908   2.821   0.750   7.327  0.3431 -0.8119  2.1134
 2905TIP3   OH232909   2.642   4.214   9.483 -0.0030 -0.2244  0.0936
 2905TIP3    H132910   2.611   4.133   9.444  0.4745 -0.1513 -0.4382
 2905TIP3    H232911   2.575   4.236   9.548 -0.5868 -0.5617 -0.3864
 2906TIP3   OH232912   3.641   2.846   7.987  0.1566  0.2557 -0.1765
 2906TIP3    H132913   3.735   2.865   7.983  0.1007  1.7117  2.7912
 2906TIP3    H232914   3.629   2.801   8.071 -1.8323  0.4039 -0.3328
 2907TIP3   OH232915   0.340   0.405   8.462 -0.0918  0.1979 -0.2692
 2907TIP3    H132916   0.394   0.484   8.476 -1.0266  0.8664 -0.3643
 2907TIP3    H232917   0.259   0.423   8.510  0.1049 -1.1761  0.6299
 2908TIP3   OH232918   0.448   0.857   7.480  0.1085 -0.2898 -0.6676
 2908TIP3    H132919   0.482   0.834   7.566  1.1067 -0.2018 -1.0239
 2908TIP3    H232920   0.361   0.816   7.477 -0.4728  0.7367  0.8383
 2909TIP3   OH232921   3.815   6.047   6.561 -0.3097 -0.1825 -0.1192
 2909TIP3    H132922   3.740   6.030   6.504 -0.3426  0.7723 -0.3794
 2909TIP3    H232923   3.777   6.062   6.647 -0.4081  0.1856 -0.2269
 2910TIP3   OH232924   5.513   6.723   8.472  0.6212 -0.2590 -0.4192
 2910TIP3    H132925   5.524   6.665   8.547  2.5077 -1.0717 -1.2647
 2910TIP3    H232926   5.501   6.810   8.511  0.2623 -0.8348  0.8177
 2911TIP3   OH232927   2.597   7.556   6.806 -0.2014 -0.1753 -0.4258
 2911TIP3    H132928   2.595   7.583   6.714 -1.2412  0.8372 -0.1226
 2911TIP3    H232929   2.604   7.460   6.802  0.4738 -0.1020 -1.5373
 2912TIP3   OH232930   5.488   6.036   8.122 -0.6225 -0.3495  0.3293
 2912TIP3    H132931   5.475   6.130   8.135  0.2771 -0.1114 -0.3612
 2912TIP3    H232932   5.579   6.021   8.147 -0.2063 -0.6900 -1.2521
 2913TIP3   OH232933   0.784   0.694   8.771 -0.0836  0.2866  0.3297
 2913TIP3    H132934   0.769   0.661   8.682 -2.5147  0.0157  0.7949
 2913TIP3    H232935   0.880   0.693   8.780  0.2917  1.2197 -2.5926
 2914TIP3   OH232936   3.093   2.631   7.420 -0.0929 -0.5275 -0.5042
 2914TIP3    H132937   3.083   2.723   7.445  0.3304 -0.6656  0.2142
 2914TIP3    H232938   3.110   2.586   7.502  0.1192 -1.1894 -0.9034
 2915TIP3   OH232939   6.643   3.766   7.351 -0.4639  0.2298 -0.3410
 2915TIP3    H132940   6.558   3.801   7.376 -0.6293  1.6203 -2.5969
 2915TIP3    H232941   6.629   3.731   7.263  0.7353 -1.8318  0.2137
 2916TIP3   OH232942   3.023   3.649   7.922  0.2293 -0.5823 -0.0049
 2916TIP3    H132943   2.973   3.687   7.850  0.7764  0.0542 -0.0703
 2916TIP3    H232944   2.961   3.594   7.970 -0.5093  0.1470 -0.1100
 2917TIP3   OH232945   0.624   7.551   9.319  0.1491  0.0767 -0.2850
 2917TIP3    H132946   0.586   7.614   9.380  0.5483  0.6064 -0.5766
 2917TIP3    H232947   0.683   7.603   9.265  0.0874 -0.4599 -0.8730
 2918TIP3   OH232948   7.423   1.641   8.502  0.2173  0.3045  0.2742
 2918TIP3    H132949   7.379   1.569   8.548  0.0750  0.3496  0.2069
 2918TIP3    H232950   7.370   1.656   8.424  1.3909 -0.9331 -0.8131
 2919TIP3   OH232951   0.819   0.033   9.167  0.5832  0.4428  0.6501
 2919TIP3    H132952   0.914   0.021   9.170  0.4651 -0.7572  0.0349
 2919TIP3    H232953   0.804   0.110   9.222  1.9078  0.6680  0.7458
 2920TIP3   OH232954   0.314   0.509   9.106 -0.1130 -0.2254  0.3756
 2920TIP3    H132955   0.269   0.575   9.053 -1.5767 -0.7209  0.9483
 2920TIP3    H232956   0.243   0.462   9.151  0.7733 -2.8902 -0.8005
 2921TIP3   OH232957   4.442   5.962   8.332  0.1032  0.0673 -0.4479
 2921TIP3    H132958   4.428   5.954   8.427 -3.1130 -1.6891 -0.9381
 2921TIP3    H232959   4.499   6.039   8.323  0.9784 -0.0188  2.8954
 2922TIP3   OH232960   1.810   6.185   7.273 -0.3036 -0.1213 -0.3442
 2922TIP3    H132961   1.763   6.150   7.198  0.2224 -2.2352  0.2393
 2922TIP3    H232962   1.889   6.131   7.280  1.6530  2.4896 -0.5365
 2923TIP3   OH232963   4.721   1.567   7.330  0.1921  0.0380  0.2923
 2923TIP3    H132964   4.642   1.588   7.280  0.0261  1.1091  0.9671
 2923TIP3    H232965   4.777   1.520   7.268 -1.4652 -1.9176  0.1450
 2924TIP3   OH232966   2.676   0.595   7.992 -0.4151 -0.2914 -0.2447
 2924TIP3    H132967   2.698   0.680   8.030 -0.1143 -0.0203 -1.0102
 2924TIP3    H232968   2.586   0.579   8.021 -1.5271  1.6156 -2.3692
 2925TIP3   OH232969   4.278   6.514   8.616  0.1184 -0.3776 -0.0166
 2925TIP3    H132970   4.258   6.540   8.526  2.8392  1.5081 -0.1971
 2925TIP3    H232971   4.234   6.579   8.670  1.4921  0.7662 -0.2082
 2926TIP3   OH232972   1.767   0.866   6.530 -0.4654  0.7255 -0.8217
 2926TIP3    H132973   1.730   0.944   6.571  0.6590  1.2436 -0.7533
 2926TIP3    H232974   1.691   0.819   6.494 -1.1699  1.7642 -0.7296
 2927TIP3   OH232975   0.014   7.360   7.703  0.6250 -0.4198 -0.2814
 2927TIP3    H132976   0.043   7.272   7.726  0.1971 -0.6652 -0.6630
 2927TIP3    H232977   0.093   7.406   7.677  1.1023 -0.2113  1.3909
 2928TIP3   OH232978   0.010   4.551   9.114  0.5475 -0.2143  0.2150
 2928TIP3    H132979   0.016   4.470   9.164  0.6742 -0.0587  0.4521
 2928TIP3    H232980  -0.073   4.544   9.066  0.0408 -0.0287  1.0382
 2929TIP3   OH232981   3.655   4.818   8.973 -0.4012 -0.0011  0.1694
 2929TIP3    H132982   3.564   4.810   8.945 -0.2790  0.3532 -0.3590
 2929TIP3    H232983   3.687   4.897   8.928  0.3631 -0.5096 -0.2027
 2930TIP3   OH232984   3.743   6.363   8.360  0.4719 -0.3488 -0.0296
 2930TIP3    H132985   3.790   6.422   8.420  0.4504  1.5516 -1.7804
 2930TIP3    H232986   3.812   6.326   8.305  0.1577  2.4006 -2.5662
 2931TIP3   OH232987   5.615   0.243   8.415  0.1060 -0.1642 -0.8159
 2931TIP3    H132988   5.661   0.192   8.482 -0.6888 -1.1546 -1.0124
 2931TIP3    H232989   5.573   0.178   8.359 -1.4522  0.7006 -0.7113
 2932TIP3   OH232990   5.507   3.001   9.111 -0.0073  0.7138  0.4667
 2932TIP3    H132991   5.494   2.938   9.181 -0.7427  0.1353 -0.1668
 2932TIP3    H232992   5.583   2.969   9.063 -0.1162  0.5495  0.4049
 2933TIP3   OH232993   7.093   2.927   8.549  0.0068  0.1642 -0.3054
 2933TIP3    H132994   7.083   2.906   8.642  2.0363 -1.5426 -0.4093
 2933TIP3    H232995   7.037   2.864   8.504 -0.1635  0.3150 -0.3099
 2934TIP3   OH232996   7.495   5.605   8.240  0.2057  0.3098 -0.1317
 2934TIP3    H132997   7.422   5.553   8.272  0.7128 -0.1606  0.2965
 2934TIP3    H232998   7.465   5.695   8.247 -1.4837  0.0525 -2.8466
 2935TIP3   OH232999   4.718   5.489   8.591  0.3691 -0.1822  0.4477
 2935TIP3    H133000   4.741   5.472   8.682 -0.0357 -2.6744  0.1400
 2935TIP3    H233001   4.709   5.403   8.551 -0.2712  0.8267 -1.7707
 2936TIP3   OH233002   1.411   6.035   7.427 -0.2210  0.1566 -0.2071
 2936TIP3    H133003   1.441   5.962   7.482  0.6096  0.2833 -0.4719
 2936TIP3    H233004   1.316   6.025   7.423 -0.0641 -1.3463 -0.8311
 2937TIP3   OH233005   3.612   0.164   9.406 -0.0958  0.3361  0.1733
 2937TIP3    H133006   3.522   0.131   9.407 -0.1706  0.5161 -0.3108
 2937TIP3    H233007   3.649   0.135   9.489  0.3382 -2.3647 -0.8410
 2938TIP3   OH233008   7.608   5.658   7.471  0.3629 -0.2168  0.1048
 2938TIP3    H133009   7.620   5.752   7.461  0.3191 -0.1106  0.9871
 2938TIP3    H233010   7.619   5.623   7.383 -1.2691  0.7891 -0.5479
 2939TIP3   OH233011   6.704   4.181   8.924  0.0439  0.2966 -0.8875
 2939TIP3    H133012   6.776   4.235   8.953 -0.0925  0.4292 -0.7946
 2939TIP3    H233013   6.626   4.220   8.964 -0.1538  0.5262 -1.4876
 2940TIP3   OH233014   3.798   2.082   9.207 -0.1702 -0.0401  0.6050
 2940TIP3    H133015   3.856   2.017   9.245 -1.5502 -1.3558  0.5421
 2940TIP3    H233016   3.749   2.118   9.281  0.6848  1.0763  0.6609
 2941TIP3   OH233017   6.751   2.534   8.122 -0.2936 -0.2348 -0.3328
 2941TIP3    H133018   6.745   2.446   8.158  0.8220 -0.5007 -0.7611
 2941TIP3    H233019   6.759   2.591   8.199 -1.0210 -0.4877 -0.0565
 2942TIP3   OH233020   5.589   6.560   8.067 -0.1911 -0.2760  0.0198
 2942TIP3    H133021   5.681   6.586   8.066  0.3738 -2.0656  1.4221
 2942TIP3    H233022   5.561   6.570   7.976  0.8535  1.9474 -0.1404
 2943TIP3   OH233023   6.886   6.899   9.056  0.1063 -0.2064 -0.8621
 2943TIP3    H133024   6.825   6.973   9.057 -0.0815 -0.3205  1.2789
 2943TIP3    H233025   6.834   6.824   9.085  0.4098 -1.1381 -2.5707
 2944TIP3   OH233026   1.770   6.043   8.753 -0.5059  0.4819  0.0675
 2944TIP3    H133027   1.790   5.983   8.682  3.2478  1.5861 -0.0483
 2944TIP3    H233028   1.752   5.986   8.828 -1.8207 -0.7048 -1.1004
 2945TIP3   OH233029   2.633   6.019   8.965  0.1965  0.0080  0.4020
 2945TIP3    H133030   2.544   6.012   8.999 -0.4595 -0.0837 -1.2202
 2945TIP3    H233031   2.646   6.113   8.952  1.3006  0.2723  2.9331
 2946TIP3   OH233032   6.957   0.257   9.532  0.3345 -0.6215 -0.7950
 2946TIP3    H133033   6.893   0.322   9.562 -0.7443 -2.2176  0.4907
 2946TIP3    H233034   7.034   0.273   9.586  0.8780  0.9247 -1.9472
 2947TIP3   OH233035   5.520   1.974   8.510  0.0939  0.2285  0.0114
 2947TIP3    H133036   5.438   2.012   8.478 -0.7789 -0.8816  0.8236
 2947TIP3    H233037   5.576   1.970   8.433 -0.8927  0.3385 -0.7363
 2948TIP3   OH233038   5.770   0.553   7.223 -0.4102  0.4595  0.6434
 2948TIP3    H133039   5.687   0.596   7.200 -0.1334  0.2281 -0.8624
 2948TIP3    H233040   5.827   0.570   7.148  0.6153 -0.1663  1.2678
 2949TIP3   OH233041   0.619   4.394   9.284  0.3685 -0.1289  0.1980
 2949TIP3    H133042   0.557   4.377   9.355  0.1256 -2.3544 -0.4431
 2949TIP3    H233043   0.589   4.476   9.245 -1.2525 -0.3618  0.8594
 2950TIP3   OH233044   7.338   0.794   9.145 -0.0795  0.1675  0.2337
 2950TIP3    H133045   7.293   0.772   9.227 -2.0972  0.3185 -0.7806
 2950TIP3    H233046   7.387   0.714   9.123 -0.0436 -0.1005  1.2363
 2951TIP3   OH233047   7.097   7.016   9.233  0.0679 -0.7769 -0.8718
 2951TIP3    H133048   7.010   6.986   9.207 -0.3505 -0.0237 -0.3814
 2951TIP3    H233049   7.081   7.096   9.283  1.0148 -0.8447 -0.4297
 2952TIP3   OH233050   2.052   3.900   9.168  0.3032 -0.0963 -0.0270
 2952TIP3    H133051   1.960   3.927   9.163 -0.1617 -1.7244 -2.0274
 2952TIP3    H233052   2.049   3.818   9.217  0.2031 -1.5968 -2.3638
 2953TIP3   OH233053   1.714   4.321   7.358 -0.1656 -0.0862  0.3568
 2953TIP3    H133054   1.764   4.327   7.277 -0.4803  0.3816  0.1915
 2953TIP3    H233055   1.714   4.410   7.393 -0.9594 -0.0576  0.3035
 2954TIP3   OH233056   5.276   4.437   7.047  0.1299  0.2343  0.3285
 2954TIP3    H133057   5.329   4.371   7.003  0.7983  1.2542 -0.4376
 2954TIP3    H233058   5.194   4.439   6.998  0.8835  1.3917 -0.9530
 2955TIP3   OH233059   7.115   6.246   8.700 -0.3040  0.0705  0.2604
 2955TIP3    H133060   7.061   6.167   8.709 -1.7041  0.7473 -1.6301
 2955TIP3    H233061   7.053   6.318   8.711  0.5022  0.8812 -0.4403
 2956TIP3   OH233062   3.394   4.807   8.308 -0.1610 -0.3355  0.0262
 2956TIP3    H133063   3.489   4.793   8.298  0.5726  2.7355  1.3062
 2956TIP3    H233064   3.364   4.732   8.358  1.7270 -1.1334  0.0581
 2957TIP3   OH233065   6.553   0.901   9.775  0.0640  0.3997 -0.3323
 2957TIP3    H133066   6.501   0.832   9.816 -0.0609  1.6543  1.7789
 2957TIP3    H233067   6.489   0.950   9.722 -0.3776  0.3723  0.1639
 2958TIP3   OH233068   0.974   3.157   9.064 -0.1130  0.3266  0.7973
 2958TIP3    H133069   0.909   3.087   9.070 -0.3987  0.6179  1.1421
 2958TIP3    H233070   0.947   3.209   8.988  1.6315 -1.4625 -1.2070
 2959TIP3   OH233071   6.934   7.331   8.900  0.5170  0.4513 -0.2690
 2959TIP3    H133072   6.977   7.268   8.958  0.1678 -0.3204 -0.8377
 2959TIP3    H233073   6.930   7.287   8.815 -0.5922  0.8580 -0.4434
 2960TIP3   OH233074   2.579   3.637   8.748  0.0203  0.6783  0.4696
 2960TIP3    H133075   2.526   3.714   8.767  0.1584  0.9642 -0.2491
 2960TIP3    H233076   2.643   3.667   8.683  0.1172 -0.0181  0.2243
 2961TIP3   OH233077   6.202   6.817   8.526 -0.1194 -0.2747 -0.1175
 2961TIP3    H133078   6.173   6.746   8.469 -1.2185 -1.2557  1.5704
 2961TIP3    H233079   6.297   6.806   8.532  0.0137 -0.1773 -1.6633
 2962TIP3   OH233080   2.400   5.778   8.764  0.4945 -0.1544  0.4981
 2962TIP3    H133081   2.396   5.793   8.858  0.1067  2.0961  0.1923
 2962TIP3    H233082   2.472   5.833   8.734 -0.7515  0.8961 -0.7457
 2963TIP3   OH233083   0.151   2.333   8.251  0.0058 -0.0879  0.0179
 2963TIP3    H133084   0.244   2.350   8.268 -0.2013  1.2852 -0.1625
 2963TIP3    H233085   0.104   2.384   8.317 -0.6406 -0.1156 -0.4092
 2964TIP3   OH233086   3.875   0.779   7.096 -0.1047  0.4023  0.1495
 2964TIP3    H133087   3.852   0.870   7.082  1.3542  0.9882  1.3240
 2964TIP3    H233088   3.914   0.751   7.013  0.9986  1.3669  0.3270
 2965TIP3   OH233089   5.629   0.830   6.902 -0.4811 -0.2710 -0.2048
 2965TIP3    H133090   5.567   0.870   6.841 -1.2554  0.0290  0.7666
 2965TIP3    H233091   5.697   0.793   6.845 -1.2278 -0.0821 -1.2512
 2966TIP3   OH233092   7.185   3.123   9.172 -0.1720 -0.2746 -0.2312
 2966TIP3    H133093   7.207   3.054   9.235 -1.0987 -2.1313 -1.8156
 2966TIP3    H233094   7.107   3.090   9.127  0.2918  1.0641 -2.1566
 2967TIP3   OH233095   6.513   3.340   7.683  0.5222 -0.0142 -0.1767
 2967TIP3    H133096   6.540   3.409   7.623  1.1298  0.3582  0.5162
 2967TIP3    H233097   6.420   3.355   7.697  0.7687  0.9892  0.3960
 2968TIP3   OH233098   7.195   1.115   8.397  0.0360 -0.4701  0.1267
 2968TIP3    H133099   7.140   1.169   8.341  0.8538 -1.2962 -1.5423
 2968TIP3    H233100   7.187   1.155   8.484 -0.3486  1.5742 -0.7913
 2969TIP3   OH233101   4.561   6.649   9.463 -0.1687 -0.0203  0.4340
 2969TIP3    H133102   4.636   6.610   9.416  1.2860  0.4489  2.2416
 2969TIP3    H233103   4.515   6.575   9.501 -0.6224 -0.3095 -0.6308
 2970TIP3   OH233104   6.073   6.136   8.537 -0.7218  0.9357  0.6385
 2970TIP3    H133105   6.016   6.163   8.609 -2.3669  1.4193 -0.7996
 2970TIP3    H233106   6.015   6.124   8.462  0.7467 -0.8974 -0.3117
 2971TIP3   OH233107   2.454   3.620   9.097  0.4619  0.1916 -0.0368
 2971TIP3    H133108   2.421   3.606   9.186  1.0800 -1.4240 -0.0273
 2971TIP3    H233109   2.517   3.549   9.084  2.2118  1.8173 -0.8880
 2972TIP3   OH233110   4.097   5.321   8.080  0.4049  0.3680  0.4632
 2972TIP3    H133111   4.068   5.245   8.029 -1.3065  0.7913  0.7687
 2972TIP3    H233112   4.114   5.388   8.014  1.9715 -0.2503  0.1875
 2973TIP3   OH233113   4.690   0.394   7.299  0.2643  0.2653 -0.7043
 2973TIP3    H133114   4.643   0.323   7.254 -0.1960  0.3973 -0.4379
 2973TIP3    H233115   4.778   0.392   7.262  0.2442 -0.4274 -0.7228
 2974TIP3   OH233116   1.742   2.100   8.623  0.3676 -0.0104 -0.1807
 2974TIP3    H133117   1.812   2.143   8.671  1.3777 -0.8565 -0.8455
 2974TIP3    H233118   1.691   2.172   8.584 -0.0307  0.6569  1.4859
 2975TIP3   OH233119   0.386   7.137   9.162  0.1350 -0.2442 -0.1834
 2975TIP3    H133120   0.422   7.209   9.110 -1.5058 -0.7446 -2.1205
 2975TIP3    H233121   0.303   7.171   9.196  0.2466 -0.6075  0.4713
 2976TIP3   OH233122   7.434   2.632   7.750 -0.2985 -0.2311 -0.1869
 2976TIP3    H133123   7.494   2.707   7.751 -2.9991  2.1137 -1.4088
 2976TIP3    H233124   7.431   2.606   7.658  0.0369 -1.4097  0.1196
 2977TIP3   OH233125   5.384   0.986   7.801  0.1897  0.7602  0.5244
 2977TIP3    H133126   5.416   0.940   7.878  1.5339 -0.0697 -0.4986
 2977TIP3    H233127   5.304   1.030   7.831 -0.7973 -1.6871  1.7080
 2978TIP3   OH233128   0.018   4.746   8.526 -0.0621 -0.1496  0.2075
 2978TIP3    H133129   0.076   4.751   8.602 -0.0260  0.0993  0.1620
 2978TIP3    H233130   0.073   4.771   8.452 -0.1659 -0.1399  0.1329
 2979TIP3   OH233131   6.576   2.800   7.994 -0.5607  0.0374 -0.0891
 2979TIP3    H133132   6.574   2.778   8.087 -0.0905  3.1159  0.7447
 2979TIP3    H233133   6.608   2.720   7.951 -1.7658 -1.7928  2.2142
 2980TIP3   OH233134   0.953   2.970   9.544 -0.0358 -0.7075 -0.2881
 2980TIP3    H133135   0.972   2.879   9.567  0.0096 -0.5929  0.1283
 2980TIP3    H233136   0.862   2.969   9.516 -0.1904 -0.7933  0.2020
 2981TIP3   OH233137   5.453   3.981   7.383 -0.4292 -0.7655 -0.5829
 2981TIP3    H133138   5.440   4.053   7.321 -0.7271 -0.5436 -0.2671
 2981TIP3    H233139   5.532   3.936   7.352  0.1050  0.0578 -0.4470
 2982TIP3   OH233140   5.401   3.972   8.073 -0.5612  0.2753 -0.5800
 2982TIP3    H133141   5.308   3.950   8.082 -0.7432  1.2501  0.0770
 2982TIP3    H233142   5.443   3.925   8.145 -0.8134  1.2537  0.2296
 2983TIP3   OH233143   3.060   4.336   9.254  0.3073 -0.2413  0.1889
 2983TIP3    H133144   3.130   4.399   9.273  1.4235 -1.0999 -0.9427
 2983TIP3    H233145   3.076   4.309   9.164 -0.8819 -1.2407  0.2568
 2984TIP3   OH233146   0.758   7.670   7.942  0.2083  0.7120  0.3638
 2984TIP3    H133147   0.740   7.608   7.871 -3.4643 -0.8656  2.4249
 2984TIP3    H233148   0.719   7.752   7.913  0.7093  0.7228 -0.3120
 2985TIP3   OH233149   6.936   0.898   8.486  0.4087  0.0608  0.4612
 2985TIP3    H133150   6.881   0.835   8.532 -0.5178  0.6195  0.1572
 2985TIP3    H233151   6.888   0.981   8.493  0.6461  0.3298 -0.7745
 2986TIP3   OH233152   0.707   0.572   6.978 -0.2852  0.0095 -0.9036
 2986TIP3    H133153   0.678   0.662   6.993 -0.5386  0.1311 -2.0024
 2986TIP3    H233154   0.627   0.527   6.950 -0.1663 -0.5727 -0.3142
 2987TIP3   OH233155   2.803   1.608   7.127  0.1201  0.3530  0.3464
 2987TIP3    H133156   2.783   1.523   7.087  0.6514  0.6215 -0.5079
 2987TIP3    H233157   2.756   1.671   7.073  0.2687  0.6614  0.5802
 2988TIP3   OH233158   2.004   2.696   8.547  0.4514  0.2652  0.2178
 2988TIP3    H133159   2.095   2.665   8.551  0.4668  0.4464  2.8649
 2988TIP3    H233160   2.005   2.763   8.478  2.8748  1.8143  1.6057
 2989TIP3   OH233161   2.396   3.605   6.859  0.2753 -0.0693 -0.8360
 2989TIP3    H133162   2.356   3.623   6.944  1.3530 -1.5362  0.0231
 2989TIP3    H233163   2.485   3.576   6.880  1.7862  2.7606 -2.6448
 2990TIP3   OH233164   0.715   1.023   8.281 -0.3100  0.9879  0.2351
 2990TIP3    H133165   0.734   1.117   8.288 -0.0410  0.8558  1.7210
 2990TIP3    H233166   0.774   0.982   8.345  0.5670 -0.3617 -1.3760
 2991TIP3   OH233167   4.985   0.347   8.943  0.2309 -0.4391 -0.1422
 2991TIP3    H133168   5.059   0.291   8.917  1.0297  0.4835  0.0686
 2991TIP3    H233169   4.912   0.318   8.889  0.9741 -0.7932 -0.9740
 2992TIP3   OH233170   2.959   0.599   8.215  0.0181 -0.1145 -0.2008
 2992TIP3    H133171   2.899   0.664   8.253  1.2201  0.3614  0.9991
 2992TIP3    H233172   3.044   0.643   8.215  0.5712 -1.1459 -0.8455
 2993TIP3   OH233173   4.158   6.148   7.864 -0.0070 -0.2268  0.4565
 2993TIP3    H133174   4.162   6.241   7.882 -0.6672 -0.0359 -0.3342
 2993TIP3    H233175   4.215   6.135   7.788 -0.0727 -0.4425  0.4416
 2994TIP3   OH233176   0.374   1.178   8.289 -0.5062  0.1352 -0.3307
 2994TIP3    H133177   0.414   1.225   8.362  2.5203 -1.0581 -1.0736
 2994TIP3    H233178   0.374   1.242   8.217  0.3495  0.0735 -0.3931
 2995TIP3   OH233179   7.399   5.508   7.602 -0.4831 -0.0799 -0.0589
 2995TIP3    H133180   7.470   5.571   7.591  2.3072 -2.4629  2.4955
 2995TIP3    H233181   7.436   5.426   7.568 -2.5438 -1.1468  0.1756
 2996TIP3   OH233182   2.388   0.425   9.027  0.3431  0.3135  0.3690
 2996TIP3    H133183   2.356   0.340   8.998  2.7161 -0.0937 -1.3288
 2996TIP3    H233184   2.309   0.479   9.036 -0.9943 -1.3123 -1.0668
 2997TIP3   OH233185   0.800   0.637   6.563 -0.1606 -0.5394 -0.4181
 2997TIP3    H133186   0.720   0.664   6.609  0.1998 -0.6228  0.2745
 2997TIP3    H233187   0.780   0.649   6.470 -1.2697 -1.3121 -0.3060
 2998TIP3   OH233188   2.889   4.357   8.509  0.7565  0.2326 -0.0406
 2998TIP3    H133189   2.848   4.299   8.573  0.2847 -1.0176 -1.4010
 2998TIP3    H233190   2.920   4.297   8.440 -1.0100  1.6759 -2.2148
 2999TIP3   OH233191   4.791   5.660   9.031  0.2705 -0.3218 -0.0975
 2999TIP3    H133192   4.810   5.753   9.041  0.2925 -0.1663 -1.4192
 2999TIP3    H233193   4.866   5.616   9.069  0.5262  0.2081  0.0226
 3000TIP3   OH233194   4.796   2.511   9.153  0.5314  0.4565 -0.1218
 3000TIP3    H133195   4.879   2.474   9.183 -0.8913 -2.0477  1.0672
 3000TIP3    H233196   4.782   2.472   9.067  0.4826  0.6832 -0.2151
 3001TIP3   OH233197   1.241   3.364   7.679  0.2187 -0.0541  0.1564
 3001TIP3    H133198   1.215   3.405   7.596  0.0046 -0.7061 -0.1019
 3001TIP3    H233199   1.246   3.437   7.741  2.1962  0.7224 -0.8442
 3002TIP3   OH233200   2.726   4.590   8.576 -0.5787 -0.5284 -0.0182
 3002TIP3    H133201   2.749   4.497   8.580  1.2302 -0.0578  1.8396
 3002TIP3    H233202   2.718   4.609   8.482 -0.9601 -2.5196 -0.4292
 3003TIP3   OH233203   1.558   5.793   8.476  0.6936  0.2276 -0.0148
 3003TIP3    H133204   1.642   5.838   8.473  0.8650 -0.1264 -1.1115
 3003TIP3    H233205   1.556   5.741   8.395  0.3931 -1.5274  1.0743
 3004TIP3   OH233206   2.676   1.004   9.304 -0.0584  0.2002 -0.6397
 3004TIP3    H133207   2.722   0.926   9.272  0.7619  0.8118 -1.0085
 3004TIP3    H233208   2.743   1.072   9.303 -0.7061  0.8511 -0.0931
 3005TIP3   OH233209   6.735   7.181   8.732  0.1210 -0.3901 -0.1650
 3005TIP3    H133210   6.707   7.127   8.806 -0.5765 -0.0632 -0.1778
 3005TIP3    H233211   6.715   7.128   8.655 -1.5404  0.2660 -0.2330
 3006TIP3   OH233212   0.393   0.546   7.634 -0.0032  0.7347  0.3953
 3006TIP3    H133213   0.476   0.591   7.646 -0.2828  0.9872  1.4202
 3006TIP3    H233214   0.350   0.549   7.719 -0.9892  0.4469 -0.0679
 3007TIP3   OH233215   1.064   2.731   8.632 -0.3449 -0.1815 -0.0883
 3007TIP3    H133216   1.030   2.802   8.577 -0.6329 -0.0618  0.2379
 3007TIP3    H233217   1.007   2.657   8.613 -2.2305  0.6092  2.0593
 3008TIP3   OH233218   5.915   0.155   8.099 -0.4387  0.7865 -0.5510
 3008TIP3    H133219   5.908   0.229   8.160  0.5116  1.7430 -1.5459
 3008TIP3    H233220   6.009   0.149   8.080 -0.1506 -2.2482  1.3162
 3009TIP3   OH233221   0.859   1.345   7.658 -0.7811  0.6242  0.1388
 3009TIP3    H133222   0.890   1.362   7.747 -1.0314  1.3587  0.0967
 3009TIP3    H233223   0.933   1.304   7.614  0.0044  1.9755  0.1528
 3010TIP3   OH233224   2.690   3.856   9.335  0.3623  0.7739 -0.3378
 3010TIP3    H133225   2.654   3.790   9.394 -0.2751  1.2301 -0.2129
 3010TIP3    H233226   2.695   3.811   9.250  1.2851  0.1181  0.0401
 3011TIP3   OH233227   1.931   2.902   9.145  0.1807  0.3892 -0.4132
 3011TIP3    H133228   1.974   2.942   9.069 -0.0476  0.0061 -0.7517
 3011TIP3    H233229   1.987   2.925   9.219  1.7638 -1.2797 -1.0231
 3012TIP3   OH233230   5.116   3.954   8.392  0.2860 -0.0278  0.3514
 3012TIP3    H133231   5.145   3.882   8.335  1.1287  0.0801  0.6340
 3012TIP3    H233232   5.075   4.016   8.332 -0.3116 -0.6694  0.0839
 3013TIP3   OH233233   6.897   5.680   6.948 -0.4048 -0.6137 -0.2446
 3013TIP3    H133234   6.938   5.635   6.874  1.8197  1.6020 -0.4525
 3013TIP3    H233235   6.847   5.751   6.908 -1.3272 -0.9516  0.2693
 3014TIP3   OH233236   1.324   3.215   6.759 -0.0133 -0.3023  0.0815
 3014TIP3    H133237   1.294   3.255   6.677  0.2555  1.2633  0.7023
 3014TIP3    H233238   1.284   3.128   6.760  0.8692 -0.7839 -2.2173
 3015TIP3   OH233239   1.558   7.558   8.822  0.3395 -0.3899 -0.7407
 3015TIP3    H133240   1.522   7.489   8.877  0.4260  0.0770 -0.0924
 3015TIP3    H233241   1.614   7.609   8.880  0.9522 -0.2785 -1.4122
 3016TIP3   OH233242   4.781   1.074   9.033  0.2385 -0.0496  0.2164
 3016TIP3    H133243   4.818   1.148   8.985 -0.5656 -0.0696 -0.4573
 3016TIP3    H233244   4.758   1.109   9.119 -0.1928  0.5041 -0.1215
 3017TIP3   OH233245   3.857   1.050   7.054  0.1691 -0.6208 -0.0921
 3017TIP3    H133246   3.822   1.135   7.082  1.1830 -0.3180  0.2741
 3017TIP3    H233247   3.934   1.071   7.002  0.0749 -1.3035 -0.5285
 3018TIP3   OH233248   4.027   5.881   7.544 -0.5716 -0.3830 -0.9309
 3018TIP3    H133249   4.023   5.974   7.519 -0.8847 -0.6000 -1.7111
 3018TIP3    H233250   4.120   5.864   7.556 -0.5675  0.2577  0.1338
 3019TIP3   OH233251   7.440   2.423   6.579  0.0779 -0.3797 -0.0087
 3019TIP3    H133252   7.434   2.329   6.561 -0.2059 -0.0109 -2.1190
 3019TIP3    H233253   7.375   2.462   6.521  0.7397  1.1768  0.2659
 3020TIP3   OH233254   5.758   6.921   8.973 -0.3032  0.4833 -0.2420
 3020TIP3    H133255   5.672   6.919   8.932  0.4067 -1.6716 -1.8340
 3020TIP3    H233256   5.814   6.966   8.909 -0.0685  1.1442  0.4153
 3021TIP3   OH233257   6.579   4.421   8.369 -0.1149 -0.3591  0.0250
 3021TIP3    H133258   6.624   4.356   8.424 -0.0440  0.6004  1.1504
 3021TIP3    H233259   6.493   4.383   8.354 -0.2943 -0.4672  1.1860
 3022TIP3   OH233260   7.585   1.549   9.387 -0.3837  0.6935  0.1662
 3022TIP3    H133261   7.562   1.578   9.299 -1.0175  0.2057  0.1594
 3022TIP3    H233262   7.571   1.454   9.385 -0.8936  0.7417  0.9286
 3023TIP3   OH233263   4.207   2.860   7.831  0.3014 -0.1838 -0.0007
 3023TIP3    H133264   4.266   2.796   7.791  0.7603  0.0271  0.3225
 3023TIP3    H233265   4.261   2.903   7.898  0.1758  0.9399 -0.5990
 3024TIP3   OH233266   6.883   2.035   7.569  0.1107  0.0983  0.4099
 3024TIP3    H133267   6.935   2.048   7.489  0.6926  0.6868  0.8788
 3024TIP3    H233268   6.933   2.078   7.638 -0.3701 -0.4383  1.1096
 3025TIP3   OH233269   1.342   6.809   8.437  0.2504  0.1138 -0.0550
 3025TIP3    H133270   1.402   6.875   8.403  0.1175  1.0716  1.4675
 3025TIP3    H233271   1.256   6.837   8.405  0.3695 -0.1704 -0.6359
 3026TIP3   OH233272   5.861   0.185   7.551 -0.5181  0.4633 -0.5773
 3026TIP3    H133273   5.953   0.156   7.549 -0.8343 -0.6329 -0.1027
 3026TIP3    H233274   5.840   0.203   7.459  0.4295  1.6043 -0.5906
 3027TIP3   OH233275   3.155   4.269   8.998 -0.2476  0.6640 -0.5709
 3027TIP3    H133276   3.126   4.320   8.922  0.8390  2.3896  0.1223
 3027TIP3    H233277   3.238   4.230   8.971 -0.9853 -0.6422 -1.0341
 3028TIP3   OH233278   4.945   6.280   9.327 -0.9777  0.1774  0.1319
 3028TIP3    H133279   4.963   6.357   9.382 -0.1727  1.4544 -1.7990
 3028TIP3    H233280   5.030   6.237   9.319 -1.1852 -0.2556  0.2269
 3029TIP3   OH233281   7.471   0.548   9.094  0.4681 -0.0211 -0.0092
 3029TIP3    H133282   7.500   0.492   9.022 -0.4993 -0.5276 -0.0224
 3029TIP3    H233283   7.548   0.600   9.117  1.1707 -0.8338 -0.4865
 3030TIP3   OH233284   5.581   2.394   8.689  0.1104  0.4257  0.6088
 3030TIP3    H133285   5.598   2.327   8.755  1.6454  0.7421  0.5811
 3030TIP3    H233286   5.621   2.474   8.724  1.2633  0.5270 -0.8121
 3031TIP3   OH233287   1.878   1.953   6.161  0.1004 -0.1360  0.8020
 3031TIP3    H133288   1.920   2.035   6.136 -0.0813 -0.4578 -0.6387
 3031TIP3    H233289   1.944   1.886   6.142 -0.8526 -0.6062 -1.1021
 3032TIP3   OH233290   2.588   5.641   7.589  0.4279  0.8003 -0.1926
 3032TIP3    H133291   2.581   5.630   7.494  0.2649  3.4191 -0.5755
 3032TIP3    H233292   2.525   5.579   7.625  3.2032 -3.0909 -1.4731
 3033TIP3   OH233293   3.401   4.193   8.903  0.4293 -0.2927 -0.0821
 3033TIP3    H133294   3.377   4.111   8.860  2.0334  0.2332 -2.0864
 3033TIP3    H233295   3.493   4.182   8.927  0.3310  0.4993  0.6948
 3034TIP3   OH233296   2.583   6.172   6.926 -0.2737  0.5306  0.1437
 3034TIP3    H133297   2.596   6.080   6.900 -1.5967  0.0573  1.0713
 3034TIP3    H233298   2.668   6.198   6.962  0.0396 -0.4218  0.1412
 3035TIP3   OH233299   1.635   1.080   8.073  0.5357  0.3727 -0.3407
 3035TIP3    H133300   1.637   1.143   8.002  0.4466  0.4582 -0.2684
 3035TIP3    H233301   1.610   0.997   8.032  0.7382  0.3659 -0.4498
 3036TIP3   OH233302   4.917   5.624   8.298 -0.8539  0.2661 -0.3210
 3036TIP3    H133303   4.892   5.532   8.309 -0.2398  0.1128 -0.1752
 3036TIP3    H233304   4.835   5.672   8.307 -1.0788 -0.2185  0.2765
 3037TIP3   OH233305   0.371   4.353   7.347 -0.0554 -0.2212  0.3733
 3037TIP3    H133306   0.404   4.423   7.404  2.5901 -1.3999  0.4403
 3037TIP3    H233307   0.333   4.399   7.272  0.4865  1.2948  0.9885
 3038TIP3   OH233308   0.374   1.474   7.180 -0.1028  0.9217  0.3060
 3038TIP3    H133309   0.325   1.550   7.212  0.7337  1.3361  0.6246
 3038TIP3    H233310   0.356   1.472   7.086 -3.3275 -0.8461  0.8107
 3039TIP3   OH233311   3.402   4.049   6.841  0.5009 -0.5269  0.1691
 3039TIP3    H133312   3.382   4.133   6.882 -1.1044 -0.9401  0.3138
 3039TIP3    H233313   3.473   4.068   6.780  0.5878  0.8001  0.6586
 3040TIP3   OH233314   6.225   2.678   9.269 -0.5047  0.5790 -0.1213
 3040TIP3    H133315   6.293   2.706   9.209 -0.1083 -0.5356 -0.2228
 3040TIP3    H233316   6.223   2.583   9.261  0.0775  0.2990  2.1567
 3041TIP3   OH233317   2.140   6.845   6.755 -0.4806  0.1863 -0.0941
 3041TIP3    H133318   2.227   6.832   6.718 -0.9478 -0.9732 -0.8608
 3041TIP3    H233319   2.084   6.785   6.706 -2.0146  1.9966 -0.6540
 3042TIP3   OH233320   2.707   6.350   9.185 -0.5066  0.2266  0.2727
 3042TIP3    H133321   2.712   6.431   9.237  0.4102  1.0842 -1.0801
 3042TIP3    H233322   2.786   6.302   9.210 -0.2630  0.4606 -0.0464
 3043TIP3   OH233323   4.936   6.841   8.244 -0.0705  0.4884 -0.4786
 3043TIP3    H133324   4.941   6.788   8.323  1.8407 -0.6472 -1.3015
 3043TIP3    H233325   5.007   6.905   8.253  0.0807  0.4371 -1.2131
 3044TIP3   OH233326   4.523   4.768   7.031  0.4770  0.2332 -0.1971
 3044TIP3    H133327   4.472   4.847   7.013  0.7809  0.0992 -1.7948
 3044TIP3    H233328   4.614   4.796   7.023  0.6477  0.1057  1.0374
 3045TIP3   OH233329   6.179   4.582   8.659  0.1734  0.3519  0.3337
 3045TIP3    H133330   6.200   4.501   8.612 -2.0714 -0.1951  0.1373
 3045TIP3    H233331   6.233   4.579   8.737  0.0535 -1.4418  0.3979
 3046TIP3   OH233332   2.455   2.818   6.733 -0.2252  0.4910 -0.3927
 3046TIP3    H133333   2.398   2.809   6.657  0.7151 -1.9499 -0.9036
 3046TIP3    H233334   2.400   2.793   6.807 -0.0460 -1.3995 -0.8316
 3047TIP3   OH233335   6.904   1.903   7.292  0.3062 -0.1833  0.4851
 3047TIP3    H133336   6.922   1.897   7.198  0.6333  2.4582  0.3008
 3047TIP3    H233337   6.956   1.833   7.331  0.7594 -0.8489 -1.2243
 3048TIP3   OH233338   0.111   3.496   8.634  0.0558  0.0718  0.3006
 3048TIP3    H133339   0.204   3.516   8.632 -0.4288  2.6143 -0.0569
 3048TIP3    H233340   0.089   3.469   8.545  0.0648  1.6515 -0.2037
 3049TIP3   OH233341   5.126   6.671   9.022  0.6148  0.1903 -0.3337
 3049TIP3    H133342   5.152   6.589   9.063  1.1740 -0.4427 -1.8962
 3049TIP3    H233343   5.202   6.698   8.970 -0.4325  0.3499 -1.8518
 3050TIP3   OH233344   0.074   6.240   8.316  0.0134 -0.2066  0.3938
 3050TIP3    H133345   0.006   6.258   8.380  0.1023  1.3216  0.0971
 3050TIP3    H233346   0.153   6.224   8.369  0.0432  0.8435  0.6921
 3051TIP3   OH233347   5.110   7.591   7.001 -0.8567 -0.3573  0.5881
 3051TIP3    H133348   5.201   7.617   6.989 -0.0153 -1.7194  3.2082
 3051TIP3    H233349   5.094   7.525   6.933  0.8848 -1.7350  1.4369
 3052TIP3   OH233350   0.403   5.855   9.103  0.4984 -0.1804  0.0044
 3052TIP3    H133351   0.364   5.933   9.143  3.5131  1.1829  0.4982
 3052TIP3    H233352   0.467   5.889   9.041  1.4378 -2.2880 -0.2547
 3053TIP3   OH233353   5.751   6.881   8.549  0.2259  0.3746 -0.0511
 3053TIP3    H133354   5.755   6.858   8.456  0.0222  0.3788 -0.0616
 3053TIP3    H233355   5.831   6.932   8.565  0.1952  0.4863 -0.2539
 3054TIP3   OH233356   0.412   3.944   7.841 -0.2536  0.5792  0.0923
 3054TIP3    H133357   0.434   3.887   7.915  0.0961  0.6577  0.0530
 3054TIP3    H233358   0.412   4.032   7.878  0.9438  0.7267 -0.2012
 3055TIP3   OH233359   3.380   0.164   9.759  0.6405  0.0808 -0.0918
 3055TIP3    H133360   3.397   0.101   9.689  1.1706  1.6432 -1.4363
 3055TIP3    H233361   3.288   0.188   9.748  0.6218  0.0504 -0.0048
 3056TIP3   OH233362   4.253   2.576   8.228 -0.0705  0.2754 -0.0102
 3056TIP3    H133363   4.202   2.554   8.150 -1.2129  0.7014  0.5915
 3056TIP3    H233364   4.337   2.608   8.193 -0.6299  0.6368 -1.0711
 3057TIP3   OH233365   5.274   7.533   7.958 -0.3598  0.0102 -0.0766
 3057TIP3    H133366   5.348   7.475   7.942  0.4836  1.0152  0.0331
 3057TIP3    H233367   5.244   7.511   8.046  2.1607  1.9874  1.4273
 3058TIP3   OH233368   5.526   0.505   8.718 -0.4209  0.1751  0.0802
 3058TIP3    H133369   5.470   0.435   8.685  0.0094 -0.9612  1.6271
 3058TIP3    H233370   5.500   0.517   8.809 -1.5494  3.1836 -0.5246
 3059TIP3   OH233371   7.338   3.770   7.858 -0.4602 -0.9247 -0.3861
 3059TIP3    H133372   7.420   3.720   7.862  0.0899 -0.0335 -0.3764
 3059TIP3    H233373   7.289   3.729   7.786 -0.0015 -1.4451 -0.4131
 3060TIP3   OH233374   2.098   4.116   7.175 -0.4253 -0.8435 -0.5636
 3060TIP3    H133375   2.028   4.163   7.131 -1.8059 -1.4998  0.8533
 3060TIP3    H233376   2.101   4.154   7.263 -0.2232 -2.0463 -0.0282
 3061TIP3   OH233377   4.753   3.782   7.547 -0.2177  0.8220 -0.4938
 3061TIP3    H133378   4.769   3.875   7.531  1.7183  0.5492 -0.4071
 3061TIP3    H233379   4.659   3.771   7.533 -0.3876  2.6697 -1.0787
 3062TIP3   OH233380   5.573   5.821   6.987  0.2542 -0.0296  0.2783
 3062TIP3    H133381   5.614   5.778   7.062 -0.0252 -0.5153  0.1625
 3062TIP3    H233382   5.609   5.909   6.987  3.0393 -1.0628 -1.1631
 3063TIP3   OH233383   0.393   3.152   9.076  0.2744  0.1145  0.0955
 3063TIP3    H133384   0.392   3.091   9.001 -0.1510 -1.1318  1.0727
 3063TIP3    H233385   0.303   3.183   9.083  0.0624 -0.6050  0.7202
 3064TIP3   OH233386   2.810   4.693   7.550  0.0664 -0.3821 -0.2138
 3064TIP3    H133387   2.902   4.676   7.567 -0.1133  0.3231  1.6527
 3064TIP3    H233388   2.795   4.782   7.579 -0.8678  0.1468 -2.0940
 3065TIP3   OH233389   1.853   1.834   7.104 -0.1726 -0.1379  0.2961
 3065TIP3    H133390   1.790   1.829   7.033  0.1985 -0.3486 -0.0251
 3065TIP3    H233391   1.826   1.909   7.157 -0.8530 -0.3979  0.3202
 3066TIP3   OH233392   2.691   0.225   8.359  0.5596 -0.0002  0.1728
 3066TIP3    H133393   2.625   0.200   8.423 -0.0068 -0.9814 -0.7646
 3066TIP3    H233394   2.773   0.188   8.392 -0.2660 -3.4078 -1.2419
 3067TIP3   OH233395   4.608   7.438   7.306 -0.1290  0.0126 -0.2027
 3067TIP3    H133396   4.639   7.446   7.216  0.9950 -0.0884  0.1676
 3067TIP3    H233397   4.539   7.371   7.301  0.7989 -0.9320 -0.7829
 3068TIP3   OH233398   3.058   7.459   8.381 -0.1572  0.4688 -0.4943
 3068TIP3    H133399   3.148   7.477   8.407 -0.1798 -0.2008  0.0562
 3068TIP3    H233400   3.065   7.401   8.305 -0.1215  0.8521 -0.7873
 3069TIP3   OH233401   5.805   3.324   7.977  0.3315 -0.2378  0.2399
 3069TIP3    H133402   5.769   3.236   7.979  0.3224 -0.2632 -0.7052
 3069TIP3    H233403   5.728   3.381   7.965  0.5788 -0.3201 -2.2281
 3070TIP3   OH233404   0.392   3.144   7.321  0.6747  0.7562  0.0622
 3070TIP3    H133405   0.423   3.215   7.376 -0.5676  1.3965 -0.0275
 3070TIP3    H233406   0.305   3.172   7.291 -0.1538 -1.0657  0.5665
 3071TIP3   OH233407   5.009   5.965   8.056  0.3130 -0.5281 -0.2301
 3071TIP3    H133408   4.942   5.953   8.122 -1.3240 -1.6313 -1.9870
 3071TIP3    H233409   5.091   5.946   8.102 -0.8810 -2.9428  1.1021
 3072TIP3   OH233410   0.081   0.638   8.794  0.5844 -0.4402 -0.2894
 3072TIP3    H133411   0.145   0.667   8.859  2.1619 -0.5259 -1.7377
 3072TIP3    H233412   0.019   0.710   8.788 -1.8103 -1.8358  3.8794
 3073TIP3   OH233413   7.284   1.609   7.146 -0.3982  0.5014  0.1838
 3073TIP3    H133414   7.289   1.694   7.102 -2.2544  0.9828  0.8067
 3073TIP3    H233415   7.204   1.570   7.112 -0.6452 -0.1060  1.4188
 3074TIP3   OH233416   5.083   2.884   8.079 -0.0438 -0.2571 -0.9378
 3074TIP3    H133417   5.046   2.972   8.074 -0.2466 -0.3690 -1.4906
 3074TIP3    H233418   5.152   2.890   8.145  0.3309  0.4596 -1.3838
 3075TIP3   OH233419   5.701   0.598   7.612  0.1086 -0.3587  0.3028
 3075TIP3    H133420   5.774   0.586   7.552 -0.9915  0.9537 -1.4011
 3075TIP3    H233421   5.692   0.692   7.621 -1.1665 -0.4961  0.7257
 3076TIP3   OH233422   2.577   2.384   9.216 -0.1644  0.1769  0.5128
 3076TIP3    H133423   2.638   2.395   9.144  1.4052 -0.9445  1.6216
 3076TIP3    H233424   2.514   2.455   9.205 -0.2190 -0.1863 -2.1575
 3077TIP3   OH233425   1.273   4.566   7.588  0.0466  0.0243  0.5252
 3077TIP3    H133426   1.245   4.479   7.559  1.9002 -0.1779 -0.7888
 3077TIP3    H233427   1.293   4.555   7.681  1.2842 -1.2631  0.1447
 3078TIP3   OH233428   2.095   4.797   6.929  0.0421 -0.2957 -0.5215
 3078TIP3    H133429   2.139   4.881   6.936 -2.2672  0.9006  0.9164
 3078TIP3    H233430   2.025   4.812   6.865 -0.9548 -0.8077  0.4100
 3079TIP3   OH233431   1.267   3.019   7.269  0.0032  0.3366 -0.1316
 3079TIP3    H133432   1.271   3.060   7.183  0.4434 -0.3631 -0.4551
 3079TIP3    H233433   1.173   3.010   7.287 -0.1450 -1.4657 -1.5125
 3080TIP3   OH233434   6.374   1.243   8.252 -0.2873  0.3342  0.4843
 3080TIP3    H133435   6.388   1.196   8.334 -2.6357 -2.2783 -0.4437
 3080TIP3    H233436   6.461   1.250   8.213  0.7362  0.7623  2.7121
 3081TIP3   OH233437   2.828   6.254   7.020  0.0288  0.2660  0.4094
 3081TIP3    H133438   2.914   6.220   6.995 -0.3406  0.4070 -1.1999
 3081TIP3    H233439   2.846   6.341   7.055  0.4527  0.9210 -1.3390
 3082TIP3   OH233440   7.649   5.486   8.039  0.4003  0.1055 -0.3619
 3082TIP3    H133441   7.713   5.556   8.029  1.1571 -0.5755 -0.4118
 3082TIP3    H233442   7.588   5.518   8.105  1.2440  0.4636  0.2573
 3083TIP3   OH233443   0.510   1.591   7.953  0.2415  0.4265  0.3754
 3083TIP3    H133444   0.503   1.648   8.030 -0.1868 -0.3159  0.8948
 3083TIP3    H233445   0.501   1.502   7.988 -0.1588  0.0871 -0.5624
 3084TIP3   OH233446   7.596   6.612   9.233  0.1266 -0.4516  0.5746
 3084TIP3    H133447   7.609   6.680   9.298 -0.4673 -1.7811  2.1520
 3084TIP3    H233448   7.654   6.636   9.161  0.8657  1.0268  1.6184
 3085TIP3   OH233449   0.165   3.838   8.544 -0.0412 -0.2777 -0.0941
 3085TIP3    H133450   0.204   3.896   8.610 -0.2200  1.2732 -1.3051
 3085TIP3    H233451   0.078   3.818   8.578  0.2171 -0.2773  0.5873
 3086TIP3   OH233452   1.846   2.939   8.709 -0.3672 -0.3216  0.3770
 3086TIP3    H133453   1.785   3.011   8.724 -1.0620 -0.7266 -0.4514
 3086TIP3    H233454   1.932   2.981   8.703 -0.8612  0.5526 -0.9787
 3087TIP3   OH233455   4.852   4.339   7.568  0.5138  0.3282 -0.4891
 3087TIP3    H133456   4.826   4.419   7.522  0.8796  0.6506 -0.1516
 3087TIP3    H233457   4.810   4.347   7.654  1.8957  0.9798  0.1564
 3088TIP3   OH233458   3.710   0.610   9.158  0.4928 -0.0803  0.2054
 3088TIP3    H133459   3.624   0.570   9.142 -0.8519  2.1571  1.2461
 3088TIP3    H233460   3.694   0.704   9.149  3.2660  0.3548 -1.2753
 3089TIP3   OH233461   6.216   2.398   8.154  1.0967  0.4038 -0.2085
 3089TIP3    H133462   6.128   2.389   8.190  0.5356 -0.9418 -1.7897
 3089TIP3    H233463   6.237   2.491   8.167 -0.3558  0.6574  0.6085
 3090TIP3   OH233464   3.463   5.249   9.006  0.0086  0.2500 -0.1421
 3090TIP3    H133465   3.498   5.246   8.917 -0.5523  1.7566 -0.4461
 3090TIP3    H233466   3.447   5.342   9.023 -0.3848 -0.0518  1.3475
 3091TIP3   OH233467   3.540   6.380   8.926 -0.5363  0.1480 -0.1592
 3091TIP3    H133468   3.557   6.336   9.009  0.8580 -1.9757 -1.4648
 3091TIP3    H233469   3.515   6.469   8.951  1.2945  0.0521  2.4907
 3092TIP3   OH233470   5.409   6.290   8.119 -0.4748 -0.0472  0.3075
 3092TIP3    H133471   5.404   6.385   8.130 -0.9633 -0.1266  0.7846
 3092TIP3    H233472   5.344   6.255   8.179 -2.6411 -0.5418 -2.1330
 3093TIP3   OH233473   4.252   6.845   7.538 -0.0207  0.1081 -0.1335
 3093TIP3    H133474   4.311   6.839   7.463  0.8704  1.3047  0.4433
 3093TIP3    H233475   4.193   6.917   7.517 -0.9583 -0.7361 -0.4678
 3094TIP3   OH233476   0.954   4.333   9.071  0.1292  0.5815 -0.3876
 3094TIP3    H133477   0.937   4.427   9.080 -1.7700  0.1449  1.4875
 3094TIP3    H233478   1.022   4.314   9.137  0.4879  0.6258 -0.7421
 3095TIP3   OH233479   1.101   1.599   8.439 -0.1801  0.0720  0.2079
 3095TIP3    H133480   1.157   1.592   8.517  0.3120  1.2654 -0.0217
 3095TIP3    H233481   1.013   1.607   8.475 -0.0196  0.0385  0.6226
 3096TIP3   OH233482   0.454   0.003   7.853 -0.3236 -0.1814 -0.3769
 3096TIP3    H133483   0.543   0.014   7.817 -0.1650  0.7672  0.2777
 3096TIP3    H233484   0.418   0.092   7.855 -0.9382 -0.4383  0.2429
 3097TIP3   OH233485   0.364   5.072   6.826  0.0637  0.2040  0.5587
 3097TIP3    H133486   0.296   5.110   6.771 -0.8275 -0.7002  0.9914
 3097TIP3    H233487   0.347   4.978   6.824  0.1345  0.1191  2.1670
 3098TIP3   OH233488   2.958   6.891   8.622 -0.3417  0.4610 -0.5062
 3098TIP3    H133489   3.031   6.934   8.578  0.1185  0.2087  0.0026
 3098TIP3    H233490   2.929   6.824   8.561  2.4728 -2.1975  0.8591
 3099TIP3   OH233491   3.739   6.393   7.955  0.4251 -0.4634 -0.3286
 3099TIP3    H133492   3.788   6.334   7.898 -1.2206 -1.3411 -0.9007
 3099TIP3    H233493   3.766   6.368   8.043  0.7101 -1.1908 -0.6114
 3100TIP3   OH233494   6.668   6.059   8.064  0.1257 -0.0436  0.0078
 3100TIP3    H133495   6.696   5.982   8.014  0.6558 -0.6147  1.1593
 3100TIP3    H233496   6.647   6.025   8.151 -2.5051  0.6269 -0.2700
 3101TIP3   OH233497   3.115   4.771   8.402  0.0565  0.1102 -0.1314
 3101TIP3    H133498   3.164   4.709   8.348  0.9279  1.2360 -0.6719
 3101TIP3    H233499   3.097   4.845   8.343  1.2387  1.4811  1.1328
 3102TIP3   OH233500   5.266   3.865   9.187 -0.5189 -0.5413  0.1800
 3102TIP3    H133501   5.189   3.809   9.180 -0.3785 -0.6456 -0.5724
 3102TIP3    H233502   5.316   3.849   9.107 -0.6669  0.9550 -0.2541
 3103TIP3   OH233503   4.818   1.226   8.604 -0.5982 -0.1025  0.1796
 3103TIP3    H133504   4.829   1.162   8.674 -0.0972  0.4225  0.5860
 3103TIP3    H233505   4.735   1.270   8.625  0.4443  1.3416  1.5202
 3104TIP3   OH233506   7.327   2.956   7.235 -0.3403  0.2873  0.3007
 3104TIP3    H133507   7.269   3.031   7.228  0.6092  0.9324 -1.2218
 3104TIP3    H233508   7.312   2.906   7.154  1.6017  0.8063 -0.4364
 3105TIP3   OH233509   5.697   7.415   7.357 -0.1385  0.0162 -0.4942
 3105TIP3    H133510   5.672   7.369   7.277  0.6221 -1.3414  0.0149
 3105TIP3    H233511   5.723   7.346   7.418 -1.5634  0.9319  1.2613
 3106TIP3   OH233512   4.314   0.489   8.343  0.4642  0.2274 -0.1995
 3106TIP3    H133513   4.365   0.490   8.262 -0.4943 -1.5268 -0.8795
 3106TIP3    H233514   4.241   0.430   8.325 -1.3986  2.0221  0.9964
 3107TIP3   OH233515   0.490   1.321   8.078 -0.1565 -0.2242 -0.8232
 3107TIP3    H133516   0.438   1.276   8.012  1.1310 -0.0663 -1.9914
 3107TIP3    H233517   0.562   1.261   8.096 -0.8883 -0.6051  1.0431
 3108TIP3   OH233518   1.697   2.676   7.948 -0.5390  0.2972  0.5690
 3108TIP3    H133519   1.709   2.583   7.929 -0.9585 -0.1029  2.0579
 3108TIP3    H233520   1.702   2.681   8.044 -0.3876  1.8339  0.5014
 3109TIP3   OH233521   4.590   3.242   8.290 -0.0746  0.0711 -0.6020
 3109TIP3    H133522   4.616   3.155   8.320  0.1588  0.8335  1.5105
 3109TIP3    H233523   4.666   3.274   8.241  1.7799  0.8802  2.5552
 3110TIP3   OH233524   4.548   4.846   6.730  0.0941 -0.4104 -0.9225
 3110TIP3    H133525   4.506   4.862   6.814  0.2145  0.2428 -0.9764
 3110TIP3    H233526   4.602   4.924   6.715  0.6257 -0.8333 -1.2725
 3111TIP3   OH233527   4.104   7.594   7.416  0.2714  0.1520  0.0619
 3111TIP3    H133528   4.187   7.546   7.421  0.5767  0.6384 -0.2804
 3111TIP3    H233529   4.129   7.684   7.397 -0.4456 -0.2448 -3.3522
 3112TIP3   OH233530   7.606   0.513   8.371 -0.0465 -0.1196 -0.2253
 3112TIP3    H133531   7.524   0.558   8.392 -1.0326 -1.3706 -1.2013
 3112TIP3    H233532   7.586   0.420   8.383  1.7567 -0.3777  1.1720
 3113TIP3   OH233533   6.323   2.172   6.546  0.0527 -0.2624  0.4756
 3113TIP3    H133534   6.384   2.100   6.564  1.9363  1.1037 -0.1155
 3113TIP3    H233535   6.237   2.130   6.542  1.0474 -2.4341  0.3682
 3114TIP3   OH233536   4.300   7.380   7.523 -0.8693  0.1772  0.3267
 3114TIP3    H133537   4.215   7.357   7.558 -0.3656 -0.9138  0.8758
 3114TIP3    H233538   4.351   7.299   7.527  0.1878  0.7992 -0.0118
 3115TIP3   OH233539   3.593   2.042   9.031  0.3996 -0.1869 -0.0900
 3115TIP3    H133540   3.548   1.975   9.082 -2.0624  2.1317  1.0195
 3115TIP3    H233541   3.678   2.052   9.075  1.0159 -2.7340 -0.5412
 3116TIP3   OH233542   5.105   4.910   9.008  0.4099  0.0410  0.0339
 3116TIP3    H133543   5.050   4.834   9.023 -0.7315  1.0877  1.3181
 3116TIP3    H233544   5.092   4.930   8.915  0.0846 -0.8178 -0.1187
 3117TIP3   OH233545   5.599   5.395   9.186  0.1281 -0.0531  0.0510
 3117TIP3    H133546   5.535   5.463   9.209 -0.0166 -0.6506  1.5885
 3117TIP3    H233547   5.551   5.336   9.128  0.2260  1.0662 -1.2141
 3118TIP3   OH233548   1.913   1.565   8.308 -0.0618  0.0745  0.5727
 3118TIP3    H133549   1.957   1.623   8.370  0.8817 -0.0687  0.0588
 3118TIP3    H233550   1.921   1.478   8.347  0.4261  0.0009  0.3156
 3119TIP3   OH233551   4.769   5.028   8.266  0.0888 -0.0983 -0.4194
 3119TIP3    H133552   4.740   5.098   8.207 -0.9483  0.5649  0.8166
 3119TIP3    H233553   4.864   5.023   8.252 -0.0081  0.6374 -1.4870
 3120TIP3   OH233554   7.026   7.052   7.397 -0.1310 -0.0656 -0.1449
 3120TIP3    H133555   7.080   7.079   7.322  1.3742 -0.7936  0.6421
 3120TIP3    H233556   7.052   6.962   7.415 -0.9318 -0.1150  0.8576
 3121TIP3   OH233557   2.078   1.450   7.433 -0.3532  0.3290 -1.0337
 3121TIP3    H133558   2.126   1.466   7.514  2.0331 -1.0786 -2.0575
 3121TIP3    H233559   1.998   1.502   7.442 -0.6989 -0.5224  2.6243
 3122TIP3   OH233560   1.388   7.123   8.223 -0.2538 -0.0465  0.6488
 3122TIP3    H133561   1.399   7.163   8.137  0.4519  1.4593  1.3976
 3122TIP3    H233562   1.300   7.148   8.251  0.0263  0.6463  0.9318
 3123TIP3   OH233563   1.092   1.709   8.720 -0.2158 -0.1649 -0.0576
 3123TIP3    H133564   1.162   1.725   8.783  1.8443 -1.7113 -1.7975
 3123TIP3    H233565   1.060   1.796   8.697  1.2897  0.6104  0.6234
 3124TIP3   OH233566   6.465   5.021   8.505 -0.7338 -0.0105 -0.0231
 3124TIP3    H133567   6.557   5.014   8.530 -0.2403 -2.3033 -2.1231
 3124TIP3    H233568   6.458   4.971   8.424 -3.4091  1.9517 -1.1410
 3125TIP3   OH233569   2.363   5.500   7.128  0.3446  0.3708  0.9141
 3125TIP3    H133570   2.392   5.489   7.038 -1.2919 -1.4632  0.5330
 3125TIP3    H233571   2.428   5.557   7.168  2.0319 -0.1351 -0.9625
 3126TIP3   OH233572   2.924   1.131   9.181 -0.6980 -0.6396  0.1519
 3126TIP3    H133573   2.993   1.091   9.235 -2.6705 -1.4073  2.2808
 3126TIP3    H233574   2.937   1.225   9.191 -0.3659 -0.7780  1.1428
 3127TIP3   OH233575   1.999   4.929   8.212 -0.1716 -0.2833 -0.0967
 3127TIP3    H133576   2.051   5.006   8.230 -0.4889  0.1572 -0.9949
 3127TIP3    H233577   2.013   4.872   8.288  0.9114  0.1886  0.0765
 3128TIP3   OH233578   2.830   3.229   7.868  0.1764  0.2553  0.3757
 3128TIP3    H133579   2.833   3.299   7.933 -0.2573  1.7523 -1.1560
 3128TIP3    H233580   2.913   3.235   7.821  0.2650 -0.4662  0.4223
 3129TIP3   OH233581   0.164   5.667   8.000  0.4480 -0.0560  0.0807
 3129TIP3    H133582   0.229   5.726   8.038 -0.9270  0.8390  1.1230
 3129TIP3    H233583   0.200   5.645   7.914  2.1097  0.4181  0.6175
 3130TIP3   OH233584   0.581   6.881   8.083  0.1242  0.3534 -0.4492
 3130TIP3    H133585   0.572   6.903   8.176 -1.5419  3.0603 -1.1439
 3130TIP3    H233586   0.562   6.787   8.079 -0.1418  0.2397  1.8861
 3131TIP3   OH233587   4.775   2.166   7.120 -0.4758 -0.0106  0.1162
 3131TIP3    H133588   4.758   2.260   7.126 -1.2828 -0.1093 -0.5617
 3131TIP3    H233589   4.759   2.144   7.029  1.5809 -0.4689 -0.1929
 3132TIP3   OH233590   1.467   3.220   7.377 -0.4819 -0.3562  0.1077
 3132TIP3    H133591   1.395   3.280   7.394 -0.2502  0.3008 -1.1160
 3132TIP3    H233592   1.428   3.151   7.323 -0.8107 -1.4967  1.7214
 3133TIP3   OH233593   6.917   2.736   8.771 -0.0678  0.0260 -0.1742
 3133TIP3    H133594   6.907   2.689   8.688  0.4981  0.9741 -0.7955
 3133TIP3    H233595   7.011   2.737   8.787 -0.1755 -0.1617  0.4966
 3134TIP3   OH233596   2.138   3.283   8.132 -0.5334  0.1613  0.3049
 3134TIP3    H133597   2.186   3.235   8.064  0.7018  0.8513  0.6587
 3134TIP3    H233598   2.195   3.277   8.209 -0.0672  2.6599  0.2106
 3135TIP3   OH233599   0.536   4.007   9.438 -0.0125 -0.4564 -0.1430
 3135TIP3    H133600   0.512   3.931   9.490 -0.1122 -2.0710 -2.4079
 3135TIP3    H233601   0.569   3.971   9.356 -0.0924  1.9527 -1.3299
 3136TIP3   OH233602   1.250   1.962   8.854 -0.6588 -0.6262  0.2003
 3136TIP3    H133603   1.269   2.045   8.811 -1.1829 -0.2355  0.7006
 3136TIP3    H233604   1.237   1.986   8.946  0.4219 -1.4344  0.5813
 3137TIP3   OH233605   0.701   1.583   7.465 -0.3821  0.0730  0.1191
 3137TIP3    H133606   0.671   1.502   7.422  0.2545 -1.1168  1.7953
 3137TIP3    H233607   0.636   1.599   7.533 -0.0364  0.4681  0.3617
 3138TIP3   OH233608   6.594   0.470   8.107 -0.2405  0.3450 -0.0777
 3138TIP3    H133609   6.677   0.466   8.059 -0.4481  1.1925 -0.5306
 3138TIP3    H233610   6.568   0.379   8.118  1.6527 -0.0703  1.6904
 3139TIP3   OH233611   6.435   3.813   7.018 -0.0485 -0.4221  0.2050
 3139TIP3    H133612   6.511   3.756   7.027 -0.9215 -1.6872 -0.1183
 3139TIP3    H233613   6.451   3.885   7.079  0.8527 -1.2934  1.0263
 3140TIP3   OH233614   3.905   2.191   8.615 -0.5811  0.0887 -0.1628
 3140TIP3    H133615   3.932   2.267   8.562 -1.1070  0.9535  0.7906
 3140TIP3    H233616   3.984   2.166   8.663  0.6827 -2.3261 -3.1479
 3141TIP3   OH233617   2.490   1.599   7.976 -0.2420  0.0039  0.5904
 3141TIP3    H133618   2.416   1.539   7.972 -0.4972  0.2711  1.1774
 3141TIP3    H233619   2.450   1.685   7.990  0.0598  0.4391 -0.9356
 3142TIP3   OH233620   2.137   0.394   7.429  0.1850  1.0623 -0.4231
 3142TIP3    H133621   2.202   0.372   7.362 -0.5905  2.9756 -1.9058
 3142TIP3    H233622   2.053   0.390   7.382 -0.7357 -0.5681  1.2500
 3143TIP3   OH233623   3.571   7.242   8.774  0.3050 -0.3086  0.0037
 3143TIP3    H133624   3.636   7.172   8.762  1.2673  0.2822  1.4386
 3143TIP3    H233625   3.525   7.246   8.691 -0.2235 -3.0779  0.0580
 3144TIP3   OH233626   4.103   1.185   8.651 -0.1036 -0.0604  0.4966
 3144TIP3    H133627   4.106   1.103   8.602  1.2755 -0.4951  1.2655
 3144TIP3    H233628   4.010   1.208   8.655 -0.8326 -2.8743  2.3622
 3145TIP3   OH233629   1.151   0.182   7.963 -0.1938 -0.4437  0.4430
 3145TIP3    H133630   1.142   0.274   7.986 -1.7662 -0.2117 -0.8551
 3145TIP3    H233631   1.230   0.153   8.008 -0.3381  1.2072  1.8707
 3146TIP3   OH233632   5.894   2.113   8.661 -0.0877 -0.7739 -0.2982
 3146TIP3    H133633   5.883   2.206   8.641  2.1154 -0.5859 -0.8691
 3146TIP3    H233634   5.862   2.068   8.582 -1.7896 -0.5688  0.2442
 3147TIP3   OH233635   5.468   5.877   9.480  0.3245  0.1617  0.1993
 3147TIP3    H133636   5.414   5.800   9.495 -0.1395  1.0677  4.7275
 3147TIP3    H233637   5.406   5.950   9.480  0.9628  0.7835 -1.9183
 3148TIP3   OH233638   5.343   0.896   7.551  0.1728  0.4739  0.4514
 3148TIP3    H133639   5.377   0.920   7.637 -0.4565  0.9823  0.5649
 3148TIP3    H233640   5.280   0.965   7.530  3.6547  3.0965 -2.5272
 3149TIP3   OH233641   6.407   0.049   9.423 -0.5190 -1.0234 -0.9570
 3149TIP3    H133642   6.380   0.140   9.414 -0.7575 -1.1870 -2.0565
 3149TIP3    H233643   6.336   0.008   9.473 -0.2444 -0.5460 -0.1569
 3150TIP3   OH233644   2.705   2.091   7.191  0.0141 -0.2525 -0.3155
 3150TIP3    H133645   2.735   2.090   7.100 -1.1986  1.0674 -0.7717
 3150TIP3    H233646   2.629   2.033   7.192  1.0265 -1.6419  0.2886
 3151TIP3   OH233647   2.178   7.123   9.420 -0.2903 -0.2893 -0.2648
 3151TIP3    H133648   2.220   7.201   9.383 -0.8609 -0.3280 -1.0203
 3151TIP3    H233649   2.115   7.159   9.483  1.8609 -0.2735  2.0283
 3152TIP3   OH233650   2.270   6.943   6.993 -0.6165  0.4771  0.2874
 3152TIP3    H133651   2.307   6.868   7.038 -1.2796  0.9340  1.6481
 3152TIP3    H233652   2.336   7.012   7.002  0.3893 -0.1220 -1.7213
 3153TIP3   OH233653   6.957   3.873   7.654  0.0271 -0.6531  0.0646
 3153TIP3    H133654   6.970   3.778   7.645  0.6749 -0.4656 -1.2649
 3153TIP3    H233655   6.902   3.896   7.579 -1.5974 -0.2194  1.3460
 3154TIP3   OH233656   2.379   1.457   9.353 -0.3269 -0.1048 -0.2456
 3154TIP3    H133657   2.419   1.544   9.351  0.5641 -0.5082 -0.6132
 3154TIP3    H233658   2.410   1.414   9.273 -0.7074 -0.7776 -0.0428
 3155TIP3   OH233659   0.997   3.663   8.271  0.8501  0.0646  0.3147
 3155TIP3    H133660   1.030   3.592   8.326  1.7396  0.6356  0.5434
 3155TIP3    H233661   1.003   3.629   8.181 -0.9875 -1.0226  0.5524
 3156TIP3   OH233662   6.061   0.750   8.848 -0.2224 -0.4846 -0.3586
 3156TIP3    H133663   6.153   0.770   8.862  0.3206 -1.7289 -1.8554
 3156TIP3    H233664   6.054   0.656   8.862 -1.6415 -0.1879  1.3822
 3157TIP3   OH233665   7.450   3.074   7.570  0.3870  0.6207  0.2924
 3157TIP3    H133666   7.470   3.136   7.640 -0.1185  0.7390  0.3390
 3157TIP3    H233667   7.356   3.086   7.553 -0.1020 -1.2400  1.3941
 3158TIP3   OH233668   0.610   0.696   7.719 -0.5493 -0.3405  0.6030
 3158TIP3    H133669   0.682   0.636   7.736 -2.3875 -2.3809  1.5887
 3158TIP3    H233670   0.618   0.763   7.787  1.4820  0.5707 -0.4655
 3159TIP3   OH233671   5.025   0.515   8.112  0.0034 -0.1881  0.2572
 3159TIP3    H133672   5.074   0.494   8.192 -0.5406 -0.0673  0.6315
 3159TIP3    H233673   5.039   0.609   8.100 -0.3645 -0.0936  0.5310
 3160TIP3   OH233674   2.566   2.518   9.472 -0.1066  0.2998 -0.0113
 3160TIP3    H133675   2.501   2.546   9.408  1.0260 -2.3753 -2.5409
 3160TIP3    H233676   2.532   2.434   9.504  1.5167 -0.6122 -0.5856
 3161TIP3   OH233677   1.420   1.367   9.380  0.3434  0.4649 -0.2188
 3161TIP3    H133678   1.354   1.396   9.317  1.5438  0.7879 -1.3720
 3161TIP3    H233679   1.489   1.432   9.373  1.7970 -1.0722 -0.7433
 3162TIP3   OH233680   2.063   2.546   7.677 -0.1494 -0.2684  0.0715
 3162TIP3    H133681   2.078   2.633   7.713 -0.0111 -0.1031 -0.3777
 3162TIP3    H233682   2.125   2.540   7.604 -1.8921  0.2452 -1.5189
 3163TIP3   OH233683   1.268   2.240   8.460 -0.1050  0.1895 -0.3640
 3163TIP3    H133684   1.187   2.290   8.467 -0.0577  0.7549 -2.9034
 3163TIP3    H233685   1.242   2.149   8.465 -0.5571  0.3691  1.2270
 3164TIP3   OH233686   0.812   3.212   8.031 -0.4086 -0.2879  0.1375
 3164TIP3    H133687   0.906   3.218   8.014 -0.6258  2.3908 -0.5897
 3164TIP3    H233688   0.771   3.219   7.945 -1.2820  0.0694  0.5712
 3165TIP3   OH233689   1.094   5.865   8.440  0.0025  0.2997  0.3667
 3165TIP3    H133690   1.154   5.846   8.512  1.3772  0.1083 -0.7774
 3165TIP3    H233691   1.129   5.815   8.366 -2.3349 -0.9076 -0.0482
 3166TIP3   OH233692   1.671   6.028   9.356 -0.1568 -0.1023  0.2372
 3166TIP3    H133693   1.608   5.961   9.384 -0.1722 -0.1353  0.1243
 3166TIP3    H233694   1.623   6.080   9.292 -0.1226 -0.0240  0.2757
 3167TIP3   OH233695   7.247   4.539   8.556  0.0115 -0.1428 -0.1815
 3167TIP3    H133696   7.194   4.461   8.573 -0.8316  0.3303 -0.6166
 3167TIP3    H233697   7.185   4.611   8.555  0.2334  0.1191 -3.3835
 3168TIP3   OH233698   2.786   7.494   8.841  0.1553 -0.0972  0.1059
 3168TIP3    H133699   2.753   7.520   8.927 -2.8473  0.1553 -0.9837
 3168TIP3    H233700   2.852   7.559   8.818 -0.8173  1.3040  1.1739
 3169TIP3   OH233701   3.507   7.028   7.684 -0.2437 -0.1585  0.0299
 3169TIP3    H133702   3.600   7.039   7.665 -0.2961  0.3528  0.0507
 3169TIP3    H233703   3.468   7.112   7.662 -1.2574 -1.3198 -3.2582
 3170TIP3   OH233704   5.620   6.040   9.241  0.2924 -0.2401  0.3199
 3170TIP3    H133705   5.591   5.997   9.161 -0.1166  0.6495 -0.0239
 3170TIP3    H233706   5.587   5.984   9.311 -2.6134  0.8582 -0.0247
 3171TIP3   OH233707   6.777   1.130   8.491 -0.0291  0.2090 -1.2448
 3171TIP3    H133708   6.780   1.222   8.463  0.0450  0.4255 -0.5461
 3171TIP3    H233709   6.791   1.134   8.586  1.5141 -0.6309 -1.4141
 3172TIP3   OH233710   0.757   3.832   8.650 -0.0824  0.0520  0.1862
 3172TIP3    H133711   0.833   3.776   8.670 -0.2157 -0.3681 -0.4655
 3172TIP3    H233712   0.695   3.811   8.719 -0.3269 -0.9965 -0.3255
 3173TIP3   OH233713   3.175   0.574   8.506  0.6430  0.1595  0.0674
 3173TIP3    H133714   3.174   0.634   8.432  1.4642  0.4238  0.2705
 3173TIP3    H233715   3.228   0.617   8.572 -0.0999 -0.0635  0.8289
 3174TIP3   OH233716   4.757   3.112   8.824  0.0198 -0.2514 -0.0765
 3174TIP3    H133717   4.722   3.182   8.878  1.2449  0.6356 -0.3716
 3174TIP3    H233718   4.686   3.089   8.765 -0.4021  0.7680  0.0129
 3175TIP3   OH233719   6.898   3.559   6.557  0.3458  0.1009  0.2498
 3175TIP3    H133720   6.806   3.555   6.528  0.3291 -1.0264  0.4080
 3175TIP3    H233721   6.895   3.531   6.648  0.8695 -0.0477  0.2200
 3176TIP3   OH233722   3.830   0.621   7.377 -0.7674  0.6728  0.2851
 3176TIP3    H133723   3.909   0.631   7.324  0.0163 -1.1785  1.0238
 3176TIP3    H233724   3.776   0.559   7.328 -1.0846  0.7342  0.5545
 3177TIP3   OH233725   0.770   6.879   7.905 -0.2419 -0.5332  0.1046
 3177TIP3    H133726   0.692   6.900   7.957  0.4374 -0.7676  1.2568
 3177TIP3    H233727   0.770   6.783   7.900 -1.1516 -0.4642 -1.6976
 3178TIP3   OH233728   0.502   2.448   8.110  0.5872  0.2816 -0.2550
 3178TIP3    H133729   0.575   2.400   8.073  0.5779 -0.0550  0.1579
 3178TIP3    H233730   0.454   2.482   8.034 -0.3989 -1.8328 -0.6420
 3179TIP3   OH233731   5.646   4.403   7.113 -0.2117 -0.0068  0.5209
 3179TIP3    H133732   5.634   4.488   7.071 -0.8910 -0.3360  0.0311
 3179TIP3    H233733   5.726   4.368   7.073 -1.0854 -0.5072 -0.8622
 3180TIP3   OH233734   5.234   4.700   7.751  0.3282 -0.0877  0.1796
 3180TIP3    H133735   5.173   4.675   7.682  0.0569  1.1714 -0.0466
 3180TIP3    H233736   5.231   4.626   7.813 -1.1029 -0.2380 -0.0370
 3181TIP3   OH233737   5.046   6.094   8.348 -0.1905 -0.2695  0.2665
 3181TIP3    H133738   5.093   6.014   8.372  0.3775 -0.4669 -1.3545
 3181TIP3    H233739   4.957   6.065   8.330  0.0783 -0.6042 -0.5758
 3182TIP3   OH233740   7.471   4.657   8.705  0.6015 -0.2148  0.1732
 3182TIP3    H133741   7.408   4.598   8.663  0.7745 -0.0482 -0.3305
 3182TIP3    H233742   7.547   4.655   8.647  1.2213 -0.7157  0.9701
 3183TIP3   OH233743   0.229   0.231   7.349  0.6477  1.1486 -1.0323
 3183TIP3    H133744   0.165   0.221   7.279 -1.2023  1.2424  0.5725
 3183TIP3    H233745   0.240   0.142   7.384  0.6024  1.2876 -0.6551
 3184TIP3   OH233746   5.238   3.224   8.016  0.3180 -0.3982  0.1543
 3184TIP3    H133747   5.219   3.263   8.101 -1.8423 -0.0690 -0.4219
 3184TIP3    H233748   5.152   3.216   7.973  1.1012 -2.5205 -1.1593
 3185TIP3   OH233749   4.954   1.570   8.052 -0.0808  0.1795 -0.1083
 3185TIP3    H133750   4.867   1.559   8.090  0.4513 -1.9130  0.6620
 3185TIP3    H233751   4.942   1.552   7.958 -0.3288 -1.2386  0.1696
 3186TIP3   OH233752   6.756   6.667   7.972  0.1937  0.1849 -0.4215
 3186TIP3    H133753   6.738   6.626   8.057  3.2354 -1.6550 -0.5091
 3186TIP3    H233754   6.827   6.729   7.991  1.7647 -1.1183 -1.6971
 3187TIP3   OH233755   4.392   6.914   7.791 -0.3443  0.1393 -0.4689
 3187TIP3    H133756   4.463   6.866   7.749 -0.6410  0.6575 -1.5976
 3187TIP3    H233757   4.312   6.876   7.754 -0.6093  0.6704 -0.4522
 3188TIP3   OH233758   0.103   7.023   8.821 -0.4904  0.0474 -0.1863
 3188TIP3    H133759   0.120   7.117   8.826  2.0949 -0.2040 -1.9883
 3188TIP3    H233760   0.015   7.016   8.786 -0.2647  1.8416 -1.2336
 3189TIP3   OH233761   0.242   3.767   9.046 -0.0818 -0.2741 -0.1329
 3189TIP3    H133762   0.241   3.817   9.128  1.5316  0.1227 -0.3239
 3189TIP3    H233763   0.334   3.765   9.020 -0.2125 -2.5863 -0.6228
 3190TIP3   OH233764   2.995   1.434   7.535 -0.0099 -0.1962  0.1066
 3190TIP3    H133765   2.963   1.490   7.466 -1.2029 -0.7516  0.1885
 3190TIP3    H233766   3.064   1.485   7.578 -0.3418  0.7658 -0.4838
 3191TIP3   OH233767   3.302   3.764   7.480  1.1292 -0.4626 -0.3875
 3191TIP3    H133768   3.248   3.831   7.439 -0.6229 -2.2644 -1.1741
 3191TIP3    H233769   3.257   3.682   7.461  1.6391 -1.6518  2.9248
 3192TIP3   OH233770   1.092   3.680   7.725  0.1527 -0.1333 -0.2023
 3192TIP3    H133771   1.099   3.775   7.715 -0.0170  0.0306  1.0930
 3192TIP3    H233772   1.052   3.650   7.643 -0.2921  0.9791 -0.4016
 3193TIP3   OH233773   5.956   0.670   9.517  0.3162 -0.0741  0.4405
 3193TIP3    H133774   5.930   0.755   9.483  1.1143 -0.9976 -2.8718
 3193TIP3    H233775   5.874   0.622   9.530 -0.0150  0.1522 -0.7769
 3194TIP3   OH233776   7.070   6.516   7.063 -0.4799  0.5271  0.0523
 3194TIP3    H133777   6.982   6.525   7.101 -0.1462  0.7591  0.7958
 3194TIP3    H233778   7.109   6.444   7.112  0.0153  0.9354  0.2634
 3195TIP3   OH233779   7.244   1.860   8.738  0.1507 -0.3069  0.4465
 3195TIP3    H133780   7.336   1.848   8.714  0.5277 -0.5400  1.9197
 3195TIP3    H233781   7.211   1.771   8.752 -0.1595 -0.1929  0.4493
 3196TIP3   OH233782   5.163   7.467   8.540 -0.4497  0.3271 -0.5574
 3196TIP3    H133783   5.233   7.502   8.485 -0.0840  0.7521  0.1464
 3196TIP3    H233784   5.083   7.482   8.490  0.0176 -0.8661 -1.7118
 3197TIP3   OH233785   1.567   2.089   6.616  0.2675  0.0296 -0.2359
 3197TIP3    H133786   1.517   2.024   6.567 -1.1573  0.4716  0.5561
 3197TIP3    H233787   1.589   2.156   6.552 -0.0552 -0.2319 -0.6259
 3198TIP3   OH233788   5.713   5.491   7.376 -0.1989 -0.0385  0.2707
 3198TIP3    H133789   5.728   5.485   7.470  1.3286 -1.3921 -0.0261
 3198TIP3    H233790   5.652   5.419   7.357 -2.8207  1.9340  0.5798
 3199TIP3   OH233791   5.141   5.350   8.265  0.7824 -0.3660  0.0875
 3199TIP3    H133792   5.055   5.315   8.242 -0.7710  2.8349  0.4541
 3199TIP3    H233793   5.144   5.345   8.361  2.3035 -3.0582 -0.0236
 3200TIP3   OH233794   1.723   1.136   7.535  0.3072 -0.4565  0.1890
 3200TIP3    H133795   1.741   1.184   7.454  0.2008 -1.0273 -0.1827
 3200TIP3    H233796   1.686   1.053   7.505  0.6962 -0.8586  0.8146
 3201TIP3   OH233797   5.366   1.587   8.865 -0.3285 -0.7119 -0.0084
 3201TIP3    H133798   5.313   1.631   8.799 -0.5210 -1.7220 -0.5549
 3201TIP3    H233799   5.447   1.638   8.869 -0.8305  0.1119 -0.0692
 3202TIP3   OH233800   1.461   2.459   7.753  0.4674  0.0921  0.2258
 3202TIP3    H133801   1.438   2.551   7.738 -0.9733 -0.3837 -0.6493
 3202TIP3    H233802   1.506   2.432   7.673  0.2512 -0.1560  0.1872
 3203TIP3   OH233803   0.796   2.580   9.170  0.2829  0.1485 -0.8996
 3203TIP3    H133804   0.871   2.638   9.186 -1.2660  1.9785  0.2450
 3203TIP3    H233805   0.817   2.499   9.216  0.6641  1.4098  1.2660
 3204TIP3   OH233806   6.920   1.667   8.590 -0.0108 -0.0421 -0.6256
 3204TIP3    H133807   6.949   1.747   8.545  0.9358  0.6407  1.0827
 3204TIP3    H233808   6.995   1.608   8.583 -0.9073 -1.0346 -2.3554
 3205TIP3   OH233809   5.053   3.592   8.575 -0.2727 -0.0335 -0.5479
 3205TIP3    H133810   5.139   3.632   8.568  0.8715 -1.7406  2.1793
 3205TIP3    H233811   5.059   3.535   8.651 -3.4906 -1.1097 -0.9425
 3206TIP3   OH233812   5.821   6.481   9.062  0.2508  0.1419  0.6991
 3206TIP3    H133813   5.815   6.458   9.155  0.2008 -0.2144  0.6093
 3206TIP3    H233814   5.844   6.399   9.018  3.1181  0.8220  0.7020
 3207TIP3   OH233815   1.808   2.507   9.188  0.4389 -0.3073 -0.9572
 3207TIP3    H133816   1.868   2.440   9.156 -0.2310 -1.7397  0.5913
 3207TIP3    H233817   1.775   2.472   9.271 -0.3888  1.6984 -0.3672
 3208TIP3   OH233818   7.544   2.264   8.545 -0.2122 -0.5900 -0.4456
 3208TIP3    H133819   7.603   2.334   8.516 -0.9835  0.5880  0.7395
 3208TIP3    H233820   7.466   2.274   8.490 -0.5369 -0.1621  0.0838
 3209TIP3   OH233821   5.353   4.408   8.256 -0.2669 -0.9577  0.5230
 3209TIP3    H133822   5.329   4.361   8.176  0.2755  0.2408 -0.3729
 3209TIP3    H233823   5.348   4.501   8.232 -0.4053 -0.5556  1.9761
 3210TIP3   OH233824   4.969   6.952   6.561 -0.0180 -0.1825 -0.5044
 3210TIP3    H133825   4.966   7.030   6.617 -0.1831 -0.4983 -0.0651
 3210TIP3    H233826   4.984   6.986   6.473  0.5167  0.3081 -0.2346
 3211TIP3   OH233827   0.071   4.179   6.846  0.1695  0.4531  0.0110
 3211TIP3    H133828   0.141   4.114   6.851  0.5108  0.8606  0.6134
 3211TIP3    H233829   0.070   4.206   6.754 -0.2319 -0.6712 -0.3322
 3212TIP3   OH233830   4.737   7.648   8.983 -0.2754 -0.1900 -0.3386
 3212TIP3    H133831   4.698   7.600   9.055 -0.8115  0.3490 -0.2621
 3212TIP3    H233832   4.786   7.582   8.933 -1.8127 -1.0128 -0.8146
 3213TIP3   OH233833   6.462   6.829   9.081  0.2097 -0.2020  0.5857
 3213TIP3    H133834   6.461   6.753   9.139 -0.2646  0.9868  2.2265
 3213TIP3    H233835   6.523   6.890   9.122  0.0567  0.5817 -0.3174
 3214TIP3   OH233836   1.234   7.127   8.876 -0.4293  0.4051 -0.2683
 3214TIP3    H133837   1.297   7.152   8.943  0.2754 -0.2097 -0.6858
 3214TIP3    H233838   1.162   7.087   8.925 -0.6250  1.3350  0.2306
 3215TIP3   OH233839   6.867   7.613   8.883  0.3792 -0.4883  0.0717
 3215TIP3    H133840   6.932   7.648   8.821 -1.5636 -0.1555 -1.8994
 3215TIP3    H233841   6.898   7.525   8.902  1.0207 -0.6360 -1.4563
 3216TIP3   OH233842   7.325   3.138   9.604  0.6350  0.1255 -0.5245
 3216TIP3    H133843   7.283   3.168   9.523 -0.0027 -3.6820 -1.8010
 3216TIP3    H233844   7.255   3.139   9.669  0.8100  1.8437 -0.2999
 3217TIP3   OH233845   0.096   1.775   8.267 -0.5897 -0.3062  0.1954
 3217TIP3    H133846   0.112   1.869   8.260 -0.0940 -0.2729  1.4619
 3217TIP3    H233847   0.028   1.757   8.203  0.4612  0.6089 -1.2355
 3218TIP3   OH233848   2.551   2.553   8.608  0.7332  0.2980 -0.2882
 3218TIP3    H133849   2.553   2.538   8.703  1.3878  1.0121 -0.1791
 3218TIP3    H233850   2.526   2.468   8.571  0.2451  0.0721  0.5333
 3219TIP3   OH233851   2.624   3.014   9.123  0.4225  0.2125 -0.2867
 3219TIP3    H133852   2.711   2.997   9.086  0.4028  0.8434 -0.6319
 3219TIP3    H233853   2.632   3.098   9.167 -0.0155  0.2747 -0.3186
 3220TIP3   OH233854   6.096   5.641   8.953  0.2549  0.6059 -0.5291
 3220TIP3    H133855   6.012   5.654   8.909  0.0857 -1.2034 -0.7824
 3220TIP3    H233856   6.161   5.647   8.882  0.3437  1.7129 -0.3760
 3221TIP3   OH233857   5.191   1.678   9.343  0.7549  0.3747 -0.0948
 3221TIP3    H133858   5.151   1.759   9.310  1.5107  1.4292  1.4447
 3221TIP3    H233859   5.207   1.626   9.264 -0.6355  1.2941 -1.0404
 3222TIP3   OH233860   5.419   4.895   9.224  0.1407  0.0123 -0.0828
 3222TIP3    H133861   5.487   4.904   9.291  1.0897  0.8903 -1.1193
 3222TIP3    H233862   5.365   4.973   9.235 -0.6500 -0.6214  0.6555
 3223TIP3   OH233863   0.348   3.488   7.271 -0.3100 -0.2497 -0.0205
 3223TIP3    H133864   0.356   3.570   7.221 -1.7135  0.5179  0.9411
 3223TIP3    H233865   0.289   3.434   7.219 -0.7497  0.0419  0.1667
 3224TIP3   OH233866   2.027   3.006   6.850 -0.4526  0.1032  0.2746
 3224TIP3    H133867   1.938   3.021   6.884 -0.8593  2.0581 -1.4270
 3224TIP3    H233868   2.079   3.077   6.886  0.0791 -0.2056  0.1255
 3225TIP3   OH233869   7.392   4.921   8.613  0.0172 -0.3826  0.1675
 3225TIP3    H133870   7.413   4.975   8.689  0.6967 -0.3047 -0.0720
 3225TIP3    H233871   7.419   4.832   8.639 -0.9159 -0.5843  0.4868
 3226TIP3   OH233872   4.000   7.408   9.164  0.0425  0.4763  0.1696
 3226TIP3    H133873   4.018   7.490   9.210  0.1333  0.2690  0.5109
 3226TIP3    H233874   4.038   7.341   9.220 -0.0825  0.1966 -0.0795
 3227TIP3   OH233875   6.823   0.165   8.382  0.1956  0.0188  0.3033
 3227TIP3    H133876   6.734   0.135   8.366  0.6214 -1.3831  0.4544
 3227TIP3    H233877   6.874   0.130   8.309  0.9617 -0.8652  1.2360
 3228TIP3   OH233878   4.092   3.242   7.045 -0.1084  0.1242  0.4010
 3228TIP3    H133879   4.133   3.260   7.130 -1.5187 -2.3274  1.7098
 3228TIP3    H233880   3.999   3.258   7.059 -0.4572 -1.0253 -0.4086
 3229TIP3   OH233881   5.665   1.590   8.213 -0.2377  0.8325  0.2491
 3229TIP3    H133882   5.635   1.632   8.293  0.2312  1.1195  0.2736
 3229TIP3    H233883   5.674   1.661   8.150 -0.2732  0.6531  0.0372
 3230TIP3   OH233884   0.386   2.200   7.290 -0.3805  0.0936 -0.0495
 3230TIP3    H133885   0.326   2.274   7.282 -0.5969 -0.0708  0.0377
 3230TIP3    H233886   0.408   2.198   7.383 -0.2731  0.1288 -0.0745
 3231TIP3   OH233887   6.444   0.239   7.665  0.5900 -0.1088  0.4012
 3231TIP3    H133888   6.464   0.218   7.574 -0.1548  0.6553  0.0479
 3231TIP3    H233889   6.457   0.157   7.712 -2.1818 -1.4625 -0.9075
 3232TIP3   OH233890   7.503   2.674   8.590  0.0863  0.2588 -0.1096
 3232TIP3    H133891   7.430   2.682   8.529  0.3801 -1.4965 -0.7622
 3232TIP3    H233892   7.461   2.656   8.675 -0.3643 -3.4476 -0.9246
 3233TIP3   OH233893   1.955   4.794   6.679 -0.4810  0.5363  0.0982
 3233TIP3    H133894   1.893   4.826   6.613  0.2134  0.8750 -0.4071
 3233TIP3    H233895   1.972   4.703   6.655 -1.5328  0.1249  0.8284
 3234TIP3   OH233896   0.152   2.696   8.689  0.0537  0.0670 -0.3399
 3234TIP3    H133897   0.221   2.741   8.641  1.9049  0.4361  2.4780
 3234TIP3    H233898   0.175   2.603   8.683 -0.0702  0.0515 -0.6235
 3235TIP3   OH233899   6.780   1.674   6.917  0.1353  0.3114  0.1465
 3235TIP3    H133900   6.856   1.720   6.952 -0.4005 -0.5161  2.6630
 3235TIP3    H233901   6.753   1.725   6.841  1.7300  2.0229  0.6585
 3236TIP3   OH233902   7.353   3.613   8.513  0.2642 -0.3207  0.0630
 3236TIP3    H133903   7.357   3.564   8.595 -0.3449  0.2052  0.4154
 3236TIP3    H233904   7.439   3.655   8.506  0.9473 -1.7629 -0.4606
 3237TIP3   OH233905   5.433   5.690   8.856 -0.1687 -0.1257 -0.4713
 3237TIP3    H133906   5.434   5.675   8.951 -0.9077  3.0582  0.1857
 3237TIP3    H233907   5.342   5.675   8.830 -1.0908  3.1170  0.3243
 3238TIP3   OH233908   2.242   0.406   9.457  0.4001 -0.0925  0.5863
 3238TIP3    H133909   2.279   0.381   9.373 -1.4388  0.5102 -0.4612
 3238TIP3    H233910   2.232   0.323   9.504 -2.8811 -1.2181 -1.6855
 3239TIP3   OH233911   7.256   5.263   8.661  0.2956 -0.3152 -0.5212
 3239TIP3    H133912   7.331   5.286   8.715  0.3265  0.1688 -0.7642
 3239TIP3    H233913   7.293   5.243   8.575  0.2141 -0.7585 -0.4578
 3240TIP3   OH233914   3.403   4.289   8.332  0.4102 -0.2767  0.7051
 3240TIP3    H133915   3.406   4.222   8.264 -0.2823 -0.8800  1.2491
 3240TIP3    H233916   3.494   4.300   8.359  0.3463 -2.6987  2.2083
 3241TIP3   OH233917   4.262   1.734   6.336 -0.2631  0.0925 -0.4896
 3241TIP3    H133918   4.310   1.681   6.400 -1.4090 -1.1384 -0.6144
 3241TIP3    H233919   4.233   1.672   6.270 -2.1380  0.7601 -0.3479
 3242TIP3   OH233920   1.949   4.582   8.332 -0.2267 -0.3174 -0.0625
 3242TIP3    H133921   1.941   4.605   8.239 -0.8440  1.0561  0.3158
 3242TIP3    H233922   1.888   4.640   8.377 -0.0564 -1.0839  1.1986
 3243TIP3   OH233923   1.549   0.854   7.910 -0.1442  0.1906 -0.2491
 3243TIP3    H133924   1.483   0.803   7.864  0.2360 -1.2947  0.7759
 3243TIP3    H233925   1.628   0.844   7.857  0.0969 -0.8708  0.2882
 3244TIP3   OH233926   1.046   2.691   9.465 -0.0228  0.0546  0.2803
 3244TIP3    H133927   1.049   2.713   9.372 -1.2577 -2.2549 -0.3968
 3244TIP3    H233928   1.120   2.631   9.477 -0.1904 -0.0781  0.6598
 3245TIP3   OH233929   0.385   3.406   8.577  0.1988 -0.0232  0.0109
 3245TIP3    H133930   0.326   3.339   8.542 -0.2407  0.8696 -1.0159
 3245TIP3    H233931   0.435   3.360   8.645 -1.2804 -0.9428  0.5377
 3246TIP3   OH233932   0.155   1.706   9.409 -0.5707  0.0642 -0.2211
 3246TIP3    H133933   0.105   1.642   9.460 -0.8661 -1.5938 -2.4576
 3246TIP3    H233934   0.245   1.674   9.412 -0.2816  0.8773  0.5368
 3247TIP3   OH233935   3.016   5.856   8.068  0.0647  0.1947  0.3396
 3247TIP3    H133936   2.968   5.932   8.102 -2.1789 -1.4964  1.1803
 3247TIP3    H233937   3.043   5.808   8.146  0.1952 -0.5974 -0.1774
 3248TIP3   OH233938   3.032   3.227   8.949  0.1911  0.0346 -0.2108
 3248TIP3    H133939   3.120   3.260   8.964  0.0041  0.6149 -0.3886
 3248TIP3    H233940   2.984   3.301   8.911 -0.3982 -0.2448 -0.0230
 3249TIP3   OH233941   3.771   3.340   8.801  0.0770  0.1273  0.6821
 3249TIP3    H133942   3.853   3.368   8.841 -0.9692 -0.0310  3.1443
 3249TIP3    H233943   3.787   3.250   8.773  0.7476  0.0920  1.1608
 3250TIP3   OH233944   5.320   1.891   8.743  0.5762 -0.8255 -0.2394
 3250TIP3    H133945   5.394   1.885   8.804  1.0283 -1.9845 -0.8578
 3250TIP3    H233946   5.323   1.981   8.711  2.2223 -1.0456 -0.8260
 3251TIP3   OH233947   2.526   1.366   9.145  0.1952 -0.3566  0.3666
 3251TIP3    H133948   2.508   1.272   9.137  1.1054 -0.6605  1.5992
 3251TIP3    H233949   2.557   1.391   9.057 -1.5802 -0.8223 -0.4365
 3252TIP3   OH233950   3.069   1.966   7.937 -0.3639 -0.1441 -0.4836
 3252TIP3    H133951   3.096   1.995   8.024  1.5478  2.6252 -1.8743
 3252TIP3    H233952   3.137   1.904   7.910 -0.2918 -0.0758 -0.4605
 3253TIP3   OH233953   5.371   6.528   8.668  0.2972  0.2712  0.1880
 3253TIP3    H133954   5.423   6.451   8.647 -0.4970 -0.8235  2.0226
 3253TIP3    H233955   5.287   6.513   8.626  0.1624  0.1680  0.4928
 3254TIP3   OH233956   0.990   2.917   7.373 -0.1310 -0.5853  0.2932
 3254TIP3    H133957   0.936   2.972   7.429  0.8367 -0.0482  0.7216
 3254TIP3    H233958   0.974   2.828   7.404 -2.3569 -0.6875 -0.9575
 3255TIP3   OH233959   2.834   7.578   9.348  1.0254  0.3127 -0.7381
 3255TIP3    H133960   2.865   7.488   9.361  0.2474  0.2398  0.9078
 3255TIP3    H233961   2.883   7.630   9.411 -0.7995  0.4774  0.6192
 3256TIP3   OH233962   3.670   2.252   8.735  0.4892  0.4515  0.0608
 3256TIP3    H133963   3.619   2.245   8.655  0.3261  1.7235  0.0297
 3256TIP3    H233964   3.755   2.215   8.713  0.4602  0.8305 -0.7273
 3257TIP3   OH233965   4.308   1.678   9.218 -0.0254  0.2610  0.6387
 3257TIP3    H133966   4.346   1.600   9.178  0.1257  0.0151  1.2420
 3257TIP3    H233967   4.234   1.644   9.269 -0.8817  0.7000 -0.2870
 3258TIP3   OH233968   5.278   2.663   7.968 -0.0480  0.2053 -0.0261
 3258TIP3    H133969   5.347   2.677   8.033  0.5281  1.4644 -0.8608
 3258TIP3    H233970   5.199   2.698   8.009  0.2229  0.5991  0.1673
 3259TIP3   OH233971   7.468   7.280   7.349 -0.4738 -0.5637 -0.3356
 3259TIP3    H133972   7.547   7.253   7.303 -0.3871 -1.2647  0.2063
 3259TIP3    H233973   7.425   7.198   7.373  0.0556 -0.2833  1.7958
 3260TIP3   OH233974   5.106   6.633   7.715 -0.5819 -0.4173  0.4506
 3260TIP3    H133975   5.152   6.555   7.684 -1.7427 -1.2416  0.7467
 3260TIP3    H233976   5.109   6.628   7.810 -2.6972 -1.3944  0.5161
 3261TIP3   OH233977   0.022   7.446   9.279  0.4479 -0.3782 -0.6635
 3261TIP3    H133978  -0.073   7.433   9.287  0.4606 -0.8605 -1.2329
 3261TIP3    H233979   0.057   7.358   9.263  0.7490  0.0592 -2.7324
 3262TIP3   OH233980   4.718   0.425   6.777 -0.4848  0.1092 -0.7044
 3262TIP3    H133981   4.740   0.471   6.858  1.2556 -0.8507 -0.5657
 3262TIP3    H233982   4.629   0.452   6.757 -0.6446  1.0490  1.0572
 3263TIP3   OH233983   4.210   4.347   9.481 -0.2038 -0.0922  0.1724
 3263TIP3    H133984   4.178   4.436   9.491 -0.4145 -0.0933 -0.4203
 3263TIP3    H233985   4.296   4.356   9.440 -0.7306 -0.1843 -1.0217
 3264TIP3   OH233986   3.401   2.994   8.446 -0.3672 -0.1845  0.5773
 3264TIP3    H133987   3.354   2.922   8.486 -0.5348  0.0292  0.7631
 3264TIP3    H233988   3.360   3.073   8.481 -0.1400  0.0019  0.4290
 3265TIP3   OH233989   0.846   3.713   7.154 -0.0599  0.0314  0.3845
 3265TIP3    H133990   0.903   3.750   7.086  0.6243 -2.8104 -0.7269
 3265TIP3    H233991   0.801   3.641   7.110 -1.7035 -0.1643  2.2736
 3266TIP3   OH233992   2.321   2.709   6.990  0.3464  0.0744  0.3178
 3266TIP3    H133993   2.229   2.731   7.007 -0.1792 -0.4510 -1.6259
 3266TIP3    H233994   2.369   2.751   7.061 -1.3723  0.5156  1.2780
 3267TIP3   OH233995   6.654   3.617   7.081 -0.4047 -0.3039  0.5055
 3267TIP3    H133996   6.678   3.622   6.988 -2.3473  0.7481 -0.0002
 3267TIP3    H233997   6.708   3.547   7.116  1.2108  0.0171 -1.1491
 3268TIP3   OH233998   2.500   2.035   8.832 -0.3572  0.3665  0.6655
 3268TIP3    H133999   2.584   2.054   8.791 -0.2131  1.0440  1.2558
 3268TIP3    H234000   2.491   2.100   8.902 -1.5617  0.5732  0.3472
 3269TIP3   OH234001   3.521   5.155   7.741 -0.6535 -0.2916 -0.2677
 3269TIP3    H134002   3.489   5.115   7.659 -1.3709 -1.3110  0.4855
 3269TIP3    H234003   3.457   5.224   7.760 -0.7461 -0.3593 -0.3294
 3270TIP3   OH234004   0.147   4.980   9.006 -0.5291  0.1732  0.2665
 3270TIP3    H134005   0.110   4.911   9.062 -0.0190 -0.0140  0.3803
 3270TIP3    H234006   0.148   5.058   9.062 -1.6806  0.4298 -0.0589
 3271TIP3   OH234007   5.635   3.695   7.628 -0.3549  0.5689 -0.2692
 3271TIP3    H134008   5.668   3.783   7.610  0.6412  0.1301 -0.6680
 3271TIP3    H234009   5.714   3.642   7.642 -0.9724  0.3188  2.9753
 3272TIP3   OH234010   2.187   4.896   9.041  0.6608  0.2222  0.0002
 3272TIP3    H134011   2.101   4.936   9.029  0.4381  0.0064  0.8251
 3272TIP3    H234012   2.232   4.910   8.958 -0.2903  0.0419 -0.5604
 3273TIP3   OH234013   1.099   6.745   7.451  0.4373 -0.3141  0.5738
 3273TIP3    H134014   1.091   6.683   7.524  1.5834 -0.6559  0.4371
 3273TIP3    H234015   1.193   6.747   7.432  0.3565  1.0280  0.1851
 3274TIP3   OH234016   1.206   3.188   8.547  0.7312  0.7056 -0.1502
 3274TIP3    H134017   1.159   3.124   8.494 -0.3529  1.3816 -0.0438
 3274TIP3    H234018   1.281   3.214   8.493  0.6897  0.0057 -0.5517
 3275TIP3   OH234019   0.553   4.450   7.110 -0.4320  0.2762 -0.0270
 3275TIP3    H134020   0.603   4.442   7.030  0.0749 -1.8310  0.4496
 3275TIP3    H234021   0.496   4.526   7.095 -0.2995 -0.0097 -2.3144
 3276TIP3   OH234022   5.284   6.434   7.646 -0.4831  0.0730  0.1031
 3276TIP3    H134023   5.338   6.363   7.680  0.3181  0.6921  0.1670
 3276TIP3    H234024   5.309   6.442   7.554  1.0175  1.6458  0.5994
 3277TIP3   OH234025   0.045   1.081   7.853 -0.3870 -0.4240 -0.5912
 3277TIP3    H134026  -0.007   1.075   7.773  0.5172 -1.5469 -1.1295
 3277TIP3    H234027   0.067   0.990   7.874  1.5252  0.0165 -0.5182
 3278TIP3   OH234028   4.287   1.769   8.530 -0.4566 -0.3640  0.7722
 3278TIP3    H134029   4.292   1.674   8.530  0.0672 -0.3889 -1.5223
 3278TIP3    H234030   4.193   1.788   8.524 -0.4736 -0.8216 -0.9577
 3279TIP3   OH234031   5.967   2.128   8.021 -0.0802 -0.4257  0.3322
 3279TIP3    H134032   5.890   2.106   7.967 -0.4108 -1.6133  1.2495
 3279TIP3    H234033   5.998   2.211   7.985 -1.3972 -0.2598 -0.4930
 3280TIP3   OH234034   1.822   5.090   7.189 -0.0442  0.3684 -0.2735
 3280TIP3    H134035   1.876   5.168   7.178  1.3346 -0.5538 -0.2984
 3280TIP3    H234036   1.874   5.032   7.245 -1.7709  0.1430  1.2029
 3281TIP3   OH234037   1.956   3.872   8.580 -0.3852 -0.1402 -0.1690
 3281TIP3    H134038   1.875   3.829   8.553 -0.1685 -1.6078  1.3747
 3281TIP3    H234039   1.935   3.909   8.666  0.9045 -1.6725  0.8620
 3282TIP3   OH234040   6.447   6.598   8.505 -0.2402 -0.2637  0.2756
 3282TIP3    H134041   6.396   6.626   8.581  1.4820  0.4084  1.2324
 3282TIP3    H234042   6.483   6.513   8.531  0.0733 -0.1936  0.0643
 3283TIP3   OH234043   0.092   0.435   9.236 -0.2298  0.2253  1.1549
 3283TIP3    H134044   0.093   0.388   9.320  1.4670 -0.1734  0.9438
 3283TIP3    H234045   0.106   0.527   9.260 -0.6873  0.2376  1.3743
 3284TIP3   OH234046   4.516   0.321   8.488 -0.0840  0.5362  0.2213
 3284TIP3    H134047   4.464   0.373   8.428  0.5523  1.7627  0.6950
 3284TIP3    H234048   4.476   0.336   8.574 -0.3825 -0.4109  0.2599
 3285TIP3   OH234049   0.883   6.599   9.380  0.3795  0.2805  0.0312
 3285TIP3    H134050   0.899   6.514   9.341 -1.6119  0.1138 -0.5502
 3285TIP3    H234051   0.916   6.662   9.316 -0.9594 -0.0342 -1.0065
 3286TIP3   OH234052   4.595   3.661   7.230  0.2182 -0.3196  0.0664
 3286TIP3    H134053   4.590   3.566   7.215 -0.6856 -0.3497  0.4838
 3286TIP3    H234054   4.506   3.686   7.252  0.9484  0.1578  2.8018
 3287TIP3   OH234055   4.522   4.339   7.372  0.7608 -0.1992  0.0162
 3287TIP3    H134056   4.486   4.359   7.459 -3.1336  0.7498 -1.5994
 3287TIP3    H234057   4.535   4.425   7.332 -0.2354 -0.6201 -1.2684
 3288TIP3   OH234058   1.357   2.749   6.936 -0.4108  0.0737  0.1777
 3288TIP3    H134059   1.309   2.689   6.879  1.3988 -0.3447 -0.9896
 3288TIP3    H234060   1.393   2.814   6.876 -0.9370  1.3925  1.2411
 3289TIP3   OH234061   4.488   4.509   7.577 -0.6954 -0.2787  0.6257
 3289TIP3    H134062   4.469   4.479   7.666 -1.9799  1.1452  0.8789
 3289TIP3    H234063   4.404   4.537   7.542  0.1746  1.7514 -0.0264
 3290TIP3   OH234064   0.376   5.387   8.390 -0.1926  0.1532 -0.0155
 3290TIP3    H134065   0.330   5.370   8.472 -0.1983 -0.1862 -0.0881
 3290TIP3    H234066   0.374   5.303   8.343 -2.7269  0.9963 -1.6463
 3291TIP3   OH234067   5.799   3.407   8.560 -0.0978 -0.3913  0.3872
 3291TIP3    H134068   5.747   3.393   8.639 -0.9550 -0.6093 -0.1910
 3291TIP3    H234069   5.751   3.359   8.491  0.6034 -0.1757 -0.2655
 3292TIP3   OH234070   3.888   5.767   8.451 -0.8442 -0.3161  0.4136
 3292TIP3    H134071   3.982   5.758   8.462 -0.9679 -0.0908  1.8833
 3292TIP3    H234072   3.856   5.795   8.537 -2.1440  0.5172 -0.2992
 3293TIP3   OH234073   2.507   7.088   7.283  0.2819  0.0958 -0.0772
 3293TIP3    H134074   2.552   7.007   7.261  1.8096  0.4528  1.4735
 3293TIP3    H234075   2.448   7.104   7.210  1.6794 -1.1509 -1.5408
 3294TIP3   OH234076   1.739   3.733   8.514  0.2319  0.0109  0.7492
 3294TIP3    H134077   1.664   3.709   8.568 -0.2948  2.5126  1.2654
 3294TIP3    H234078   1.735   3.674   8.439 -0.3108 -2.0622  2.3209
 3295TIP3   OH234079   5.784   1.516   7.878  0.9898 -0.1893 -0.4563
 3295TIP3    H134080   5.752   1.426   7.888 -0.0513  0.3709  2.5261
 3295TIP3    H234081   5.847   1.526   7.949  1.9406  1.1230 -1.4534
 3296TIP3   OH234082   1.738   6.587   7.401  0.3376  0.3568 -0.1008
 3296TIP3    H134083   1.784   6.578   7.317  1.0671  1.2267  0.1885
 3296TIP3    H234084   1.753   6.503   7.445  0.9287  0.3177 -0.3612
 3297TIP3   OH234085   6.095   2.375   9.436 -0.4394 -0.1464  0.2501
 3297TIP3    H134086   6.150   2.351   9.511  0.5779  2.3473  0.4077
 3297TIP3    H234087   6.155   2.375   9.362  0.0561  3.0624  0.4967
 3298TIP3   OH234088   5.498   1.606   7.396  0.0622 -0.1980 -0.4430
 3298TIP3    H134089   5.480   1.698   7.379  1.0253  0.2606  0.8414
 3298TIP3    H234090   5.531   1.573   7.312  1.2676  1.0566 -0.5014
 3299TIP3   OH234091   3.658   1.503   6.875  0.0949 -0.4375 -0.9140
 3299TIP3    H134092   3.733   1.497   6.817  0.1606 -0.8953 -0.7866
 3299TIP3    H234093   3.678   1.577   6.933 -0.1320  0.2501 -1.6851
 3300TIP3   OH234094   7.158   7.630   7.600 -0.4782 -0.3616  0.4487
 3300TIP3    H134095   7.125   7.591   7.681 -1.2146  1.5758  1.1449
 3300TIP3    H234096   7.213   7.703   7.629  1.5360 -1.3259 -0.7802
 3301TIP3   OH234097   2.233   7.404   9.082  0.1501  0.4549 -0.0008
 3301TIP3    H134098   2.149   7.414   9.039 -0.7640  0.6158  1.7416
 3301TIP3    H234099   2.282   7.343   9.026 -1.8458 -1.1866 -0.0769
 3302TIP3   OH234100   6.025   7.525   8.423 -0.3270  0.1254 -0.1188
 3302TIP3    H134101   6.040   7.615   8.452 -2.9974  0.3032  1.0618
 3302TIP3    H234102   6.084   7.472   8.477 -1.7805  0.8862  2.4350
 3303TIP3   OH234103   6.011   5.171   9.225  0.3788  0.5980  0.4248
 3303TIP3    H134104   6.042   5.255   9.190  0.8559  0.2531  0.0065
 3303TIP3    H234105   5.930   5.193   9.271 -0.1225  1.1186 -0.6669
 3304TIP3   OH234106   3.182   2.582   9.143  0.4398  0.2348 -0.3274
 3304TIP3    H134107   3.226   2.667   9.138 -0.4859  0.6676 -1.3251
 3304TIP3    H234108   3.101   2.599   9.189 -0.0267  0.0188 -1.0508
 3305TIP3   OH234109   5.677   4.359   8.758  0.2801  0.1633  0.1219
 3305TIP3    H134110   5.628   4.436   8.729  0.5344  0.2574 -0.0683
 3305TIP3    H234111   5.627   4.324   8.831  0.9228  1.3731  1.1829
 3306TIP3   OH234112   0.164   4.439   7.631  0.1082 -0.2138 -0.1131
 3306TIP3    H134113   0.108   4.404   7.562 -0.6342 -0.3650  0.5439
 3306TIP3    H234114   0.118   4.518   7.660 -0.1206 -0.6807  0.8643
 3307TIP3   OH234115   5.088   5.689   7.323  0.4729 -0.0727  1.0610
 3307TIP3    H134116   5.168   5.742   7.324  0.2735  0.2259  2.0117
 3307TIP3    H234117   5.054   5.695   7.412 -0.1706 -0.8775  0.8805
 3308TIP3   OH234118   4.155   1.892   9.121 -0.2942 -0.2594 -0.2519
 3308TIP3    H134119   4.200   1.820   9.167 -1.4052 -0.7252  0.1520
 3308TIP3    H234120   4.176   1.970   9.173 -0.9781 -0.6742  0.6844
 3309TIP3   OH234121   0.648   3.412   7.142  0.4391 -0.4453  0.1967
 3309TIP3    H134122   0.737   3.381   7.126  0.0523 -0.7030 -1.7192
 3309TIP3    H234123   0.592   3.336   7.124 -0.2607  0.1229 -0.0944
 3310TIP3   OH234124   1.417   1.708   7.566  0.4567  0.1829  0.0681
 3310TIP3    H134125   1.324   1.723   7.547  0.5075 -0.2478 -0.5167
 3310TIP3    H234126   1.454   1.796   7.572 -0.1281  0.3860  1.0500
 3311TIP3   OH234127   3.554   5.424   8.797 -0.3126 -0.3543 -0.0389
 3311TIP3    H134128   3.462   5.402   8.786 -0.3648  0.1127 -0.5957
 3311TIP3    H234129   3.555   5.511   8.836 -0.1426  0.4853 -1.7855
 3312TIP3   OH234130   6.204   1.672   7.766  0.3976  1.2932 -0.2142
 3312TIP3    H134131   6.224   1.764   7.750  0.4158  1.5957  1.3796
 3312TIP3    H234132   6.111   1.672   7.791  0.5409  0.9620  0.3343
 3313TIP3   OH234133   0.081   1.567   7.971 -0.0618  0.0083 -0.1855
 3313TIP3    H134134   0.076   1.473   7.984 -0.5578  0.0836  0.2123
 3313TIP3    H234135   0.001   1.601   8.011 -2.1470  0.1989 -4.0612
 3314TIP3   OH234136   5.853   1.520   8.549  0.1330  0.1588 -0.4912
 3314TIP3    H134137   5.908   1.558   8.480  0.7032  0.2378 -0.0001
 3314TIP3    H234138   5.884   1.430   8.558  0.5442  0.3591  0.1516
 3315TIP3   OH234139   3.429   6.610   9.047 -0.0638 -0.3841 -0.0862
 3315TIP3    H134140   3.429   6.699   9.012  0.6490 -0.5084 -0.4265
 3315TIP3    H234141   3.344   6.601   9.090  0.2043  0.7566  0.7210
 3316TIP3   OH234142   6.726   0.336   8.880  0.1997  0.2786  0.1808
 3316TIP3    H134143   6.765   0.299   8.801 -2.8479 -1.9625 -0.4583
 3316TIP3    H234144   6.798   0.383   8.923  2.7285 -1.0368 -2.3014
 3317TIP3   OH234145   1.901   6.997   9.454 -0.1525  0.1059  0.2265
 3317TIP3    H134146   1.988   6.958   9.459 -0.2413 -0.0736  0.4241
 3317TIP3    H234147   1.841   6.923   9.464 -0.3198  0.3980  1.7351
 3318TIP3   OH234148   0.673   3.249   8.264  0.1877 -0.3531 -0.0098
 3318TIP3    H134149   0.734   3.245   8.190  0.2971  0.6709  0.0086
 3318TIP3    H234150   0.596   3.294   8.229  0.2092  0.0702  0.4629
 3319TIP3   OH234151   4.518   2.140   9.306  0.3637 -0.4440  0.0254
 3319TIP3    H134152   4.582   2.156   9.375 -1.3151  1.8412  1.1749
 3319TIP3    H234153   4.506   2.045   9.306  1.3750 -0.6227  1.9994
 3320TIP3   OH234154   3.962   3.680   8.182  0.7733  0.6178  0.3511
 3320TIP3    H134155   3.957   3.602   8.237 -0.7383 -0.1517 -0.8072
 3320TIP3    H234156   4.027   3.657   8.115  0.7302  0.5752  0.3240
 3321TIP3   OH234157   1.071   4.348   7.433 -0.5600  0.0706 -0.1560
 3321TIP3    H134158   1.016   4.271   7.416  0.8841 -1.1983  0.6560
 3321TIP3    H234159   1.111   4.330   7.518 -1.1014  2.3095  0.6241
 3322TIP3   OH234160   0.643   7.320   9.133 -0.3532  0.2689  0.0703
 3322TIP3    H134161   0.575   7.337   9.069 -2.3528 -1.2200  1.6520
 3322TIP3    H234162   0.642   7.396   9.190 -0.2233  0.5422 -0.2907
 3323TIP3   OH234163   4.308   4.536   8.400  0.2951  1.0018 -0.1130
 3323TIP3    H134164   4.307   4.517   8.306  1.2568  2.1995 -0.3861
 3323TIP3    H234165   4.322   4.630   8.405 -0.0109  0.9887  1.2376
 3324TIP3   OH234166   2.185   5.644   8.648 -0.0399 -0.4165 -0.0495
 3324TIP3    H134167   2.243   5.686   8.711 -1.3323  0.2085  0.7718
 3324TIP3    H234168   2.155   5.565   8.692 -0.7492 -0.1103  0.0270
 3325TIP3   OH234169   1.617   5.631   9.009  0.2681 -0.9476  0.0860
 3325TIP3    H134170   1.564   5.560   8.975 -1.0709 -0.2499  0.6458
 3325TIP3    H234171   1.665   5.592   9.083  0.1895 -1.4635 -0.1337
 3326TIP3   OH234172   2.323   3.901   9.049  0.0133 -0.3608 -0.0890
 3326TIP3    H134173   2.348   3.809   9.060 -1.5643 -0.9110 -0.8246
 3326TIP3    H234174   2.230   3.904   9.072 -0.1352  0.9118 -0.7435
 3327TIP3   OH234175   6.858   5.483   9.002 -0.5354  0.5936 -0.0119
 3327TIP3    H134176   6.944   5.510   8.970 -1.4555  2.3129 -1.1914
 3327TIP3    H234177   6.870   5.392   9.029  1.6963  0.8696  0.1041
 3328TIP3   OH234178   3.460   4.953   7.934  0.3861 -0.0023 -0.3328
 3328TIP3    H134179   3.452   5.046   7.910  3.2646  1.3514  3.1655
 3328TIP3    H234180   3.520   4.917   7.869 -0.3006  0.6429 -1.3770
 3329TIP3   OH234181   4.662   2.496   8.295 -0.3256  0.4122  0.4899
 3329TIP3    H134182   4.622   2.549   8.365  0.7055  2.0633 -0.1163
 3329TIP3    H234183   4.740   2.545   8.270 -0.2220 -0.5744 -1.2607
 3330TIP3   OH234184   2.673   5.676   8.531 -0.0417  0.1546  0.3198
 3330TIP3    H134185   2.600   5.614   8.525 -1.6377  1.9880 -0.2354
 3330TIP3    H234186   2.657   5.724   8.612 -0.3644  1.5875 -0.5496
 3331TIP3   OH234187   3.988   0.890   7.894 -0.0010  0.6630 -0.1237
 3331TIP3    H134188   4.070   0.854   7.929  0.1548  0.7863 -0.3567
 3331TIP3    H234189   3.920   0.838   7.935  0.1548  1.1378  0.7430
 3332TIP3   OH234190   1.913   6.265   8.690  0.3990  0.5093  0.2402
 3332TIP3    H134191   1.889   6.183   8.732  0.6442 -0.4886 -1.4742
 3332TIP3    H234192   1.833   6.318   8.695 -0.2338 -0.3967  0.1053
 3333TIP3   OH234193   0.491   1.603   7.665  0.1273  0.1686  0.1566
 3333TIP3    H134194   0.406   1.559   7.661  0.9096 -1.6512  1.8529
 3333TIP3    H234195   0.517   1.596   7.757  2.7965 -0.7266 -0.5747
 3334TIP3   OH234196   7.003   3.103   9.514  0.2425  0.1157  0.2633
 3334TIP3    H134197   6.993   3.033   9.579  1.4281  0.6705  1.0660
 3334TIP3    H234198   7.058   3.064   9.446 -1.0372 -0.4808 -0.4683
 3335TIP3   OH234199   6.479   1.507   9.010  0.6058  0.3476 -0.1001
 3335TIP3    H134200   6.509   1.539   8.925  1.6494  2.2006  0.9150
 3335TIP3    H234201   6.466   1.413   8.996  1.3345  0.4941 -2.1374
 3336TIP3   OH234202   6.918   7.422   9.181  0.1336 -0.0004  0.1552
 3336TIP3    H134203   6.887   7.399   9.093 -1.6493 -2.1302  1.2197
 3336TIP3    H234204   6.839   7.450   9.227  1.4682  3.9528  0.3794
 3337TIP3   OH234205   6.156   3.628   7.436 -0.0534  0.2505  0.2635
 3337TIP3    H134206   6.068   3.601   7.409 -0.6160  0.0282  2.1866
 3337TIP3    H234207   6.146   3.656   7.527  1.7092  1.0961  0.2451
 3338TIP3   OH234208   2.931   5.119   9.221  0.8594 -0.1773 -0.2473
 3338TIP3    H134209   2.848   5.112   9.174  0.5303  0.3057  0.2530
 3338TIP3    H234210   2.930   5.207   9.258  0.3748 -1.0717  2.0271
 3339TIP3   OH234211   6.584   4.184   7.416 -0.1982  0.2695 -0.1117
 3339TIP3    H134212   6.602   4.278   7.409  0.2527  0.0687 -2.4600
 3339TIP3    H234213   6.584   4.167   7.510  0.1202  2.5344  0.3642
 3340TIP3   OH234214   1.811   7.019   6.867  0.5713 -0.2338 -0.0649
 3340TIP3    H134215   1.778   7.039   6.954  1.3801  1.6304 -0.1493
 3340TIP3    H234216   1.745   7.053   6.807  1.5823  1.6118 -0.1966
 3341TIP3   OH234217   1.268   2.527   9.513 -0.5046  0.5483 -0.3371
 3341TIP3    H134218   1.359   2.555   9.507 -1.1237  2.4703 -3.2711
 3341TIP3    H234219   1.268   2.436   9.486  0.6672  0.0602  1.1958
 3342TIP3   OH234220   5.213   0.350   8.325  0.0549  0.0642 -0.7637
 3342TIP3    H134221   5.287   0.299   8.360  0.7584  2.1510  1.0043
 3342TIP3    H234222   5.137   0.318   8.374  0.2041 -0.3414 -0.7880
 3343TIP3   OH234223   6.961   6.366   7.779  0.5622 -0.2817  0.4685
 3343TIP3    H134224   6.883   6.333   7.823 -1.4597  0.2052 -2.5092
 3343TIP3    H234225   6.946   6.348   7.686  1.9592  3.6847 -0.7106
 3344TIP3   OH234226   5.126   3.536   8.056  0.3949  0.0546 -0.0759
 3344TIP3    H134227   5.041   3.519   8.015  0.0775  0.9777  0.1599
 3344TIP3    H234228   5.139   3.462   8.115  0.8085 -1.2412 -1.7162
 3345TIP3   OH234229   3.653   2.347   8.430 -0.2709 -0.1096 -0.0197
 3345TIP3    H134230   3.713   2.294   8.377 -0.9357 -1.0436  0.1274
 3345TIP3    H234231   3.577   2.291   8.442 -0.0750  0.0035  2.0915
 3346TIP3   OH234232   1.726   2.005   6.801 -0.1405  0.3493 -0.7021
 3346TIP3    H134233   1.654   2.016   6.738  0.4867  1.6228 -1.2464
 3346TIP3    H234234   1.790   1.951   6.755 -1.2930 -2.0105  0.3026
 3347TIP3   OH234235   4.070   4.976   9.129 -0.4443  0.2994  0.1524
 3347TIP3    H134236   3.974   4.980   9.126 -0.4676 -0.6296 -1.3955
 3347TIP3    H234237   4.091   4.891   9.092  1.0384  1.2453 -1.3164
 3348TIP3   OH234238   0.963   0.139   8.877 -0.1691 -0.1521 -0.2302
 3348TIP3    H134239   0.876   0.170   8.852 -0.8768 -0.4544  1.7088
 3348TIP3    H234240   0.964   0.047   8.852  0.5147  0.3621 -2.3964
 3349TIP3   OH234241   6.315   4.860   8.665  0.2495 -0.2578  0.0667
 3349TIP3    H134242   6.313   4.771   8.631  2.4754 -0.0275 -0.8585
 3349TIP3    H234243   6.385   4.903   8.615  0.4001  1.5095  1.6793
 3350TIP3   OH234244   5.801   6.659   9.353 -0.2977 -0.2678  0.4501
 3350TIP3    H134245   5.876   6.669   9.412  0.2689  0.1192 -0.3153
 3350TIP3    H234246   5.790   6.746   9.314  0.1965 -0.8494 -1.0212
 3351TIP3   OH234247   0.001   3.551   7.314 -0.0221 -0.1493 -0.1512
 3351TIP3    H134248  -0.033   3.468   7.281 -0.3982 -0.9180  1.9743
 3351TIP3    H234249  -0.049   3.618   7.267 -0.7891 -1.1510 -0.8218
 3352TIP3   OH234250   2.906   2.427   6.870  0.2416 -0.3399 -0.2303
 3352TIP3    H134251   2.908   2.350   6.928  1.1210 -0.3729 -0.2963
 3352TIP3    H234252   2.826   2.474   6.895  1.2628  0.3609  1.9288
 3353TIP3   OH234253   3.320   5.644   9.521 -0.0160 -0.4665 -0.6320
 3353TIP3    H134254   3.277   5.623   9.605 -0.5770  3.2104  0.1990
 3353TIP3    H234255   3.413   5.651   9.543 -0.0890 -0.1065 -0.4130
 3354TIP3   OH234256   3.076   1.173   7.794 -0.2316  0.3857 -0.5094
 3354TIP3    H134257   3.166   1.161   7.763 -0.1478 -2.2625  0.5321
 3354TIP3    H234258   3.024   1.113   7.741 -0.8371 -0.5197  1.0402
 3355TIP3   OH234259   0.992   6.609   9.046 -0.0906 -0.0337 -0.0804
 3355TIP3    H134260   0.984   6.688   9.100  1.0595  0.5056 -0.6761
 3355TIP3    H234261   0.906   6.568   9.051  0.0238 -0.1356  2.3755
 3356TIP3   OH234262   5.924   0.956   6.888 -0.2244 -0.2286 -0.0777
 3356TIP3    H134263   5.931   1.016   6.963  1.0806 -1.2791  0.6772
 3356TIP3    H234264   5.830   0.952   6.870 -0.5182  0.4585  1.1570
 3357TIP3   OH234265   5.701   0.110   8.629  0.1443  0.2092  0.1026
 3357TIP3    H134266   5.733   0.045   8.567  0.1497 -0.7694  1.0933
 3357TIP3    H234267   5.608   0.088   8.640  0.5886 -1.0105  2.0056
 3358TIP3   OH234268   0.857   2.679   7.411 -0.1933  0.0154 -0.6497
 3358TIP3    H134269   0.763   2.662   7.401 -0.6181  1.6601  0.0989
 3358TIP3    H234270   0.891   2.678   7.322 -1.3524  1.4387 -1.1558
 3359TIP3   OH234271   1.982   1.718   8.543 -0.7070 -0.1229  0.0417
 3359TIP3    H134272   2.048   1.708   8.612 -0.2265 -3.8572 -0.7629
 3359TIP3    H234273   1.899   1.703   8.588 -0.5066 -1.1756  0.0795
 3360TIP3   OH234274   0.972   5.562   7.421  0.5794  0.3890 -0.0203
 3360TIP3    H134275   1.018   5.618   7.359  0.3069  1.1996  0.4936
 3360TIP3    H234276   0.915   5.507   7.367 -0.3162  1.6989 -0.4477
 3361TIP3   OH234277   6.610   0.111   8.653 -0.1585 -0.3924 -0.0978
 3361TIP3    H134278   6.690   0.164   8.648 -1.6340  1.8276 -2.0071
 3361TIP3    H234279   6.609   0.062   8.572 -0.5513 -0.7136  0.1005
 3362TIP3   OH234280   6.587   6.326   8.505  0.3357 -0.4988 -0.3783
 3362TIP3    H134281   6.532   6.258   8.467  0.6748 -0.3464 -1.1686
 3362TIP3    H234282   6.671   6.316   8.461  1.2123 -1.2254  1.3574
 3363TIP3   OH234283   6.565   5.841   8.840  0.1150  0.4162  0.4917
 3363TIP3    H134284   6.520   5.776   8.894 -0.2302  1.2236  1.2031
 3363TIP3    H234285   6.631   5.879   8.898  0.4252  0.5857  0.0322
 3364TIP3   OH234286   2.967   0.998   8.146  0.1856  0.1768  0.5078
 3364TIP3    H134287   2.973   1.092   8.131 -1.6546  0.3832  0.8468
 3364TIP3    H234288   2.951   0.989   8.240 -2.4488 -0.2451  0.1043
 3365TIP3   OH234289   6.810   0.469   9.637 -0.5231  0.2262 -0.6764
 3365TIP3    H134290   6.720   0.491   9.662 -0.7472 -0.6719 -0.6442
 3365TIP3    H234291   6.848   0.551   9.607 -1.1850  0.7256 -0.1700
 3366TIP3   OH234292   7.271   3.222   7.980 -0.0761 -0.3835 -0.1031
 3366TIP3    H134293   7.207   3.223   8.051  0.3194  0.2905  0.2680
 3366TIP3    H234294   7.338   3.160   8.009 -0.3493 -0.7615 -0.2883
 3367TIP3   OH234295   0.738   2.101   6.871 -0.0273 -0.3418 -0.0313
 3367TIP3    H134296   0.747   2.073   6.780  0.3636  0.0003 -0.1044
 3367TIP3    H234297   0.828   2.121   6.899 -0.3548  1.6744 -0.2694
 3368TIP3   OH234298   0.466   1.321   8.498 -0.4286 -0.3788 -0.1359
 3368TIP3    H134299   0.456   1.294   8.589  1.0543 -2.7009 -0.5595
 3368TIP3    H234300   0.548   1.369   8.495 -1.3678  1.3148  0.0062
 3369TIP3   OH234301   1.104   6.004   9.501  0.1290  0.1802 -0.4763
 3369TIP3    H134302   1.053   6.067   9.551 -0.1611 -1.6330  1.6654
 3369TIP3    H234303   1.183   6.052   9.476  0.7487  0.9707  2.6135
 3370TIP3   OH234304   4.047   0.703   7.628 -0.0380  0.5999 -0.2210
 3370TIP3    H134305   4.104   0.772   7.594 -0.8660  1.6142  0.3808
 3370TIP3    H234306   4.064   0.703   7.723  0.2562 -0.3129 -0.2676
 3371TIP3   OH234307   0.040   5.586   9.183 -0.0041  0.1465  0.0958
 3371TIP3    H134308  -0.049   5.565   9.212 -0.9549 -0.6040 -3.0226
 3371TIP3    H234309   0.036   5.679   9.159  0.6053  0.5990  1.6381
 3372TIP3   OH234310   5.641   1.269   8.447  0.6872  0.2428 -0.2891
 3372TIP3    H134311   5.586   1.307   8.516 -0.5024  0.6263 -1.3964
 3372TIP3    H234312   5.691   1.201   8.492 -0.5189  0.0358  0.8452
 3373TIP3   OH234313   0.955   6.827   9.236 -0.5668  0.1541 -0.6145
 3373TIP3    H134314   1.022   6.878   9.282  0.6163 -0.4944 -1.5674
 3373TIP3    H234315   0.875   6.842   9.287  0.5036  0.1028  1.1777
 3374TIP3   OH234316   5.717   4.325   7.658 -0.6196 -0.0465  0.1138
 3374TIP3    H134317   5.660   4.375   7.717  1.1895  2.2950  0.0405
 3374TIP3    H234318   5.701   4.363   7.572 -0.9127 -1.2725 -0.3942
 3375TIP3   OH234319   0.520   6.044   7.661 -0.2673  0.3137 -0.1265
 3375TIP3    H134320   0.593   6.105   7.650 -0.5246  0.8305  0.8902
 3375TIP3    H234321   0.560   5.965   7.695 -0.0547  0.2500 -0.5219
 3376TIP3   OH234322   3.384   6.185   8.824 -0.1125  0.1234 -0.0033
 3376TIP3    H134323   3.444   6.252   8.856 -0.2499  0.2539 -0.0135
 3376TIP3    H234324   3.437   6.128   8.768 -0.0483  0.3701 -0.1952
 3377TIP3   OH234325   2.786   5.332   8.728  0.0917  0.0168  0.1047
 3377TIP3    H134326   2.777   5.379   8.812  0.4841  0.6434 -0.1979
 3377TIP3    H234327   2.880   5.311   8.723  0.0228 -0.2517 -0.0617
 3378TIP3   OH234328   0.165   3.289   8.437  0.5286  0.1844  0.6189
 3378TIP3    H134329   0.083   3.323   8.400  0.4565  0.7289  1.2622
 3378TIP3    H234330   0.216   3.261   8.361 -0.2946 -0.2631  0.2165
 3379TIP3   OH234331   3.152   0.596   8.021 -0.5813 -0.2095  0.0826
 3379TIP3    H134332   3.083   0.577   8.085 -1.5100 -2.2538 -1.3777
 3379TIP3    H234333   3.118   0.671   7.971 -0.9839 -0.1612  0.4219
 3380TIP3   OH234334   1.554   2.005   9.361  0.1213 -0.2397 -0.0852
 3380TIP3    H134335   1.621   2.066   9.330  0.3934  0.0522  1.0483
 3380TIP3    H234336   1.556   1.933   9.298  1.5788 -0.2851 -0.0093
 3381TIP3   OH234337   6.387   1.736   7.948 -0.4923  0.3611  0.2325
 3381TIP3    H134338   6.310   1.723   7.892 -0.1702 -2.0787  0.2779
 3381TIP3    H234339   6.352   1.780   8.026 -1.4200  1.2853 -0.6663
 3382TIP3   OH234340   1.032   0.496   7.313  0.1909 -0.1865 -0.0481
 3382TIP3    H134341   0.979   0.567   7.275  0.5027  0.6820  1.0818
 3382TIP3    H234342   1.014   0.421   7.256 -0.1413  0.7835 -1.2949
 3383TIP3   OH234343   0.213   7.584   8.271 -0.4084  0.0307 -0.6940
 3383TIP3    H134344   0.265   7.654   8.231 -0.0143 -0.4915 -1.0975
 3383TIP3    H234345   0.246   7.504   8.232  0.7111 -0.6057  1.4222
 3384TIP3   OH234346   7.223   3.234   8.623  0.0249  0.2709 -0.3374
 3384TIP3    H134347   7.225   3.298   8.693  2.6121 -1.8551  1.7124
 3384TIP3    H234348   7.133   3.238   8.590  0.1622  5.4160 -1.0195
 3385TIP3   OH234349   0.158   3.689   6.990  0.1551 -0.2811 -0.6523
 3385TIP3    H134350   0.246   3.655   7.004 -0.4418 -2.5755 -1.9240
 3385TIP3    H234351   0.102   3.611   6.995 -1.9709  1.2376  1.2093
 3386TIP3   OH234352   6.884   1.324   9.194 -0.4082 -0.4752 -0.5243
 3386TIP3    H134353   6.894   1.297   9.285 -1.3627  0.1936 -0.2097
 3386TIP3    H234354   6.799   1.368   9.191 -0.2841 -0.2821 -1.6883
 3387TIP3   OH234355   4.369   5.584   8.144  0.5263 -0.2796  0.4170
 3387TIP3    H134356   4.297   5.538   8.186  0.0131  0.8064  0.7647
 3387TIP3    H234357   4.387   5.659   8.201  0.9666  0.2539 -0.3890
 3388TIP3   OH234358   4.001   6.932   7.772 -0.3205  0.6285  0.4295
 3388TIP3    H134359   3.956   6.884   7.842 -1.6042  0.3931 -0.5258
 3388TIP3    H234360   3.989   6.878   7.694  0.6652  1.1308 -0.0842
 3389TIP3   OH234361   4.336   4.680   9.150  0.3332  0.1633 -0.4874
 3389TIP3    H134362   4.419   4.637   9.127  1.2023  1.3793  0.2598
 3389TIP3    H234363   4.343   4.697   9.243 -1.3585 -0.8983 -0.1192
 3390TIP3   OH234364   0.866   3.677   6.891  0.6906 -0.1296  0.5190
 3390TIP3    H134365   0.904   3.724   6.817 -0.5169  1.5184  0.9012
 3390TIP3    H234366   0.897   3.587   6.880 -0.4394 -0.2479 -2.7067
 3391TIP3   OH234367   6.622   6.713   8.886 -0.3670 -0.3677 -0.0447
 3391TIP3    H134368   6.547   6.764   8.917  0.5368  0.6439  0.5593
 3391TIP3    H234369   6.675   6.699   8.964  0.4234 -0.4612 -0.5876
 3392TIP3   OH234370   7.297   2.987   8.114  0.5106  0.0469 -0.0786
 3392TIP3    H134371   7.323   3.040   8.190  0.7430  1.3684 -1.0496
 3392TIP3    H234372   7.376   2.940   8.089  0.8441  0.7716 -0.4125
 3393TIP3   OH234373   1.339   5.870   7.121 -0.2931 -0.1418  0.2669
 3393TIP3    H134374   1.276   5.942   7.131 -0.7866 -0.5570  0.2104
 3393TIP3    H234375   1.391   5.872   7.201  0.4093  0.9451 -0.1932
 3394TIP3   OH234376   5.556   2.292   7.573  0.0671 -0.2383  0.1970
 3394TIP3    H134377   5.596   2.354   7.635 -0.6768  1.3034 -0.8045
 3394TIP3    H234378   5.574   2.329   7.487 -1.0871 -0.9961 -0.3917
 3395TIP3   OH234379   6.755   6.758   7.597  0.0307  0.1970 -0.2012
 3395TIP3    H134380   6.692   6.812   7.644 -0.3015  0.9823 -1.5084
 3395TIP3    H234381   6.827   6.745   7.660 -1.1495 -0.2494  1.1065
 3396TIP3   OH234382   7.084   4.490   7.690  0.5054  0.5966  0.2939
 3396TIP3    H134383   7.073   4.581   7.662 -0.0567  1.6053  3.3733
 3396TIP3    H234384   7.001   4.448   7.668  1.1950  0.4182 -2.2376
 3397TIP3   OH234385   2.965   1.646   7.339 -0.2287 -0.3499  0.5434
 3397TIP3    H134386   2.921   1.637   7.255  0.9935 -0.7999 -0.0676
 3397TIP3    H234387   2.945   1.736   7.367  1.2505  0.6305 -1.3439
 3398TIP3   OH234388   1.819   1.758   7.647 -0.6774  0.2795 -0.5657
 3398TIP3    H134389   1.725   1.741   7.634 -0.7466 -0.0681  0.3178
 3398TIP3    H234390   1.821   1.835   7.703 -0.4830 -0.7256  0.8613
 3399TIP3   OH234391   4.937   5.678   8.608  0.3331 -0.2796  0.1290
 3399TIP3    H134392   4.995   5.699   8.535  0.0803  1.1550  0.2969
 3399TIP3    H234393   4.864   5.632   8.569  0.1677  0.5281 -0.5525
 3400TIP3   OH234394   3.337   2.961   9.515 -0.5078  0.3324 -0.1606
 3400TIP3    H134395   3.414   2.908   9.533 -1.1269 -0.3190  0.6432
 3400TIP3    H234396   3.362   3.049   9.542 -0.1768  0.0518  0.4626
 3401TIP3   OH234397   6.217   0.357   8.231 -0.1428  0.2971  0.0363
 3401TIP3    H134398   6.194   0.288   8.294 -1.1527  1.0958  0.5549
 3401TIP3    H234399   6.158   0.429   8.251 -0.0556  0.8005 -1.4383
 3402TIP3   OH234400   2.686   7.329   7.850  0.1639 -0.0728 -0.2759
 3402TIP3    H134401   2.639   7.412   7.848  1.1199  0.4711 -1.0126
 3402TIP3    H234402   2.661   7.290   7.934 -1.8750 -0.0026 -0.7965
 3403TIP3   OH234403   2.502   4.140   7.442  0.3368 -0.0938  0.1285
 3403TIP3    H134404   2.554   4.092   7.507 -0.6413  0.3094  1.2592
 3403TIP3    H234405   2.453   4.072   7.396 -0.1291 -0.2936  0.8944
 3404TIP3   OH234406   0.760   1.037   6.457 -0.2253  0.7483  0.2389
 3404TIP3    H134407   0.685   1.048   6.515 -0.4836  1.5169 -0.2243
 3404TIP3    H234408   0.771   1.123   6.415  1.7511  1.0688  1.2968
 3405TIP3   OH234409   5.517   2.873   8.395  0.1392 -0.3096 -0.1724
 3405TIP3    H134410   5.495   2.814   8.467  0.7652 -0.2326  0.0986
 3405TIP3    H234411   5.602   2.910   8.421 -0.9321  1.8989  0.4405
 3406TIP3   OH234412   2.840   4.559   9.223 -0.3883  0.7348 -0.4132
 3406TIP3    H134413   2.881   4.637   9.187  1.1221 -0.7955 -2.2756
 3406TIP3    H234414   2.908   4.491   9.218 -0.7267 -0.1621  3.6313
 3407TIP3   OH234415   3.791   1.473   7.376  0.2387 -0.2364 -0.4327
 3407TIP3    H134416   3.795   1.568   7.382  1.7029 -0.2773 -0.4215
 3407TIP3    H234417   3.814   1.442   7.463 -0.3431 -0.6042 -0.4070
 3408TIP3   OH234418   1.709   5.280   7.034  0.5735  0.5179 -0.4520
 3408TIP3    H134419   1.720   5.204   7.092  0.2284  1.5386  1.0032
 3408TIP3    H234420   1.626   5.319   7.061  0.6389  1.2956 -1.3303
 3409TIP3   OH234421   5.361   5.861   8.496  0.1910 -0.2184 -0.1175
 3409TIP3    H134422   5.275   5.845   8.457  0.5742 -2.2431 -0.2602
 3409TIP3    H234423   5.414   5.786   8.467  1.7484  0.5346  0.6856
 3410TIP3   OH234424   4.544   4.021   8.440  0.2449 -0.0516 -0.5260
 3410TIP3    H134425   4.569   3.957   8.373  0.7329  0.7239 -1.0913
 3410TIP3    H234426   4.473   4.072   8.399  0.5712  0.4478 -0.4728
 3411TIP3   OH234427   0.943   1.425   7.204  0.1220 -0.0681 -0.1178
 3411TIP3    H134428   0.954   1.492   7.272 -0.2202 -0.4448  0.3233
 3411TIP3    H234429   1.026   1.379   7.201  0.2781  0.2195 -0.2531
 3412TIP3   OH234430   3.301   6.620   8.279 -0.4636  0.7784  0.7631
 3412TIP3    H134431   3.274   6.694   8.224 -3.0632  0.0074  0.8734
 3412TIP3    H234432   3.385   6.592   8.241  0.7039  3.7973  0.8100
 3413TIP3   OH234433   3.372   2.704   7.352 -0.0632 -0.1854 -0.4559
 3413TIP3    H134434   3.347   2.772   7.290  1.5659  0.7505 -0.1358
 3413TIP3    H234435   3.293   2.689   7.405 -0.5639  1.1405 -0.7982
 3414TIP3   OH234436   1.994   0.342   9.174  0.5589  0.2377  0.3219
 3414TIP3    H134437   2.020   0.269   9.118  0.8636 -1.2662  2.3092
 3414TIP3    H234438   2.077   0.380   9.203  0.4041  1.5680 -0.8725
 3415TIP3   OH234439   3.185   7.357   7.147 -0.0333 -0.5482  0.1643
 3415TIP3    H134440   3.205   7.450   7.136  0.0350 -0.5957 -0.1354
 3415TIP3    H234441   3.168   7.326   7.058 -1.9658 -0.4031  0.4371
 3416TIP3   OH234442   4.508   7.214   6.856 -0.0731 -0.1352 -0.4582
 3416TIP3    H134443   4.512   7.127   6.896 -1.3646  0.7507  1.7989
 3416TIP3    H234444   4.599   7.236   6.835  0.3208 -1.7842 -0.5790
 3417TIP3   OH234445   1.544   4.315   8.304  0.1907 -0.2248 -0.2820
 3417TIP3    H134446   1.587   4.351   8.226 -0.9279  0.9248 -0.3901
 3417TIP3    H234447   1.512   4.229   8.277 -0.2608  0.2033 -1.1293
 3418TIP3   OH234448   0.651   1.203   7.546 -0.0150 -0.3728 -0.6672
 3418TIP3    H134449   0.678   1.132   7.604  0.4622 -2.3120 -3.0940
 3418TIP3    H234450   0.691   1.281   7.583  0.3197 -1.4949  1.5256
 3419TIP3   OH234451   1.099   4.814   8.214 -0.4355  0.1866  0.2110
 3419TIP3    H134452   1.089   4.873   8.139 -2.6714  0.1002  0.3701
 3419TIP3    H234453   1.193   4.812   8.231 -0.1305  2.2755 -0.9326
 3420TIP3   OH234454   6.246   2.337   7.792 -0.0552  0.1962 -0.5023
 3420TIP3    H134455   6.303   2.413   7.809 -0.2428 -0.1194  1.8344
 3420TIP3    H234456   6.304   2.274   7.749  0.6589  0.8736 -0.5669
 3421TIP3   OH234457   2.188   5.438   7.565 -0.3632 -0.2895  0.0184
 3421TIP3    H134458   2.269   5.437   7.516 -0.5245  3.9618 -0.6978
 3421TIP3    H234459   2.125   5.392   7.510  0.7530 -0.4517 -1.1454
 3422TIP3   OH234460   7.332   4.902   9.128 -0.3325 -0.5564  0.5502
 3422TIP3    H134461   7.294   4.842   9.064 -0.3595 -0.3929  0.4119
 3422TIP3    H234462   7.291   4.879   9.211  0.7670 -1.7483  0.7940
 3423TIP3   OH234463   7.296   3.322   9.024 -0.4994 -0.0252 -0.0669
 3423TIP3    H134464   7.247   3.250   9.064  0.8270 -0.4318  0.8887
 3423TIP3    H234465   7.229   3.388   9.003 -1.6852 -1.3251 -0.5657
 3424TIP3   OH234466   4.950   4.685   8.994  0.1693 -0.0750 -0.6996
 3424TIP3    H134467   4.959   4.641   9.079 -1.4963  0.7327 -0.0615
 3424TIP3    H234468   4.927   4.616   8.933  1.3007 -0.6544 -0.4894
 3425TIP3   OH234469   6.352   5.462   9.487 -0.1154  0.3577  0.2283
 3425TIP3    H134470   6.436   5.483   9.447  0.0504 -0.4605  0.1222
 3425TIP3    H234471   6.359   5.493   9.577  0.6083 -0.4080  0.4493
 3426TIP3   OH234472   4.472   0.907   6.674  0.1466 -0.1235  0.0811
 3426TIP3    H134473   4.471   0.813   6.656 -0.6772  0.3090 -2.6749
 3426TIP3    H234474   4.550   0.939   6.628 -0.1248  0.6696  0.1635
 3427TIP3   OH234475   2.856   0.475   8.456  0.1176 -0.5761 -0.5158
 3427TIP3    H134476   2.788   0.536   8.486  1.1303  0.1734  0.3687
 3427TIP3    H234477   2.889   0.514   8.375  2.2951  1.3860  1.1621
 3428TIP3   OH234478   3.497   5.896   7.681 -0.1783 -0.0690 -0.0975
 3428TIP3    H134479   3.524   5.978   7.722  1.2732 -0.0559 -1.0005
 3428TIP3    H234480   3.468   5.841   7.753 -0.3442  0.9295  0.6166
 3429TIP3   OH234481   2.535   0.607   8.412 -0.1364 -0.3339  0.2162
 3429TIP3    H134482   2.573   0.613   8.500  0.9886 -2.1239 -0.0873
 3429TIP3    H234483   2.591   0.664   8.358 -2.3929  2.9063  1.0228
 3430TIP3   OH234484   6.331   7.220   7.882 -0.1565  0.3172 -0.3788
 3430TIP3    H134485   6.248   7.174   7.870  0.2885 -0.3732 -0.8988
 3430TIP3    H234486   6.318   7.274   7.960 -0.5352 -1.0841  0.5749
 3431TIP3   OH234487   6.043   2.724   8.908 -0.1859  0.3178 -0.4025
 3431TIP3    H134488   6.004   2.680   8.983  1.1705 -0.3319 -0.0370
 3431TIP3    H234489   6.113   2.665   8.879  0.9694  1.7085 -0.5744
 3432TIP3   OH234490   1.050   5.926   7.018  0.4936  0.2781  0.1019
 3432TIP3    H134491   1.079   5.853   6.964  0.0426 -0.4721  0.8533
 3432TIP3    H234492   1.049   6.001   6.959  0.0593 -0.5146 -0.9188
 3433TIP3   OH234493   1.178   4.865   9.324 -0.0564 -0.1508 -0.0098
 3433TIP3    H134494   1.125   4.872   9.245 -0.5767  2.0506  0.4783
 3433TIP3    H234495   1.130   4.914   9.391  1.0073 -0.8591  1.3459
 3434TIP3   OH234496   4.353   0.356   8.077 -0.2577  0.0380  0.3070
 3434TIP3    H134497   4.399   0.440   8.079 -1.3929  0.6900  0.4556
 3434TIP3    H234498   4.261   0.380   8.064 -0.8037 -1.1062  1.7486
 3435TIP3   OH234499   1.284   4.309   8.387 -0.1823 -0.6840  0.5373
 3435TIP3    H134500   1.375   4.321   8.363 -0.9853 -0.2949 -2.7382
 3435TIP3    H234501   1.261   4.389   8.436  1.3648 -1.1478  2.0957
 3436TIP3   OH234502   4.554   2.030   7.754 -0.1278  0.4688  0.0838
 3436TIP3    H134503   4.484   2.087   7.787  1.2577  1.3198  1.7283
 3436TIP3    H234504   4.632   2.059   7.802  1.1911 -0.9719 -1.1163
 3437TIP3   OH234505   5.919   4.132   8.584  0.2536 -0.3027 -0.2579
 3437TIP3    H134506   5.848   4.177   8.538  0.3531 -0.2189 -0.3300
 3437TIP3    H234507   5.932   4.183   8.664 -0.5745 -0.9965  0.3425
 3438TIP3   OH234508   0.931   4.013   9.266  0.0677 -0.2797 -0.8486
 3438TIP3    H134509   0.985   4.037   9.191  1.9412 -1.1179  0.1672
 3438TIP3    H234510   0.900   4.097   9.300  1.6224  0.3326 -0.8403
 3439TIP3   OH234511   1.761   5.624   7.934 -0.1387 -0.3651  0.2425
 3439TIP3    H134512   1.738   5.684   8.005  0.6201  2.4114 -1.7307
 3439TIP3    H234513   1.720   5.541   7.960 -1.3817  0.9787  3.0274
 3440TIP3   OH234514   1.618   1.278   8.599 -0.0342  0.6488 -0.0333
 3440TIP3    H134515   1.552   1.266   8.531  1.9270  1.9472 -2.3362
 3440TIP3    H234516   1.599   1.364   8.636 -1.4927 -0.3246  1.6352
 3441TIP3   OH234517   5.389   5.243   8.659  0.0576 -0.3820 -0.1484
 3441TIP3    H134518   5.402   5.267   8.567  1.6689  2.3465  0.6751
 3441TIP3    H234519   5.477   5.225   8.692 -0.1227  1.3875  1.4763
 3442TIP3   OH234520   1.614   1.580   9.338  0.0740 -0.0789  0.3864
 3442TIP3    H134521   1.599   1.645   9.269  0.1295  0.4811  0.8929
 3442TIP3    H234522   1.709   1.575   9.347  0.0607  0.3487  0.8703
 3443TIP3   OH234523   0.501   1.640   8.741  0.2657  0.1363  0.4119
 3443TIP3    H134524   0.482   1.723   8.696 -1.8741 -1.9160 -2.8774
 3443TIP3    H234525   0.424   1.624   8.795  0.7040  0.2880  1.0919
 3444TIP3   OH234526   2.363   1.045   7.610 -0.3886  0.1761  0.6996
 3444TIP3    H134527   2.299   1.113   7.592  2.0432  2.1951 -0.8639
 3444TIP3    H234528   2.442   1.092   7.636  0.8517 -2.1593  1.4445
 3445TIP3   OH234529   5.609   0.119   9.439  1.0009 -0.3446  0.1998
 3445TIP3    H134530   5.597   0.145   9.530 -0.9258 -2.7501  0.7377
 3445TIP3    H234531   5.545   0.172   9.390  0.9404 -0.1543  0.4844
 3446TIP3   OH234532   0.070   6.832   8.509 -0.2525  0.2961  0.7181
 3446TIP3    H134533   0.110   6.817   8.423 -1.4805  0.2063  0.1449
 3446TIP3    H234534   0.091   6.924   8.529  2.5229 -0.4373  1.6955
 3447TIP3   OH234535   3.930   6.729   7.949 -0.3847  0.1334  0.5929
 3447TIP3    H134536   3.942   6.731   8.044 -0.8300  1.0083  0.6360
 3447TIP3    H234537   4.004   6.678   7.917  0.5176  0.9575  1.3072
 3448TIP3   OH234538   2.789   6.738   9.029 -0.6391  0.2007 -0.6516
 3448TIP3    H134539   2.820   6.653   9.061 -2.2935 -0.2689 -0.2290
 3448TIP3    H234540   2.865   6.775   8.984  0.8561 -0.4418  1.2071
 3449TIP3   OH234541   1.988   0.173   7.520 -0.0043  0.3985  0.0681
 3449TIP3    H134542   2.042   0.199   7.445 -1.2301 -0.4256 -1.1613
 3449TIP3    H234543   1.961   0.255   7.560  1.9655  0.8343  0.6039
 3450TIP3   OH234544   5.586   4.210   7.984 -0.5312 -0.0512 -0.2972
 3450TIP3    H134545   5.547   4.215   7.897  0.1163 -0.5517 -0.6278
 3450TIP3    H234546   5.543   4.136   8.026  1.2691 -1.7474 -1.3107
 3451TIP3   OH234547   3.373   1.790   8.103 -0.8213 -0.4626  0.3120
 3451TIP3    H134548   3.366   1.803   8.008 -1.1037  0.1356  0.4114
 3451TIP3    H234549   3.300   1.840   8.139  0.0392  0.3901  0.9355
 3452TIP3   OH234550   5.843   4.242   8.084  0.3025  0.2387 -0.2563
 3452TIP3    H134551   5.750   4.252   8.067  0.5123  1.0037 -0.9988
 3452TIP3    H234552   5.886   4.302   8.023  1.2397  0.5395  0.6678
 3453TIP3   OH234553   7.033   6.644   7.773 -0.6538  0.1691 -0.5484
 3453TIP3    H134554   7.053   6.650   7.866 -0.0171  0.6869 -0.7092
 3453TIP3    H234555   7.002   6.554   7.760  0.8989 -0.4538 -0.1401
 3454TIP3   OH234556   2.006   2.845   8.314 -0.1912 -0.0511  0.6317
 3454TIP3    H134557   2.080   2.904   8.297  2.5981 -3.6889 -1.3202
 3454TIP3    H234558   1.947   2.858   8.239  0.3550  0.2798  0.2527
 3455TIP3   OH234559   3.581   2.138   8.195  0.3414 -0.5012  0.8269
 3455TIP3    H134560   3.564   2.054   8.239 -1.8778  0.3831  1.7990
 3455TIP3    H234561   3.494   2.174   8.178  1.2211  0.9918 -0.8754
 3456TIP3   OH234562   3.436   1.958   9.606  0.3735 -0.2294  0.1140
 3456TIP3    H134563   3.354   1.956   9.656  0.1172  0.7976 -0.2371
 3456TIP3    H234564   3.468   2.048   9.617  0.7547 -0.2358 -0.8662
 3457TIP3   OH234565   0.097   1.415   6.949 -0.3428  0.3028  0.1404
 3457TIP3    H134566   0.187   1.422   6.917 -0.0715 -0.8169  0.6204
 3457TIP3    H234567   0.084   1.494   7.001  0.1768  0.7317 -0.3695
 3458TIP3   OH234568   1.227   0.143   7.427 -0.4230 -0.0396 -0.0276
 3458TIP3    H134569   1.216   0.237   7.413 -1.5578  0.2515  2.2849
 3458TIP3    H234570   1.141   0.105   7.406  0.3169 -0.7513 -1.9573
 3459TIP3   OH234571   2.017   0.739   7.870  0.2732 -0.4294  0.6243
 3459TIP3    H134572   2.063   0.753   7.787  0.0180 -0.2312  0.5164
 3459TIP3    H234573   2.030   0.821   7.919 -1.0782  0.1396  0.0621
 3460TIP3   OH234574   2.971   4.386   8.833  0.5112 -0.0686  0.2422
 3460TIP3    H134575   2.944   4.470   8.796  0.1261 -0.1496  0.3396
 3460TIP3    H234576   2.901   4.362   8.893  1.1024  0.0358  0.9991
 3461TIP3   OH234577   3.914   3.096   8.879 -0.0131  0.1635  0.2361
 3461TIP3    H134578   3.948   3.082   8.791  0.7309 -0.0934  0.5583
 3461TIP3    H234579   3.965   3.170   8.912 -0.4757  0.4299  0.3572
 3462TIP3   OH234580   4.025   2.142   7.771  0.1967  0.2722 -0.6355
 3462TIP3    H134581   4.035   2.235   7.751 -0.1041  0.7358  1.2286
 3462TIP3    H234582   4.112   2.105   7.757  0.2373  0.7430 -1.7375
 3463TIP3   OH234583   5.036   1.781   8.953 -0.4446  0.1801  0.3176
 3463TIP3    H134584   5.006   1.870   8.931  0.0022  0.0786 -0.7627
 3463TIP3    H234585   5.055   1.741   8.868 -1.2416 -1.1803  0.7491
 3464TIP3   OH234586   0.910   4.710   8.666  0.6868 -0.1398  0.1160
 3464TIP3    H134587   0.870   4.633   8.705  1.3889  0.3166  1.8324
 3464TIP3    H234588   0.935   4.683   8.578 -0.6844 -1.3134  0.0641
 3465TIP3   OH234589   0.221   4.756   8.700  0.2911  0.4345  0.1306
 3465TIP3    H134590   0.292   4.697   8.676 -0.6689 -0.7751  0.2333
 3465TIP3    H234591   0.266   4.835   8.730  1.6281 -0.6350  1.0600
 3466TIP3   OH234592   6.317   4.345   8.263 -0.0082  0.1286  0.5883
 3466TIP3    H134593   6.257   4.295   8.318 -1.1491  1.8134  0.9483
 3466TIP3    H234594   6.291   4.436   8.275 -0.0004  0.6351 -2.3455
 3467TIP3   OH234595   1.367   0.626   8.868  0.0177 -0.0881 -0.4711
 3467TIP3    H134596   1.428   0.552   8.874 -0.0509 -0.1406 -0.4079
 3467TIP3    H234597   1.359   0.643   8.774  0.4879  0.2235 -0.4530
 3468TIP3   OH234598   0.260   7.124   9.485 -0.4517 -0.3767 -0.4901
 3468TIP3    H134599   0.309   7.206   9.493  0.6027 -0.7108 -2.6390
 3468TIP3    H234600   0.326   7.059   9.461 -1.4000 -1.6747  0.2945
 3469TIP3   OH234601   7.199   1.173   7.515  0.7097 -0.4980 -0.0601
 3469TIP3    H134602   7.128   1.114   7.487 -1.1313  1.6669 -0.2759
 3469TIP3    H234603   7.183   1.188   7.608 -0.2433  1.3289 -0.4640
 3470TIP3   OH234604   6.851   2.209   7.840 -0.2479 -0.0666 -0.3956
 3470TIP3    H134605   6.775   2.159   7.811  0.1032 -1.5867  1.1243
 3470TIP3    H234606   6.863   2.184   7.932  1.5312  0.8316 -0.3288
 3471TIP3   OH234607   2.619   0.740   6.694  0.3735 -0.3301  0.1288
 3471TIP3    H134608   2.534   0.697   6.700  0.3170 -0.1608  0.5978
 3471TIP3    H234609   2.601   0.825   6.655  0.0757  0.3633  1.6913
 3472TIP3   OH234610   4.774   6.775   7.355 -0.2007 -0.0112 -0.4620
 3472TIP3    H134611   4.702   6.837   7.344 -0.0201  0.1115 -0.9637
 3472TIP3    H234612   4.746   6.718   7.427  0.0396  1.2260  0.6480
 3473TIP3   OH234613   6.104   0.506   6.799 -0.0050  0.2150  0.2621
 3473TIP3    H134614   6.080   0.545   6.715  1.9094 -0.5243 -0.6756
 3473TIP3    H234615   6.074   0.416   6.793 -2.5016  0.8506  1.5963
 3474TIP3   OH234616   3.477   1.990   8.780  0.7454 -0.1805  0.1034
 3474TIP3    H134617   3.479   2.067   8.723 -0.2592  0.0414  0.3460
 3474TIP3    H234618   3.523   2.019   8.859  1.5308 -0.2643 -0.3203
 3475TIP3   OH234619   3.622   0.236   8.882  0.3836  0.2596  0.2805
 3475TIP3    H134620   3.602   0.327   8.863  1.7263  0.3593 -0.8698
 3475TIP3    H234621   3.658   0.201   8.800 -2.3019 -2.0209 -0.0897
 3476TIP3   OH234622   2.137   2.887   7.702  0.4650  0.2152  0.4317
 3476TIP3    H134623   2.177   2.973   7.716  0.2620  0.5609 -0.9849
 3476TIP3    H234624   2.211   2.826   7.699  0.8502  0.7262 -1.2505
 3477TIP3   OH234625   7.427   2.779   7.407  0.1011  0.1993 -0.0422
 3477TIP3    H134626   7.391   2.859   7.369 -0.9917  0.1586  0.8644
 3477TIP3    H234627   7.413   2.712   7.340 -0.0690  0.5148 -0.3226
 3478TIP3   OH234628   6.975   5.834   7.503  0.4090  0.2923 -0.1417
 3478TIP3    H134629   7.024   5.862   7.580 -0.0961  0.2137  0.2124
 3478TIP3    H234630   6.977   5.910   7.444 -0.1420  0.7370  0.4112
 3479TIP3   OH234631   2.633   4.539   8.303  0.2698  0.2628  0.0900
 3479TIP3    H134632   2.568   4.602   8.274  0.6336  0.4176 -0.4062
 3479TIP3    H234633   2.706   4.550   8.242  0.6391 -0.1147  0.4546
 3480TIP3   OH234634   0.416   1.274   9.200  0.3131  0.2798 -0.2682
 3480TIP3    H134635   0.507   1.281   9.173  0.5837  2.1067  0.9498
 3480TIP3    H234636   0.419   1.268   9.295 -0.8004 -1.2191 -0.2882
 3481TIP3   OH234637   2.726   2.194   6.906  0.2043 -0.3616  0.6699
 3481TIP3    H134638   2.770   2.109   6.902  2.7036  0.8591 -0.0852
 3481TIP3    H234639   2.749   2.237   6.823 -0.9028  1.1078  1.0809
 3482TIP3   OH234640   2.722   5.416   8.974 -0.0517  0.6214  0.6814
 3482TIP3    H134641   2.733   5.511   8.965  0.3245  0.7245  2.0303
 3482TIP3    H234642   2.630   5.405   8.998 -0.2660  0.5844 -0.1353
 3483TIP3   OH234643   5.820   7.483   8.611  0.4552 -0.5233  0.5433
 3483TIP3    H134644   5.877   7.451   8.681  0.7221 -0.7403  0.2306
 3483TIP3    H234645   5.877   7.485   8.533  0.3759  0.4498  0.4934
 3484TIP3   OH234646   5.630   5.175   8.781  0.0251 -0.1278  0.5678
 3484TIP3    H134647   5.703   5.215   8.829  1.4519 -0.4739 -1.1887
 3484TIP3    H234648   5.652   5.082   8.779  0.8311  0.0547 -1.9777
 3485TIP3   OH234649   6.463   1.217   9.309  0.5640  0.5026 -0.6322
 3485TIP3    H134650   6.408   1.240   9.234 -1.6351 -2.9455 -0.2926
 3485TIP3    H234651   6.441   1.283   9.375 -3.1702 -0.4822 -0.6346
 3486TIP3   OH234652   7.215   5.704   8.983  0.6708  0.5989 -0.1245
 3486TIP3    H134653   7.194   5.611   8.989 -0.4897  0.7872 -1.0679
 3486TIP3    H234654   7.242   5.717   8.892  2.0296  0.9755  0.2934
 3487TIP3   OH234655   0.796   0.743   8.191 -0.3678  0.2587 -0.3022
 3487TIP3    H134656   0.855   0.777   8.258 -0.1355 -0.2616 -0.2386
 3487TIP3    H234657   0.799   0.808   8.121 -0.1512  0.5110 -0.0567
 3488TIP3   OH234658   5.085   0.654   8.969  0.2691 -0.1891  0.2974
 3488TIP3    H134659   4.999   0.693   8.985 -0.5774 -1.3204 -1.2367
 3488TIP3    H234660   5.067   0.575   8.919  2.1640 -0.9296  0.6931
 3489TIP3   OH234661   5.024   2.641   6.768 -0.2972  0.3176  0.2657
 3489TIP3    H134662   4.967   2.691   6.710 -0.6784 -1.4397 -0.9413
 3489TIP3    H234663   5.108   2.687   6.766 -1.2180  2.1390  0.9713
 3490TIP3   OH234664   5.591   1.936   8.760 -0.1701  0.1444  0.3126
 3490TIP3    H134665   5.653   2.007   8.777  1.6237 -1.5656  1.2255
 3490TIP3    H234666   5.580   1.936   8.665 -1.9731  2.9763  0.3727
 3491TIP3   OH234667   2.505   1.912   7.739 -0.3998  0.1240  0.0567
 3491TIP3    H134668   2.510   1.983   7.802 -0.8826 -0.0724  0.3210
 3491TIP3    H234669   2.577   1.853   7.763 -0.7915 -0.1227  0.6448
 3492TIP3   OH234670   0.690   3.054   6.709  0.3006 -0.7228 -0.6027
 3492TIP3    H134671   0.624   3.025   6.772  1.4280  0.8880  1.4726
 3492TIP3    H234672   0.650   3.129   6.665 -0.1714 -1.3239 -1.2170
 3493TIP3   OH234673   0.583   3.150   7.737 -0.0996  0.1461  0.0309
 3493TIP3    H134674   0.489   3.170   7.738  0.0055  0.6446  0.2926
 3493TIP3    H234675   0.596   3.095   7.815 -0.3723 -0.8905 -0.6393
 3494TIP3   OH234676   6.780   2.035   6.670 -0.5041  0.4733  0.0795
 3494TIP3    H134677   6.741   1.948   6.672 -0.2488  0.3583  0.1234
 3494TIP3    H234678   6.773   2.067   6.760 -1.8688  1.0742 -0.2103
 3495TIP3   OH234679   0.452   1.223   8.755  0.0592  0.5127 -0.5373
 3495TIP3    H134680   0.419   1.287   8.818 -0.0802  0.9591 -1.0530
 3495TIP3    H234681   0.383   1.157   8.749 -1.2459  1.8983 -2.2939
 3496TIP3   OH234682   1.081   7.347   8.971  0.7511  0.6546 -0.6602
 3496TIP3    H134683   1.131   7.288   8.914  1.5421 -0.6140  1.2500
 3496TIP3    H234684   1.139   7.421   8.987  1.8073 -0.4325  0.8892
 3497TIP3   OH234685   2.955   4.847   6.717 -0.7281  0.6112 -0.0379
 3497TIP3    H134686   2.947   4.916   6.651  0.4737  2.0230  1.2251
 3497TIP3    H234687   2.982   4.893   6.797  0.0829 -1.3102  0.8580
 3498TIP3   OH234688   0.494   2.744   6.970  0.1014  0.2979 -0.4170
 3498TIP3    H134689   0.400   2.725   6.974 -0.4288  2.3827 -1.4310
 3498TIP3    H234690   0.498   2.835   6.940  2.4232  0.7686  1.0856
 3499TIP3   OH234691   1.404   4.452   7.350  0.0000 -0.1164  0.0806
 3499TIP3    H134692   1.389   4.505   7.429  0.0987  1.6010 -1.0127
 3499TIP3    H234693   1.479   4.493   7.307 -0.4601 -0.6149 -1.2474
 3500TIP3   OH234694   3.528   3.229   6.979  0.0382  0.1173  0.2762
 3500TIP3    H134695   3.487   3.295   6.923  0.6204 -1.3452 -2.0087
 3500TIP3    H234696   3.465   3.157   6.979  1.5221 -1.2566 -1.4140
 3501TIP3   OH234697   7.348   5.515   6.702  0.1840  0.2388 -0.0493
 3501TIP3    H134698   7.392   5.593   6.668  1.6228 -0.0513  1.0321
 3501TIP3    H234699   7.401   5.442   6.669 -1.3018 -0.3289 -1.2788
 3502TIP3   OH234700   1.336   7.503   7.647 -0.2665  0.0174  0.1307
 3502TIP3    H134701   1.304   7.574   7.702  0.5993 -1.2243  2.3549
 3502TIP3    H234702   1.428   7.493   7.671 -0.2410 -1.5158 -0.4766
 3503TIP3   OH234703   3.025   4.626   7.721  0.0954 -0.2855  0.1190
 3503TIP3    H134704   3.087   4.698   7.719  0.5259 -0.6377 -1.9568
 3503TIP3    H234705   3.040   4.583   7.805 -1.2813  2.8700  2.1705
 3504TIP3   OH234706   2.313   6.220   7.869 -0.4506 -0.2195  0.3619
 3504TIP3    H134707   2.388   6.219   7.809 -1.6685  1.7119 -1.3281
 3504TIP3    H234708   2.344   6.270   7.945  0.8721 -2.0615  1.1223
 3505TIP3   OH234709   0.114   7.356   7.341  0.3720 -0.1246 -0.5915
 3505TIP3    H134710   0.070   7.290   7.288  3.1272 -1.1890 -1.7198
 3505TIP3    H234711   0.141   7.423   7.279 -0.7135  1.1738  0.2766
 3506TIP3   OH234712   0.937   2.684   6.899  0.7661 -0.1822 -0.3936
 3506TIP3    H134713   1.006   2.625   6.869  0.2044 -0.5261 -1.0409
 3506TIP3    H234714   0.896   2.715   6.818 -1.1949 -1.6109 -0.0025
 3507TIP3   OH234715   3.581   5.987   8.398 -0.4432 -0.1186 -0.0940
 3507TIP3    H134716   3.619   6.016   8.481  0.4554  0.7741 -0.7846
 3507TIP3    H234717   3.644   6.016   8.332 -0.4806 -1.9438 -1.0016
 3508TIP3   OH234718   0.023   2.047   7.373  0.4399  0.0990 -0.2622
 3508TIP3    H134719   0.082   2.118   7.397 -1.2728  0.4224  3.7258
 3508TIP3    H234720   0.066   1.968   7.406 -0.2377  0.0207  0.4349
 3509TIP3   OH234721   4.574   2.003   8.878  0.0730  0.6851  0.1737
 3509TIP3    H134722   4.514   2.008   8.804 -0.6463 -0.3028  0.6660
 3509TIP3    H234723   4.556   1.918   8.918  2.6447 -0.1942 -0.3615
 3510TIP3   OH234724   3.732   5.408   9.218  0.0757 -0.0745  0.3663
 3510TIP3    H134725   3.675   5.333   9.236 -0.6356 -0.0488 -1.6371
 3510TIP3    H234726   3.814   5.369   9.187  0.3162 -0.0441  0.9447
 3511TIP3   OH234727   4.973   2.807   7.243 -0.0737 -0.0625  0.2537
 3511TIP3    H134728   5.005   2.877   7.301 -0.4941 -0.7356  1.3374
 3511TIP3    H234729   4.891   2.841   7.207  0.0593  0.2652  0.2608
 3512TIP3   OH234730   2.150   4.179   8.551 -0.3254  0.2639  0.3025
 3512TIP3    H134731   2.142   4.084   8.540  0.7793  0.2225 -0.2086
 3512TIP3    H234732   2.071   4.214   8.509  0.2441 -0.3239 -1.3386
 3513TIP3   OH234733   4.393   4.159   8.806 -0.2198  0.2971 -0.1330
 3513TIP3    H134734   4.376   4.234   8.749 -0.5994 -0.1564 -0.6222
 3513TIP3    H234735   4.309   4.139   8.847 -0.4995 -0.8265 -1.1943
 3514TIP3   OH234736   1.669   1.864   6.307 -0.8313  0.6416 -0.9082
 3514TIP3    H134737   1.704   1.815   6.381 -1.8115 -2.1044 -2.1209
 3514TIP3    H234738   1.745   1.888   6.254 -0.2151  1.8250  0.4503
 3515TIP3   OH234739   7.300   1.732   9.751 -0.1121 -0.1916 -0.0494
 3515TIP3    H134740   7.273   1.703   9.838 -1.3492 -3.1848 -1.3054
 3515TIP3    H234741   7.384   1.689   9.736 -1.3723 -2.3953 -1.4403
 3516TIP3   OH234742   3.338   1.152   7.690  0.0092  0.0801 -0.1834
 3516TIP3    H134743   3.343   1.057   7.700  1.4307  0.0377 -1.0224
 3516TIP3    H234744   3.428   1.182   7.703 -0.3812  1.2898 -0.1537
 3517TIP3   OH234745   4.238   0.018   8.483  0.6472  0.3517  0.4536
 3517TIP3    H134746   4.180   0.090   8.455 -0.4169 -0.0235  1.5919
 3517TIP3    H234747   4.190  -0.061   8.458  2.4102 -0.0377 -2.0192
 3518TIP3   OH234748   4.824   4.067   7.557 -0.0192 -0.2747 -0.1364
 3518TIP3    H134749   4.740   4.074   7.512  0.6908 -0.8291 -1.6170
 3518TIP3    H234750   4.857   4.157   7.561 -0.1929 -0.1933 -0.5365
 3519TIP3   OH234751   2.160   4.516   9.219  0.5695 -0.5954  0.2380
 3519TIP3    H134752   2.218   4.508   9.143 -0.0109 -1.0288 -0.1691
 3519TIP3    H234753   2.171   4.606   9.248  2.7108 -1.0785  1.2061
 3520TIP3   OH234754   5.270   4.452   9.092 -0.2771  0.2024  0.4484
 3520TIP3    H134755   5.324   4.435   9.169  1.3103 -1.6355 -0.9806
 3520TIP3    H234756   5.272   4.547   9.081  0.5096  0.3744  1.9343
 3521TIP3   OH234757   2.902   1.910   8.310  0.0342 -0.2702  0.2997
 3521TIP3    H134758   2.878   1.993   8.270 -0.0215 -0.1860  0.5074
 3521TIP3    H234759   2.902   1.927   8.404 -0.0076 -0.5121  0.3450
 3522TIP3   OH234760   2.030   2.576   8.151  0.1817 -0.2728  0.1426
 3522TIP3    H134761   2.059   2.512   8.086 -0.1333  0.0479 -0.3224
 3522TIP3    H234762   2.071   2.547   8.232  0.4719 -0.7609 -0.1664
 3523TIP3   OH234763   6.603   7.447   8.556  0.5337 -0.1723 -0.9066
 3523TIP3    H134764   6.674   7.505   8.526 -0.4151  1.7809  0.4114
 3523TIP3    H234765   6.573   7.487   8.637 -2.4134 -0.6373 -1.6717
 3524TIP3   OH234766   6.687   3.651   7.863  0.0745  0.4117 -0.4875
 3524TIP3    H134767   6.669   3.564   7.829 -0.6820  0.2207  0.3676
 3524TIP3    H234768   6.742   3.636   7.940 -0.0624  0.6878 -0.3338
 3525TIP3   OH234769   7.118   3.963   7.925 -0.1133  0.4744  0.1461
 3525TIP3    H134770   7.187   3.898   7.912  0.3478  0.6839  1.4377
 3525TIP3    H234771   7.147   4.014   8.000 -2.8100 -0.9916  2.3617
 3526TIP3   OH234772   6.372   3.670   6.579  0.5327  0.1998 -0.0572
 3526TIP3    H134773   6.326   3.668   6.664  0.7049 -0.2885  0.0287
 3526TIP3    H234774   6.337   3.747   6.535 -0.0344  0.0982  0.1982
 3527TIP3   OH234775   3.230   0.217   7.407  0.5325  0.5626  0.1648
 3527TIP3    H134776   3.205   0.238   7.497 -0.3580  1.8830 -0.3634
 3527TIP3    H234777   3.233   0.301   7.362  4.2952  0.3658 -0.2890
 3528TIP3   OH234778   4.983   2.972   6.939  0.0039  0.2852 -0.0996
 3528TIP3    H134779   4.911   2.929   6.985 -1.0079  1.1292 -0.8435
 3528TIP3    H234780   5.043   3.000   7.008  0.6251 -2.0980  0.4267
 3529TIP3   OH234781   4.082   1.168   8.101  0.3528 -0.4716  0.0755
 3529TIP3    H134782   4.115   1.203   8.018 -0.0765 -2.2422 -0.9066
 3529TIP3    H234783   3.987   1.169   8.090  0.2582  0.0500  0.8951
 3530TIP3   OH234784   3.171   4.034   8.158 -0.1443 -0.7601  0.1369
 3530TIP3    H134785   3.153   3.988   8.076  1.1261 -1.8215  0.4058
 3530TIP3    H234786   3.234   3.977   8.204 -1.1581 -0.4152  2.0533
 3531TIP3   OH234787   4.332   6.335   9.154 -0.2502 -0.0943 -0.2064
 3531TIP3    H134788   4.393   6.284   9.209 -1.1747 -0.5519  0.4196
 3531TIP3    H234789   4.368   6.326   9.065  1.1059  0.4161  0.2610
 3532TIP3   OH234790   6.276   1.954   8.684 -1.0270 -0.1750 -0.2956
 3532TIP3    H134791   6.303   1.877   8.733  1.4539 -0.2197 -1.5603
 3532TIP3    H234792   6.257   2.020   8.751  0.8163 -0.6708  0.7908
 3533TIP3   OH234793   7.034   2.326   7.211 -0.2076 -0.3008  0.1907
 3533TIP3    H134794   7.071   2.290   7.131 -2.4731  1.3782 -1.7714
 3533TIP3    H234795   7.098   2.389   7.242  1.0019 -1.4708  0.1608
 3534TIP3   OH234796   4.765   4.446   8.335 -0.0956 -0.0693  0.1554
 3534TIP3    H134797   4.768   4.425   8.429 -0.2599  0.6965  0.3434
 3534TIP3    H234798   4.740   4.538   8.333  1.6751  0.4355 -0.5848
 3535TIP3   OH234799   3.980   7.044   8.624 -0.2743  0.2969  0.3582
 3535TIP3    H134800   4.072   7.034   8.599 -0.1155 -2.0854  1.5978
 3535TIP3    H234801   3.936   7.072   8.543  1.1282 -1.2396 -1.0141
 3536TIP3   OH234802   2.282   3.874   7.619  0.3550  0.2859  0.2283
 3536TIP3    H134803   2.334   3.845   7.544  0.8004  0.2099  0.5614
 3536TIP3    H234804   2.345   3.917   7.677 -0.0172  0.5005  0.4768
 3537TIP3   OH234805   5.488   6.972   8.635 -0.1691 -0.2513  0.1358
 3537TIP3    H134806   5.584   6.968   8.637 -0.1339 -1.1119 -1.3307
 3537TIP3    H234807   5.465   7.028   8.709  1.5858  2.2587 -1.0523
 3538TIP3   OH234808   0.582   0.449   9.480 -0.0185 -0.5696  0.2343
 3538TIP3    H134809   0.579   0.411   9.568 -1.3287 -1.6299 -0.2281
 3538TIP3    H234810   0.511   0.513   9.479  0.2424 -0.2861  0.0811
 3539TIP3   OH234811   0.447   6.192   8.995 -0.3581  0.7436 -0.3059
 3539TIP3    H134812   0.384   6.144   9.048 -0.1566 -0.9048 -1.4902
 3539TIP3    H234813   0.531   6.177   9.039 -0.4456  0.9955 -0.0421
 3540TIP3   OH234814   6.819   0.198   7.286  0.4688 -0.3704 -0.3624
 3540TIP3    H134815   6.748   0.238   7.237  0.3960 -0.4185 -0.2962
 3540TIP3    H234816   6.809   0.231   7.375 -0.4328 -1.6140  0.0291
 3541TIP3   OH234817   5.883   6.445   8.340  0.5048 -0.1413 -0.2031
 3541TIP3    H134818   5.947   6.394   8.291 -0.0078  0.2112 -1.2713
 3541TIP3    H234819   5.848   6.384   8.405  1.5431 -0.4790  0.0662
 3542TIP3   OH234820   4.924   2.525   7.383 -0.0791 -0.2840 -0.2435
 3542TIP3    H134821   4.913   2.616   7.354  0.7363 -0.5014 -1.3139
 3542TIP3    H234822   5.016   2.505   7.362 -0.7065 -1.9076 -1.7105
 3543TIP3   OH234823   2.219   2.511   8.344 -0.2626  0.1203  0.0841
 3543TIP3    H134824   2.294   2.559   8.311 -0.6506  0.0839 -0.8943
 3543TIP3    H234825   2.227   2.515   8.440 -0.0350  1.7076  0.0165
 3544TIP3   OH234826   2.819   0.716   9.255 -0.1746 -0.7968 -0.4289
 3544TIP3    H134827   2.865   0.652   9.200 -0.0795 -1.0384 -0.0693
 3544TIP3    H234828   2.889   0.760   9.303 -0.3535 -1.9875  1.0273
 3545TIP3   OH234829   7.141   6.815   8.981  0.1028 -0.2254  0.8230
 3545TIP3    H134830   7.179   6.765   9.054 -1.8487 -1.1954  1.2366
 3545TIP3    H234831   7.049   6.824   9.004 -0.2970  0.5274 -0.9553
 3546TIP3   OH234832   7.101   0.572   7.643  0.3866 -0.5853 -0.6161
 3546TIP3    H134833   7.158   0.495   7.636  2.0154  0.2729  1.7688
 3546TIP3    H234834   7.143   0.627   7.709 -2.0596  1.2037 -0.3962
 3547TIP3   OH234835   3.902   3.118   7.311  0.4473  0.5791  0.2104
 3547TIP3    H134836   3.841   3.121   7.238  0.2915  2.6192  0.3671
 3547TIP3    H234837   3.938   3.206   7.316  1.5324  0.0954  1.7018
 3548TIP3   OH234838   7.452   1.162   8.713 -0.0546  0.2451  0.1892
 3548TIP3    H134839   7.470   1.202   8.628 -1.1841  0.8176  0.1938
 3548TIP3    H234840   7.528   1.107   8.730  0.1018 -0.0516 -1.2919
 3549TIP3   OH234841   3.342   0.158   9.350 -0.2853  0.8775 -0.3236
 3549TIP3    H134842   3.284   0.200   9.286  1.1428 -0.1144 -2.3594
 3549TIP3    H234843   3.326   0.064   9.339  0.5693  0.6608  0.2125
 3550TIP3   OH234844   2.477   2.267   9.578  0.4384 -0.7081  0.3107
 3550TIP3    H134845   2.553   2.228   9.622 -0.1730  0.0748  2.1678
 3550TIP3    H234846   2.439   2.195   9.528  1.8090 -1.3621  0.1600
 3551TIP3   OH234847   2.576   4.314   7.686 -0.4116 -0.0852  0.1316
 3551TIP3    H134848   2.552   4.268   7.606 -0.3035  2.0096 -1.1948
 3551TIP3    H234849   2.504   4.297   7.746 -0.2562 -2.1037 -0.1830
 3552TIP3   OH234850   1.942   3.532   7.050 -0.2412 -0.6993 -0.3845
 3552TIP3    H134851   1.917   3.600   6.988  0.7538  0.3163  0.2783
 3552TIP3    H234852   1.933   3.573   7.136  2.3504 -0.6356 -0.0467
 3553TIP3   OH234853   0.930   4.175   7.741 -0.5055  0.8619  0.2769
 3553TIP3    H134854   0.929   4.165   7.836  0.1451 -1.0368  0.1255
 3553TIP3    H234855   0.844   4.144   7.712 -0.0543 -0.2917  0.1300
 3554TIP3   OH234856   6.120   7.244   7.343 -0.2663  0.3546  0.3556
 3554TIP3    H134857   6.180   7.252   7.269 -0.1727 -0.7986  0.2791
 3554TIP3    H234858   6.037   7.278   7.311  0.1225  1.1692  0.1821
 3555TIP3   OH234859   1.749   1.990   7.351  0.7108 -0.2696  0.1089
 3555TIP3    H134860   1.688   2.057   7.320  0.3201 -0.4829  0.4087
 3555TIP3    H234861   1.828   2.039   7.376 -0.0173  0.2555  1.5200
 3556TIP3   OH234862   0.722   3.396   9.477 -0.3789 -0.2352  0.1406
 3556TIP3    H134863   0.705   3.400   9.383  0.7900  0.0167 -0.0721
 3556TIP3    H234864   0.790   3.328   9.486 -1.8368 -1.6531  1.0242
 3557TIP3   OH234865   3.017   3.406   8.302  0.2802 -0.8077 -0.1152
 3557TIP3    H134866   3.062   3.470   8.247  0.4944 -0.2213  0.7226
 3557TIP3    H234867   2.937   3.385   8.254  0.5651 -0.4690 -0.7456
 3558TIP3   OH234868   0.243   7.410   7.572 -0.3890  0.6266  0.0240
 3558TIP3    H134869   0.333   7.424   7.543 -0.1972 -1.7757 -0.7346
 3558TIP3    H234870   0.199   7.370   7.497 -1.2720 -0.9351  1.3106
 3559TIP3   OH234871   0.075   2.180   6.710  0.2848  0.0944  0.3661
 3559TIP3    H134872   0.108   2.252   6.765 -0.6262 -0.2604  1.4216
 3559TIP3    H234873   0.128   2.105   6.736 -0.9782 -0.3777  1.7602
 3560TIP3   OH234874   0.532   4.802   8.401 -0.0519 -0.0405  0.9102
 3560TIP3    H134875   0.545   4.765   8.314  0.4799  2.7627 -0.3121
 3560TIP3    H234876   0.620   4.824   8.432 -0.3008 -0.2113  1.7793
 3561TIP3   OH234877   1.791   6.522   8.914  0.6962 -0.1097 -0.1834
 3561TIP3    H134878   1.880   6.548   8.891  0.2844  0.3615 -1.3099
 3561TIP3    H234879   1.735   6.592   8.880 -0.0818 -0.1436  0.9510
 3562TIP3   OH234880   5.296   4.709   9.084  0.2656 -0.5383 -0.0009
 3562TIP3    H134881   5.242   4.775   9.040  2.5536 -0.2174 -2.7072
 3562TIP3    H234882   5.354   4.760   9.141  0.8870 -0.3198 -0.7982
 3563TIP3   OH234883   0.916   0.276   7.705  0.2313  0.1918 -0.2529
 3563TIP3    H134884   0.992   0.323   7.670  0.1057 -0.5846 -1.6542
 3563TIP3    H234885   0.945   0.186   7.713 -0.7134 -0.2665 -1.5164
 3564TIP3   OH234886   1.194   2.933   7.592 -0.2962 -0.8712 -0.5332
 3564TIP3    H134887   1.214   2.855   7.541  0.5132 -0.9475 -0.1066
 3564TIP3    H234888   1.131   2.981   7.538 -1.7003 -2.3579 -0.3007
 3565TIP3   OH234889   6.990   0.477   9.867 -0.1610 -0.0241 -0.0442
 3565TIP3    H134890   6.961   0.506   9.954  0.8906  1.6434 -0.1990
 3565TIP3    H234891   6.930   0.519   9.806 -2.0878 -2.6684 -0.1609
 3566TIP3   OH234892   2.962   4.901   7.224  0.0241 -0.2089 -0.0437
 3566TIP3    H134893   2.971   4.918   7.131 -0.6107 -0.8610 -0.2353
 3566TIP3    H234894   3.052   4.885   7.255  0.1884 -0.4105 -0.6226
 3567TIP3   OH234895   1.587   0.916   7.432  0.0373 -0.3641 -0.0860
 3567TIP3    H134896   1.526   0.912   7.358  0.7480 -0.4773 -0.6740
 3567TIP3    H234897   1.664   0.869   7.402  0.2955 -0.5008  0.7732
 3568TIP3   OH234898   1.215   7.267   7.706  0.1535  0.1936 -0.3008
 3568TIP3    H134899   1.259   7.350   7.687  0.7436  0.4059  1.7552
 3568TIP3    H234900   1.143   7.291   7.765 -0.2734 -0.6471 -0.4650
 3569TIP3   OH234901   5.335   2.328   7.095  0.4226 -0.1902  0.8074
 3569TIP3    H134902   5.372   2.276   7.023  0.5921  0.8631  0.1231
 3569TIP3    H234903   5.255   2.281   7.118  0.8758 -1.0911  0.6008
 3570TIP3   OH234904   1.682   5.801   7.209  0.1035 -0.2401 -0.0890
 3570TIP3    H134905   1.743   5.874   7.217  1.1987 -0.9434 -1.5388
 3570TIP3    H234906   1.680   5.761   7.296 -0.7370  1.6412  0.8112
 3571TIP3   OH234907   3.823   2.233   8.122 -0.0339 -0.2056 -0.1345
 3571TIP3    H134908   3.797   2.316   8.082 -0.0464  0.1780  0.6587
 3571TIP3    H234909   3.740   2.188   8.138  0.0237 -0.8956 -1.6439
 3572TIP3   OH234910   0.733   7.381   8.667  0.2199 -0.1045 -0.4227
 3572TIP3    H134911   0.764   7.357   8.755 -0.5853 -0.3212 -0.1875
 3572TIP3    H234912   0.812   7.381   8.613  0.8610  0.8534  0.4694
 3573TIP3   OH234913   3.721   4.070   8.440 -0.4394 -0.0010  1.4505
 3573TIP3    H134914   3.788   4.111   8.495 -0.0352 -0.1655  1.0852
 3573TIP3    H234915   3.755   3.982   8.422 -0.8964 -0.1903  1.5143
 3574TIP3   OH234916   1.598   4.570   7.884  0.2980  0.1130  0.0590
 3574TIP3    H134917   1.593   4.664   7.864  0.4047  0.0995 -0.0315
 3574TIP3    H234918   1.669   4.537   7.829  0.3157 -0.0053  0.1516
 3575TIP3   OH234919   7.379   4.027   7.505  0.0492  0.3053 -0.2115
 3575TIP3    H134920   7.443   4.088   7.469 -0.1687  0.1795 -0.8198
 3575TIP3    H234921   7.360   4.061   7.592  1.9269 -0.3711  0.5332
 3576TIP3   OH234922   2.306   2.209   7.234  0.2793  0.6987  0.0083
 3576TIP3    H134923   2.277   2.296   7.206 -1.2259  0.2726  0.1224
 3576TIP3    H234924   2.371   2.225   7.302 -0.0642  1.7295  0.1052
 3577TIP3   OH234925   0.365   0.611   8.664 -0.3116 -0.1491  0.1234
 3577TIP3    H134926   0.420   0.674   8.710 -1.4685  0.3310  0.8931
 3577TIP3    H234927   0.279   0.621   8.704 -0.7558 -1.5109 -0.4428
 3578TIP3   OH234928   6.858   6.927   8.792 -0.0550  0.0372 -0.4380
 3578TIP3    H134929   6.944   6.961   8.768 -0.9387  2.3068 -0.6037
 3578TIP3    H234930   6.860   6.921   8.888  0.7623 -1.3443 -0.5275
 3579TIP3   OH234931   2.368   1.623   7.629 -0.2764  0.0311 -0.0758
 3579TIP3    H134932   2.433   1.689   7.655 -0.3764  0.3734 -0.6905
 3579TIP3    H234933   2.292   1.642   7.684  0.3453 -0.7716  1.1127
 3580TIP3   OH234934   5.053   7.667   9.273  0.1067 -0.4272  0.2544
 3580TIP3    H134935   5.061   7.572   9.259 -1.1667 -0.4180 -0.7019
 3580TIP3    H234936   5.137   7.692   9.311  0.5831 -1.8912  0.2484
 3581TIP3   OH234937   6.821   5.624   7.450  0.5073 -0.4896 -0.1311
 3581TIP3    H134938   6.743   5.649   7.499 -2.3371 -1.7291 -3.5413
 3581TIP3    H234939   6.868   5.706   7.437 -0.6891  0.4786  1.2883
 3582TIP3   OH234940   1.745   6.896   7.992 -0.5125 -0.2808  0.3257
 3582TIP3    H134941   1.777   6.828   7.933 -1.6742  1.2396 -2.2320
 3582TIP3    H234942   1.650   6.881   7.997 -0.5376  0.1174  1.1432
 3583TIP3   OH234943   1.555   5.307   8.688  0.2687 -0.3971 -0.0047
 3583TIP3    H134944   1.488   5.239   8.695 -0.5882  0.3872 -0.3344
 3583TIP3    H234945   1.544   5.342   8.600  0.8717 -0.0159  0.0664
 3584TIP3   OH234946   7.341   5.227   7.818  0.4559  0.8425 -0.7934
 3584TIP3    H134947   7.294   5.180   7.749  0.4246  2.0603 -1.6503
 3584TIP3    H234948   7.295   5.311   7.825  2.6169  2.2014 -1.8781
 3585TIP3   OH234949   6.117   3.526   7.016 -0.0146  0.2409 -0.1465
 3585TIP3    H134950   6.107   3.470   7.093  0.8434  1.4232  0.8624
 3585TIP3    H234951   6.027   3.552   6.994 -0.2679 -0.0621  0.4855
 3586TIP3   OH234952   3.899   0.525   8.173  0.3669 -0.7820 -0.1045
 3586TIP3    H134953   3.878   0.573   8.253  0.5012 -0.8424 -0.0333
 3586TIP3    H234954   3.814   0.509   8.132  0.3403 -0.2518 -0.2622
 3587TIP3   OH234955   3.091   1.385   8.810  0.1860  0.4378  0.0599
 3587TIP3    H134956   3.143   1.314   8.848 -0.4340  1.4114  2.9464
 3587TIP3    H234957   3.155   1.454   8.793  0.1870  0.8575  1.6269
 3588TIP3   OH234958   6.512   2.711   9.316  0.0465  0.5086 -0.2108
 3588TIP3    H134959   6.495   2.646   9.384  1.3161 -0.5255 -0.8380
 3588TIP3    H234960   6.491   2.795   9.358  2.1740  0.0576  1.9804
 3589TIP3   OH234961   1.832   3.607   7.604 -0.2894 -0.3544 -0.6990
 3589TIP3    H134962   1.839   3.530   7.660 -1.0234 -1.6181 -2.2506
 3589TIP3    H234963   1.758   3.588   7.546  0.4946  0.8126 -2.1623
 3590TIP3   OH234964   3.733   5.297   7.341 -0.2831 -0.0571 -0.3559
 3590TIP3    H134965   3.742   5.202   7.335 -1.6463 -0.0999 -2.7701
 3590TIP3    H234966   3.668   5.311   7.410  1.3164 -0.7146  1.3795
 3591TIP3   OH234967   0.923   4.970   8.815  0.1172  0.1602  0.1265
 3591TIP3    H134968   0.925   4.897   8.754 -0.6062 -0.2470  0.5674
 3591TIP3    H234969   0.858   5.030   8.779 -0.2635 -0.0505  0.4542
 3592TIP3   OH234970   3.231   4.789   7.909 -0.3917 -0.6374 -0.3406
 3592TIP3    H134971   3.286   4.715   7.933 -1.5336 -0.8789  1.7348
 3592TIP3    H234972   3.281   4.867   7.935 -0.9314 -0.8558  1.5108
 3593TIP3   OH234973   4.687   6.960   8.267 -0.3486 -0.1884  0.6961
 3593TIP3    H134974   4.775   6.926   8.257 -1.3077 -2.2953 -1.6351
 3593TIP3    H234975   4.655   6.970   8.177 -3.4440 -2.2719  1.4077
 3594TIP3   OH234976   7.443   0.246   7.932 -0.3442 -0.1379  0.7851
 3594TIP3    H134977   7.417   0.338   7.944 -1.7729  0.0043 -2.2857
 3594TIP3    H234978   7.486   0.245   7.846  0.6928 -2.1905  1.2751
 3595TIP3   OH234979   6.539   0.986   9.157  0.2380  0.1499 -0.1526
 3595TIP3    H134980   6.464   1.037   9.187  0.7777  0.4769  0.6765
 3595TIP3    H234981   6.606   1.052   9.137  0.3572 -0.1473 -0.7665
 3596TIP3   OH234982   0.847   3.225   7.712 -0.4593 -0.1336 -0.1346
 3596TIP3    H134983   0.900   3.145   7.717 -1.6201 -1.1400 -2.3293
 3596TIP3    H234984   0.762   3.196   7.678 -1.6737  1.7507  1.1022
 3597TIP3   OH234985   6.863   4.708   7.682 -0.2860  0.4487  0.2452
 3597TIP3    H134986   6.897   4.771   7.619  1.6149 -0.7345  0.0166
 3597TIP3    H234987   6.827   4.637   7.630  0.0957  0.0728  0.4856
 3598TIP3   OH234988   1.732   0.663   7.997 -0.7165 -0.1325 -0.8597
 3598TIP3    H134989   1.637   0.677   7.996 -0.9958 -1.8084 -1.2051
 3598TIP3    H234990   1.765   0.716   7.925 -1.1896  1.5526  0.1099
 3599TIP3   OH234991   7.101   0.729   9.617  0.3804  0.0691  0.4305
 3599TIP3    H134992   7.131   0.727   9.708  2.1734  0.5765 -0.1116
 3599TIP3    H234993   7.008   0.749   9.623  0.7657  1.6279  2.1237
 3600TIP3   OH234994   1.595   0.590   7.607  0.1433  0.1991  0.2987
 3600TIP3    H134995   1.663   0.625   7.665 -0.7980  2.2413  0.2467
 3600TIP3    H234996   1.628   0.606   7.518 -0.4589  1.4071  0.2706
 3601TIP3   OH234997   7.573   2.205   9.223 -0.3921  0.2334 -0.2180
 3601TIP3    H134998   7.591   2.184   9.315  2.1544  0.1389 -0.6610
 3601TIP3    H234999   7.498   2.151   9.200 -1.1647  0.3366  1.8142
 3602TIP3   OH235000   1.657   2.790   9.143  0.4275  0.6466 -0.1023
 3602TIP3    H135001   1.751   2.790   9.161  0.4031  0.0336  0.0696
 3602TIP3    H235002   1.618   2.831   9.220  0.4022 -1.0216  0.8178
 3603TIP3   OH235003   3.990   5.197   8.493 -0.3397  0.0530  0.0131
 3603TIP3    H135004   4.051   5.205   8.567 -2.1195  0.7083  1.4945
 3603TIP3    H235005   3.961   5.287   8.476  0.9061  0.0864 -2.3210
 3604TIP3   OH235006   1.366   1.039   8.145 -0.3258  0.1992 -0.4661
 3604TIP3    H135007   1.445   1.094   8.149 -1.0726  1.2581  0.3003
 3604TIP3    H235008   1.326   1.049   8.231 -1.1971 -0.4856 -0.7844
 3605TIP3   OH235009   4.249   1.976   7.716  0.3533  0.3304 -0.3792
 3605TIP3    H135010   4.182   1.913   7.690  0.7589  0.1548 -1.0027
 3605TIP3    H235011   4.272   1.950   7.805 -1.2795  1.1381  0.3328
 3606TIP3   OH235012   6.078   2.829   9.434 -0.1601  0.1476 -0.0740
 3606TIP3    H135013   6.071   2.815   9.528  3.3359  0.4294  0.3381
 3606TIP3    H235014   6.142   2.764   9.405 -1.0614  0.1577 -2.2771
 3607TIP3   OH235015   3.523   1.749   8.617  0.7279 -0.2881 -0.5401
 3607TIP3    H135016   3.589   1.748   8.687  0.4971 -1.9865 -0.3155
 3607TIP3    H235017   3.458   1.812   8.647  1.3355  0.0489  0.0998
 3608TIP3   OH235018   3.214   7.359   9.099  0.3485 -0.3120 -0.8173
 3608TIP3    H135019   3.179   7.405   9.023 -0.0994 -1.6538 -1.4518
 3608TIP3    H235020   3.288   7.309   9.065  0.6401 -0.3021 -0.2064
 3609TIP3   OH235021   0.590   2.596   7.411 -0.9364  0.1431 -0.2694
 3609TIP3    H135022   0.533   2.578   7.337 -1.4154 -0.2525  0.1816
 3609TIP3    H235023   0.530   2.614   7.484 -0.4841  0.1739  0.1012
 3610TIP3   OH235024   5.818   0.698   8.454 -0.1925 -0.6857 -0.7144
 3610TIP3    H135025   5.750   0.734   8.511 -0.8534 -1.4935 -0.9792
 3610TIP3    H235026   5.775   0.627   8.407  0.5300 -0.4649 -1.7303
 3611TIP3   OH235027   3.956   3.007   6.914 -0.2169  0.5552  0.4063
 3611TIP3    H135028   4.051   3.020   6.904 -0.3857  0.6956 -1.3002
 3611TIP3    H235029   3.927   3.081   6.967  0.6704  0.3053  1.2786
 3612TIP3   OH235030   5.777   7.632   9.317  0.2631 -0.1426  0.0155
 3612TIP3    H135031   5.855   7.685   9.299  0.6827 -0.5225  0.6657
 3612TIP3    H235032   5.715   7.694   9.356  0.0182  0.2824 -1.0179
 3613TIP3   OH235033   6.263   0.480   9.154  0.2341  0.1195 -0.0071
 3613TIP3    H135034   6.173   0.464   9.183  0.0402 -1.8092 -1.4441
 3613TIP3    H235035   6.270   0.575   9.148 -1.6578  0.3216  0.2831
 3614TIP3   OH235036   3.751   1.948   8.575 -0.2149 -0.8369  0.0690
 3614TIP3    H135037   3.761   1.930   8.481  0.2598 -1.6521  0.2634
 3614TIP3    H235038   3.818   2.012   8.595 -1.8339  1.1971 -0.6108
 3615TIP3   OH235039   2.139   7.378   9.348  0.7288  0.0217  0.7163
 3615TIP3    H135040   2.165   7.424   9.268 -0.1143 -0.5604  0.0859
 3615TIP3    H235041   2.085   7.441   9.395 -0.0488 -0.1562  0.0756
 3616TIP3   OH235042   3.612   7.576   8.397  0.0832  0.2519  0.1843
 3616TIP3    H135043   3.577   7.551   8.311 -1.0840 -0.5236  0.8498
 3616TIP3    H235044   3.600   7.671   8.401  0.8567  0.3992 -0.8066
 3617TIP3   OH235045   2.119   7.655   8.179 -0.2283  0.3022  0.0092
 3617TIP3    H135046   2.106   7.741   8.140  1.5422  0.0705 -1.1975
 3617TIP3    H235047   2.160   7.672   8.264  1.6426  0.6363 -0.9221
 3618TIP3   OH235048   2.070   1.861   6.872 -0.0157 -0.1227 -0.4984
 3618TIP3    H135049   2.004   1.837   6.807 -1.2809  1.1774  0.2493
 3618TIP3    H235050   2.023   1.860   6.956  1.1369 -0.0273  0.1728
 3619TIP3   OH235051   6.962   4.515   8.129 -0.5431 -0.2242 -0.2923
 3619TIP3    H135052   6.983   4.583   8.066 -0.0347 -2.4786 -2.7373
 3619TIP3    H235053   7.046   4.474   8.149 -0.9173 -0.5909  0.5709
 3620TIP3   OH235054   5.729   2.583   7.554 -0.0708 -0.0272  1.0092
 3620TIP3    H135055   5.713   2.611   7.644 -1.7488  1.5906  0.2925
 3620TIP3    H235056   5.685   2.649   7.501  0.3066 -1.3013 -0.9926
 3621TIP3   OH235057   1.247   5.738   8.228 -0.0787 -0.0660  0.1012
 3621TIP3    H135058   1.306   5.730   8.153 -0.0304 -0.8652  0.2104
 3621TIP3    H235059   1.224   5.647   8.250 -0.7248  0.1999  0.5512
 3622TIP3   OH235060   2.492   2.343   7.734  0.2089 -0.1715  0.1073
 3622TIP3    H135061   2.580   2.366   7.765 -0.3014  0.3118  1.2226
 3622TIP3    H235062   2.436   2.355   7.810 -1.1481  1.4349 -1.0920
 3623TIP3   OH235063   6.845   0.626   9.304 -0.0266 -0.0378 -0.0701
 3623TIP3    H135064   6.886   0.552   9.349 -0.4052 -0.2904 -0.1298
 3623TIP3    H235065   6.778   0.586   9.248 -0.0901  0.3342 -0.2652
 3624TIP3   OH235066   1.133   1.136   9.158  0.8106  0.2679 -0.1031
 3624TIP3    H135067   1.182   1.137   9.240  1.6804  0.8844 -0.6090
 3624TIP3    H235068   1.187   1.081   9.100 -0.3685 -1.1196  0.0566
 3625TIP3   OH235069   7.130   2.441   8.137 -0.0429  0.1517 -0.8248
 3625TIP3    H135070   7.152   2.423   8.045  0.9609 -2.4248 -0.1633
 3625TIP3    H235071   7.207   2.411   8.186 -0.3983  1.8203  0.8680
 3626TIP3   OH235072   1.634   7.521   7.658 -0.5932 -0.2593 -0.4387
 3626TIP3    H135073   1.691   7.556   7.589 -1.1351  0.3993 -0.5563
 3626TIP3    H235074   1.693   7.467   7.712  0.0573  0.0702 -0.8044
 3627TIP3   OH235075   5.736   1.800   7.949 -0.2806  0.2548 -0.2360
 3627TIP3    H135076   5.713   1.843   7.866 -0.2793 -0.3171 -0.5449
 3627TIP3    H235077   5.744   1.707   7.925  1.7190  0.3219 -0.0110
 3628TIP3   OH235078   2.806   6.223   8.398 -0.0228 -0.7095  0.4247
 3628TIP3    H135079   2.814   6.245   8.491  0.1384 -0.0784  0.2680
 3628TIP3    H235080   2.718   6.253   8.374 -0.0652 -0.8745  0.3773
 3629TIP3   OH235081   4.182   0.156   8.168 -0.0492 -0.1854 -0.0295
 3629TIP3    H135082   4.145   0.213   8.235 -0.1667 -2.9828  2.4873
 3629TIP3    H235083   4.267   0.194   8.147 -0.2273  1.0457  1.3603
 3630TIP3   OH235084   4.144   2.595   7.356  0.5956 -0.4727  0.3040
 3630TIP3    H135085   4.054   2.625   7.345  0.0097 -2.2785 -0.1817
 3630TIP3    H235086   4.146   2.510   7.313  1.5477 -2.2161  3.4754
 3631TIP3   OH235087   6.678   1.891   7.869  0.2197 -0.2228 -0.5152
 3631TIP3    H135088   6.603   1.851   7.826 -0.4415  0.0349  0.3605
 3631TIP3    H235089   6.643   1.925   7.952  0.9436  1.3208 -0.7954
 3632TIP3   OH235090   5.615   7.620   7.125  1.2502  0.5481 -0.0202
 3632TIP3    H135091   5.652   7.542   7.083 -1.3687 -1.4561  1.0975
 3632TIP3    H235092   5.590   7.677   7.053 -0.6001 -1.5562 -1.1498
 3633TIP3   OH235093   3.072   3.715   8.787  0.2898  0.2870 -0.3820
 3633TIP3    H135094   3.130   3.675   8.722  1.7942 -0.1305  1.1459
 3633TIP3    H235095   3.026   3.784   8.739 -0.3220 -1.4371 -2.4113
 3634TIP3   OH235096   6.152   1.707   6.816  0.1357  0.0091  0.0163
 3634TIP3    H135097   6.134   1.672   6.729 -0.7649  2.9723 -1.0926
 3634TIP3    H235098   6.244   1.685   6.833 -0.1053 -1.9694 -0.9254
 3635TIP3   OH235099   4.935   4.973   7.719  0.3858 -0.9569  0.4692
 3635TIP3    H135100   4.995   4.933   7.657  0.6980  0.5794 -0.2637
 3635TIP3    H235101   4.973   5.059   7.738 -1.3354 -0.1085  0.2991
 3636TIP3   OH235102   1.004   2.070   7.475  0.0266  0.4205  0.0229
 3636TIP3    H135103   1.044   2.121   7.546 -1.2267  0.9309  0.3911
 3636TIP3    H235104   0.990   2.134   7.405 -0.8590  0.4388  0.2035
 3637TIP3   OH235105   3.929   0.018   8.622  0.2220  0.1015  0.2986
 3637TIP3    H135106   3.988  -0.030   8.564  0.5558  0.5928  0.2241
 3637TIP3    H235107   3.930  -0.032   8.703  0.7635  0.1107  0.3063
 3638TIP3   OH235108   2.512   0.372   8.781  0.3725 -0.6947  0.1665
 3638TIP3    H135109   2.420   0.380   8.755  0.7203 -2.0514 -1.6235
 3638TIP3    H235110   2.508   0.355   8.875 -1.1126  0.7770  0.4218
 3639TIP3   OH235111   7.509   1.427   7.054  1.1190 -0.2288 -0.3688
 3639TIP3    H135112   7.453   1.497   7.089  1.4253 -0.2191  0.1177
 3639TIP3    H235113   7.595   1.446   7.091  1.4809 -0.1462 -1.2516
 3640TIP3   OH235114   5.546   0.764   7.391  0.3740  0.2645 -0.1485
 3640TIP3    H135115   5.479   0.808   7.443  0.1813 -1.5221  1.2017
 3640TIP3    H235116   5.553   0.677   7.430  3.1657  0.2424 -0.5302
 3641TIP3   OH235117   7.620   1.587   6.452 -0.4150 -0.0776 -0.5905
 3641TIP3    H135118   7.627   1.526   6.525 -1.8817 -0.2114 -0.5429
 3641TIP3    H235119   7.527   1.608   6.446 -0.0826  1.4026 -1.2260
 3642TIP3   OH235120   4.458   7.353   6.638 -0.0233  0.1555 -0.0415
 3642TIP3    H135121   4.478   7.296   6.713 -1.6491 -0.6883 -0.2103
 3642TIP3    H235122   4.522   7.424   6.645 -2.3623  2.2909  4.4560
 3643TIP3   OH235123   1.832   4.781   7.955 -1.1566  0.0718  0.2415
 3643TIP3    H135124   1.819   4.825   8.039  0.2798  3.3014 -1.0451
 3643TIP3    H235125   1.904   4.720   7.970 -0.5544  0.9999  1.2580
 3644TIP3   OH235126   7.181   3.516   8.298 -0.3996  0.1328 -0.0577
 3644TIP3    H135127   7.229   3.532   8.217 -1.0751  3.0794  0.0297
 3644TIP3    H235128   7.244   3.536   8.367 -0.2408 -1.0865  0.1866
 3645TIP3   OH235129   5.801   4.107   7.802  0.2385  0.1449 -0.5732
 3645TIP3    H135130   5.785   4.181   7.744 -2.1985 -0.7391 -1.1925
 3645TIP3    H235131   5.714   4.085   7.837  0.9654 -1.9838  0.1004
 3646TIP3   OH235132   6.550   3.745   8.948  0.2791  0.7729 -0.2819
 3646TIP3    H135133   6.529   3.764   8.856 -0.9325  1.1041  0.0398
 3646TIP3    H235134   6.618   3.809   8.970 -1.7728  2.9949 -0.0280
 3647TIP3   OH235135   7.545   4.178   7.331  0.0855 -0.6236 -0.1989
 3647TIP3    H135136   7.469   4.173   7.273  0.0344 -0.3220 -0.1615
 3647TIP3    H235137   7.614   4.130   7.284  0.5093  0.9354 -1.2569
 3648TIP3   OH235138   3.590   0.302   9.175  0.1569 -0.7032  0.2655
 3648TIP3    H135139   3.616   0.249   9.100  0.6312 -0.8251  0.5149
 3648TIP3    H235140   3.588   0.240   9.249  2.9945 -0.0032  1.0661
 3649TIP3   OH235141   0.101   0.455   8.561  0.2541  0.4391 -0.4360
 3649TIP3    H135142   0.086   0.512   8.636 -0.8989  1.4026 -1.3585
 3649TIP3    H235143   0.047   0.492   8.491  0.0151 -1.3789 -1.2826
 3650TIP3   OH235144   3.757   1.257   8.157  0.1660 -0.4633 -0.0386
 3650TIP3    H135145   3.725   1.225   8.241 -0.5930  0.9612  0.2617
 3650TIP3    H235146   3.691   1.229   8.094  0.3642 -0.9196 -0.0414
 3651TIP3   OH235147   6.527   4.819   8.824 -0.1816  0.2603  0.1222
 3651TIP3    H135148   6.598   4.877   8.798 -0.0343 -0.2152 -0.5533
 3651TIP3    H235149   6.449   4.858   8.786  0.1456 -0.9152 -1.8911
 3652TIP3   OH235150   2.424   5.559   8.078 -0.4904  0.2103 -0.0811
 3652TIP3    H135151   2.344   5.532   8.123  0.5271 -1.3022  0.9129
 3652TIP3    H235152   2.414   5.526   7.989  0.2629 -2.8007  0.8183
 3653TIP3   OH235153   7.654   5.201   8.096  0.6020  0.4034 -0.4696
 3653TIP3    H135154   7.656   5.295   8.076  0.3211  0.2238 -1.3787
 3653TIP3    H235155   7.736   5.184   8.141  1.0031  0.9367 -0.9930
 3654TIP3   OH235156   1.403   4.085   7.787  0.2777 -0.0640  0.6648
 3654TIP3    H135157   1.346   4.057   7.859 -0.4901 -0.8824 -0.2271
 3654TIP3    H235158   1.488   4.101   7.828 -0.4376  0.6317  1.9349
 3655TIP3   OH235159   6.224   0.320   7.815  0.3718  0.3616  0.9888
 3655TIP3    H135160   6.294   0.295   7.754  0.5916  0.4127  1.2171
 3655TIP3    H235161   6.180   0.393   7.773 -0.4911 -0.6106  0.1509
 3656TIP3   OH235162   4.075   0.336   8.341 -0.0509 -0.0821 -0.7253
 3656TIP3    H135163   4.081   0.356   8.435  0.1374 -0.1358 -0.7261
 3656TIP3    H235164   4.011   0.398   8.308 -0.2880 -0.2128 -0.5171
 3657TIP3   OH235165   6.867   7.530   8.468  0.0838  0.1339  0.6601
 3657TIP3    H135166   6.887   7.622   8.485  0.2550  0.0413  0.9668
 3657TIP3    H235167   6.888   7.518   8.375  1.1754  0.1216  0.8966
 3658TIP3   OH235168   2.537   4.064   9.066 -0.5790  0.1889  0.1510
 3658TIP3    H135169   2.534   4.154   9.097 -1.3821 -0.0275  0.7349
 3658TIP3    H235170   2.447   4.032   9.075 -0.3268 -0.6384 -0.1372
 3659TIP3   OH235171   0.008   4.807   7.899  0.0717  0.0338 -0.1317
 3659TIP3    H135172  -0.059   4.790   7.965  1.6668 -0.5575  1.4228
 3659TIP3    H235173  -0.005   4.898   7.873 -1.9878 -0.3739 -0.7158
 3660TIP3   OH235174   5.461   5.390   7.853 -1.0443  0.6811 -0.3735
 3660TIP3    H135175   5.408   5.343   7.789 -0.6248 -0.1625 -0.1142
 3660TIP3    H235176   5.412   5.382   7.935 -0.2448 -0.6055 -0.0066
 3661TIP3   OH235177   4.247   4.748   7.696  0.1244  0.0959 -0.9488
 3661TIP3    H135178   4.273   4.730   7.606  1.0313 -1.2172 -0.4556
 3661TIP3    H235179   4.218   4.664   7.731 -2.1835  0.9682 -0.5965
 3662TIP3   OH235180   6.070   0.770   8.555 -0.0835 -0.2839  0.2884
 3662TIP3    H135181   6.059   0.742   8.646  0.1728  0.4501  0.5565
 3662TIP3    H235182   5.982   0.771   8.519 -0.4292  1.2318  1.0943
 3663TIP3   OH235183   1.121   1.320   8.633 -0.2888 -0.3367  0.1600
 3663TIP3    H135184   1.189   1.269   8.677  0.2672  0.7077  0.5264
 3663TIP3    H235185   1.105   1.272   8.552  0.4332 -0.9338  0.3532
 3664TIP3   OH235186   4.120   2.151   8.946 -0.0352  0.2693 -0.0309
 3664TIP3    H135187   4.055   2.221   8.941 -1.7201 -1.2175  0.2549
 3664TIP3    H235188   4.135   2.138   9.040  0.7615  0.6409 -0.0939
 3665TIP3   OH235189   6.379   0.574   7.626  0.2537  0.1586  0.3214
 3665TIP3    H135190   6.402   0.667   7.626 -2.2175  0.8513 -0.0597
 3665TIP3    H235191   6.455   0.530   7.664  2.0626  2.1599 -0.8003
 3666TIP3   OH235192   6.836   0.892   8.805 -0.2350  0.0189 -0.5877
 3666TIP3    H135193   6.862   0.868   8.894 -0.9888 -0.4425 -0.4794
 3666TIP3    H235194   6.849   0.987   8.801 -0.7872  0.1408  0.2291
 3667TIP3   OH235195   0.059   0.249   7.137 -0.1898  0.1222 -0.2209
 3667TIP3    H135196   0.034   0.165   7.098 -1.7359  0.6750 -0.4996
 3667TIP3    H235197  -0.023   0.285   7.170  0.7479  0.6673  1.6255
 3668TIP3   OH235198   2.498   0.199   8.568 -0.2968 -0.4152  0.1128
 3668TIP3    H135199   2.520   0.109   8.593  1.2592  0.2242  1.1928
 3668TIP3    H235200   2.506   0.249   8.649  0.0555  0.9057 -0.7102
 3669TIP3   OH235201   6.815   2.173   9.432 -0.5740 -0.1918 -0.4676
 3669TIP3    H135202   6.908   2.196   9.423 -0.4781 -0.3043  0.1666
 3669TIP3    H235203   6.813   2.078   9.416 -0.8844  0.1049 -2.4910
 3670TIP3   OH235204   2.916   2.726   7.684  0.2828 -0.4397 -0.2004
 3670TIP3    H135205   2.951   2.789   7.748 -0.0060  0.6891 -1.1180
 3670TIP3    H235206   2.976   2.652   7.689  1.8914  0.7704 -0.5725
 3671TIP3   OH235207   4.854   6.760   7.717  0.0845 -0.1618  0.2105
 3671TIP3    H135208   4.862   6.777   7.811 -1.0130 -2.2206  0.7512
 3671TIP3    H235209   4.921   6.695   7.698 -0.5732 -0.7626 -0.1152
 3672TIP3   OH235210   0.662   1.482   8.567 -0.3789 -0.2792  0.3237
 3672TIP3    H135211   0.749   1.462   8.602 -1.2127 -2.5542  1.3229
 3672TIP3    H235212   0.625   1.547   8.627 -0.1244 -0.8463  1.1136
 3673TIP3   OH235213   5.293   1.955   9.484 -0.5932  0.7198 -0.0202
 3673TIP3    H135214   5.255   2.014   9.550 -1.7127 -1.0507  1.0164
 3673TIP3    H235215   5.256   1.869   9.506  2.2175 -0.6973 -0.4495
 3674TIP3   OH235216   4.123   0.589   6.974  0.0344  0.2971 -0.2477
 3674TIP3    H135217   4.049   0.530   6.962 -1.4194  2.0435 -0.3156
 3674TIP3    H235218   4.183   0.567   6.904 -1.2769  0.0583 -1.3374
 3675TIP3   OH235219   1.710   3.811   7.710 -0.2161  0.2629 -0.0150
 3675TIP3    H135220   1.714   3.886   7.651  0.3189 -0.4367 -0.8991
 3675TIP3    H235221   1.771   3.748   7.673 -0.9338 -0.7673  0.4929
 3676TIP3   OH235222   2.795   5.318   7.566  0.0906  0.0291  0.2529
 3676TIP3    H135223   2.831   5.363   7.489 -0.9810 -0.4615 -0.5610
 3676TIP3    H235224   2.872   5.281   7.609  0.7989  1.0352 -0.0978
 3677TIP3   OH235225   6.104   3.213   6.994 -0.0239  0.1476 -0.0284
 3677TIP3    H135226   6.111   3.289   6.937  0.1299 -0.3135 -0.6253
 3677TIP3    H235227   6.012   3.210   7.018  0.0724  0.8647  0.4799
 3678TIP3   OH235228   3.211   7.608   8.677  0.6194  0.1157 -0.5703
 3678TIP3    H135229   3.153   7.674   8.639  0.0722  0.9451  1.5181
 3678TIP3    H235230   3.270   7.583   8.606 -0.6066  1.1979 -2.0306
 3679TIP3   OH235231   0.822   2.024   8.674  0.3802 -0.4609  0.2307
 3679TIP3    H135232   0.864   1.978   8.601 -1.5735 -1.1220 -0.5553
 3679TIP3    H235233   0.817   1.958   8.743  1.2629 -0.1576  0.5966
 3680TIP3   OH235234   3.194   2.852   7.588  0.3520  0.2424  0.2978
 3680TIP3    H135235   3.141   2.887   7.660  1.8449  1.3331  0.9275
 3680TIP3    H235236   3.244   2.927   7.557  2.0231 -0.8546  0.1990
 3681TIP3   OH235237   5.590   6.882   7.669  0.5679  0.7878  0.0456
 3681TIP3    H135238   5.559   6.792   7.681  0.8112  0.6819 -0.1118
 3681TIP3    H235239   5.544   6.932   7.737  1.6808  0.2424  1.2580
 3682TIP3   OH235240   5.713   3.493   7.337 -0.0683  0.1421 -0.5042
 3682TIP3    H135241   5.777   3.562   7.320  0.1762 -0.2214 -1.0765
 3682TIP3    H235242   5.628   3.538   7.337 -0.0017  0.2866 -1.8696
 3683TIP3   OH235243   5.980   7.025   8.845 -1.1287  0.1634  0.6387
 3683TIP3    H135244   6.068   7.054   8.871 -0.3533 -0.8881 -0.6824
 3683TIP3    H235245   5.987   7.011   8.751 -2.6373 -0.2698  0.5733
 3684TIP3   OH235246   5.412   3.011   8.055 -0.0966  0.5747 -0.0219
 3684TIP3    H135247   5.364   3.091   8.035 -0.8381  0.4113  0.9898
 3684TIP3    H235248   5.362   2.971   8.126  0.1409 -0.8890 -0.6420
 3685TIP3   OH235249   1.109   3.924   8.550 -0.8871 -0.2199  0.4064
 3685TIP3    H135250   1.173   3.958   8.612 -0.2057 -1.0621  0.1902
 3685TIP3    H235251   1.117   3.982   8.474  0.9083 -1.3109 -0.3220
 3686TIP3   OH235252   0.953   6.030   9.062 -0.0888  0.3185 -0.0390
 3686TIP3    H135253   1.003   6.081   9.126 -0.6031  0.2106  0.4628
 3686TIP3    H235254   0.930   5.949   9.109 -3.3464  1.5935  0.8769
 3687TIP3   OH235255   3.271   3.821   8.396 -0.1388 -0.0438  0.1314
 3687TIP3    H135256   3.288   3.741   8.444 -1.3456  0.1693  0.9606
 3687TIP3    H235257   3.275   3.890   8.462 -1.4941  0.2893 -0.1043
 3688TIP3   OH235258   0.616   5.939   8.878  0.5044  0.4145 -1.2615
 3688TIP3    H135259   0.670   5.889   8.817  0.1926  2.5474 -3.4705
 3688TIP3    H235260   0.527   5.928   8.845 -0.1604 -0.9290  0.7800
 3689TIP3   OH235261   6.592   5.576   9.433 -0.5881  0.1235 -0.6677
 3689TIP3    H135262   6.556   5.637   9.369  0.4176 -0.1966 -1.5663
 3689TIP3    H235263   6.672   5.618   9.464 -1.4936  0.6814  1.0758
 3690TIP3   OH235264   6.896   4.966   8.951  1.0437  0.3432  0.3498
 3690TIP3    H135265   6.889   4.872   8.967  0.6604 -0.0028 -1.6159
 3690TIP3    H235266   6.947   4.974   8.871 -0.4228  1.7133 -0.5170
 3691TIP3   OH235267   3.687   0.936   8.641 -0.0550  0.1208 -0.6646
 3691TIP3    H135268   3.750   0.922   8.571  0.4324  0.6743 -0.3391
 3691TIP3    H235269   3.626   1.000   8.606 -0.6928 -0.7156 -1.1318
 3692TIP3   OH235270   1.499   7.625   9.269  0.0888 -0.1511  0.1770
 3692TIP3    H135271   1.549   7.706   9.256  1.1178 -0.5234  1.5398
 3692TIP3    H235272   1.512   7.604   9.362 -0.6988 -1.5302 -0.0046
 3693TIP3   OH235273   4.195   5.007   7.865  0.7878  0.3170  0.1880
 3693TIP3    H135274   4.186   4.925   7.816  0.7340 -0.0809  0.8425
 3693TIP3    H235275   4.187   5.076   7.799  0.4780 -0.1973 -0.3205
 3694TIP3   OH235276   3.426   4.297   7.009 -0.8326  0.0882  0.0856
 3694TIP3    H135277   3.343   4.330   7.043 -1.0696  1.0130 -1.2924
 3694TIP3    H235278   3.492   4.353   7.048 -0.9463 -0.0393  0.4576
 3695TIP3   OH235279   4.540   6.848   6.797  0.3392 -0.0706 -0.0818
 3695TIP3    H135280   4.561   6.758   6.824  0.8489 -0.6439 -2.2400
 3695TIP3    H235281   4.586   6.860   6.714  0.1175  2.1415  0.0573
 3696TIP3   OH235282   5.587   4.109   8.594  0.3098  0.0207 -0.0027
 3696TIP3    H135283   5.610   4.201   8.607 -0.2615  0.0720  0.7567
 3696TIP3    H235284   5.543   4.107   8.509  2.3337  0.0398 -1.1025
 3697TIP3   OH235285   7.428   7.624   8.752  0.7776  0.3748  0.6378
 3697TIP3    H135286   7.437   7.575   8.670 -0.9872 -2.2008  1.8284
 3697TIP3    H235287   7.350   7.678   8.740  0.4984 -0.0301  0.6223
 3698TIP3   OH235288   2.143   1.855   6.477  0.2131  0.0308 -0.0730
 3698TIP3    H135289   2.101   1.770   6.462  1.7375 -0.6660 -0.6157
 3698TIP3    H235290   2.152   1.893   6.389  0.5084  0.2772  0.0637
 3699TIP3   OH235291   3.857   5.813   8.747  0.5067  0.0357  0.4652
 3699TIP3    H135292   3.918   5.886   8.745 -0.5218  0.9018 -0.3074
 3699TIP3    H235293   3.903   5.745   8.797  1.8489  0.8577  0.4006
 3700TIP3   OH235294   0.336   5.300   9.373 -0.2733  1.2163 -0.6264
 3700TIP3    H135295   0.425   5.334   9.389  0.8914 -1.9578  0.3834
 3700TIP3    H235296   0.295   5.301   9.459 -1.3573  2.8597 -1.1267
 3701TIP3   OH235297   2.573   4.240   6.618 -0.4081 -0.3887 -0.6415
 3701TIP3    H135298   2.530   4.307   6.672 -0.9113 -2.0050  1.0868
 3701TIP3    H235299   2.663   4.269   6.612 -0.5722  0.3698  0.2553
 3702TIP3   OH235300   1.174   1.425   6.541 -0.6039 -0.0950 -0.1515
 3702TIP3    H135301   1.100   1.482   6.560 -0.6382 -0.0015 -0.5533
 3702TIP3    H235302   1.250   1.484   6.542 -0.3132 -0.4187  1.7114
 3703TIP3   OH235303   4.135   2.697   8.440 -0.0775 -0.0341 -0.0366
 3703TIP3    H135304   4.189   2.655   8.374  0.8124  1.3983 -0.2624
 3703TIP3    H235305   4.090   2.768   8.393  0.4142  0.8820  0.8342
 3704TIP3   OH235306   1.968   2.600   6.724  0.0743  0.0957 -0.4146
 3704TIP3    H135307   1.956   2.535   6.793  1.2228  0.3410  0.0301
 3704TIP3    H235308   2.017   2.555   6.656  1.7565  0.7283  0.3182
 3705TIP3   OH235309   4.615   3.321   6.852  0.2941  0.7287 -0.3432
 3705TIP3    H135310   4.535   3.283   6.888 -0.5975  2.0048 -0.8907
 3705TIP3    H235311   4.674   3.328   6.927 -0.9093  1.7523  0.5417
 3706TIP3   OH235312   4.301   5.763   7.569  0.5368 -0.0683  0.4085
 3706TIP3    H135313   4.283   5.728   7.482 -0.2960  0.4262  0.3729
 3706TIP3    H235314   4.372   5.826   7.554  0.9158 -0.5327  0.2153
 3707TIP3   OH235315   3.160   0.601   9.041 -0.0462 -0.3924  0.1952
 3707TIP3    H135316   3.234   0.649   9.078 -0.2248 -0.9581  1.3210
 3707TIP3    H235317   3.182   0.509   9.055 -0.3956 -0.6058 -0.5929
 3708TIP3   OH235318   0.188   3.076   7.592 -0.2229 -0.6612 -0.9037
 3708TIP3    H135319   0.181   3.165   7.558  0.7650 -0.3001 -0.2175
 3708TIP3    H235320   0.153   3.020   7.523  0.7730  0.1248 -2.0827
 3709TIP3   OH235321   6.986   1.877   9.071 -0.5096 -0.2027 -0.1529
 3709TIP3    H135322   6.926   1.838   9.135  0.6650  1.9357  2.4222
 3709TIP3    H235323   6.967   1.830   8.989 -3.3591 -1.8383  1.2856
 3710TIP3   OH235324   7.206   2.969   9.387  0.1468  0.5646  0.3705
 3710TIP3    H135325   7.299   2.953   9.406  0.4852  0.2703 -1.3367
 3710TIP3    H235326   7.165   2.883   9.395 -0.0312  0.7380  1.3637
 3711TIP3   OH235327   4.481   1.107   8.391  0.3866 -0.0531  0.7702
 3711TIP3    H135328   4.503   1.084   8.481 -0.6347 -0.9163  0.8177
 3711TIP3    H235329   4.389   1.082   8.381  0.7155 -0.8017 -0.7501
 3712TIP3   OH235330   2.639   3.464   8.964  0.4017 -0.5141 -0.3025
 3712TIP3    H135331   2.727   3.427   8.971  0.6383 -0.0406 -0.7359
 3712TIP3    H235332   2.641   3.515   8.883 -0.1142 -0.0754 -0.0407
 3713TIP3   OH235333   2.013   3.155   7.514 -0.7128  0.2894  0.8235
 3713TIP3    H135334   1.975   3.070   7.493  2.7631 -0.9258 -1.2292
 3713TIP3    H235335   1.980   3.214   7.446 -2.2462  0.4280  1.6219
 3714TIP3   OH235336   0.314   3.261   7.762 -0.1862  0.2856  0.4025
 3714TIP3    H135337   0.279   3.198   7.698  1.9006  0.5077 -1.0405
 3714TIP3    H235338   0.249   3.332   7.764 -0.6523 -0.0791 -0.9121
 3715TIP3   OH235339   5.751   3.345   7.595 -0.3247 -0.1875 -0.1112
 3715TIP3    H135340   5.826   3.401   7.614 -1.1851  0.8410  0.4287
 3715TIP3    H235341   5.730   3.362   7.503 -1.5194  1.6427  0.4289
 3716TIP3   OH235342   5.337   1.491   6.936  0.4606 -0.2408 -0.2876
 3716TIP3    H135343   5.393   1.457   6.866  1.2201  0.1479  0.1116
 3716TIP3    H235344   5.276   1.549   6.891  0.8172 -0.1451 -0.6611
 3717TIP3   OH235345   4.003   6.736   8.224  0.0537 -0.6502  0.3354
 3717TIP3    H135346   4.063   6.664   8.246  0.6771  0.0761  1.0890
 3717TIP3    H235347   4.059   6.814   8.221 -0.8582  0.0598  1.1336
 3718TIP3   OH235348   3.410   4.561   9.039  0.4246 -0.2055 -0.0246
 3718TIP3    H135349   3.341   4.619   9.010  1.8793  1.6473  0.0735
 3718TIP3    H235350   3.431   4.507   8.963 -0.4675 -0.1495 -0.3156
 3719TIP3   OH235351   0.218   5.614   6.710  0.0292 -0.2480 -0.0253
 3719TIP3    H135352   0.302   5.584   6.742  0.5405  0.6186 -0.4985
 3719TIP3    H235353   0.172   5.535   6.683  0.0238 -0.8840  1.7681
 3720TIP3   OH235354   2.522   0.656   9.054  0.2191 -0.3374  0.6190
 3720TIP3    H135355   2.591   0.656   8.987 -0.1323 -0.6537  0.2540
 3720TIP3    H235356   2.489   0.566   9.055  0.3925 -0.3998  1.4021
 3721TIP3   OH235357   4.115   6.407   7.328  0.5389  0.1225 -0.2774
 3721TIP3    H135358   4.103   6.353   7.250  2.3251  0.1485 -0.6124
 3721TIP3    H235359   4.037   6.461   7.332 -0.6240 -1.4467 -0.7608
 3722TIP3   OH235360   5.576   0.815   8.581 -0.2059 -0.1905 -0.0627
 3722TIP3    H135361   5.499   0.839   8.529  0.6271  0.1508 -1.1820
 3722TIP3    H235362   5.545   0.747   8.640 -1.2237 -0.5176 -0.9432
 3723TIP3   OH235363   2.353   6.488   9.269 -0.2587 -0.4837  0.0271
 3723TIP3    H135364   2.409   6.416   9.296 -0.8422 -1.2528 -0.7485
 3723TIP3    H235365   2.327   6.466   9.179 -0.4205  0.7115 -0.2334
 3724TIP3   OH235366   2.465   7.496   7.900  0.4116 -0.1058  0.2949
 3724TIP3    H135367   2.446   7.504   7.807  1.8760  1.4139  0.0819
 3724TIP3    H235368   2.380   7.496   7.943 -0.2258  0.6505 -0.9452
 3725TIP3   OH235369   3.008   1.255   8.058 -0.0337 -0.0300  0.0397
 3725TIP3    H135370   3.072   1.326   8.067 -1.6417  1.8100 -2.1465
 3725TIP3    H235371   3.025   1.218   7.972  1.2295 -2.9104  1.3960
 3726TIP3   OH235372   1.771   4.486   7.675 -0.3359 -0.0634  0.5172
 3726TIP3    H135373   1.717   4.408   7.688 -1.4842  0.6626  0.3189
 3726TIP3    H235374   1.716   4.544   7.622 -0.0445  1.4014  1.7295
 3727TIP3   OH235375   1.313   2.691   8.992  0.0685 -0.1960  0.0387
 3727TIP3    H135376   1.232   2.742   8.991  0.0715 -0.1953 -0.1594
 3727TIP3    H235377   1.302   2.631   9.066 -0.7066 -1.1487 -0.8197
 3728TIP3   OH235378   4.989   2.576   7.090 -0.0673  0.5854 -0.2115
 3728TIP3    H135379   4.968   2.590   6.997  2.4403  0.7112 -0.8130
 3728TIP3    H235380   4.970   2.661   7.131  0.1573  0.9651 -0.8778
 3729TIP3   OH235381   5.168   7.338   7.547 -0.6469 -0.1815  0.1552
 3729TIP3    H135382   5.234   7.269   7.545 -1.7938 -1.3304  0.0443
 3729TIP3    H235383   5.216   7.417   7.569  0.9064 -0.7962 -0.8495
 3730TIP3   OH235384   5.199   1.551   9.594 -0.7265  0.1379 -0.3555
 3730TIP3    H135385   5.273   1.563   9.653 -0.7461  0.2564 -0.3544
 3730TIP3    H235386   5.220   1.605   9.518 -1.3900  1.1805  0.1685
 3731TIP3   OH235387   6.449   5.231   9.002  0.3565 -0.4525  0.0690
 3731TIP3    H135388   6.395   5.286   8.945 -0.0039  0.1306  0.9516
 3731TIP3    H235389   6.422   5.254   9.090  1.8564 -0.3490  0.5311
 3732TIP3   OH235390   3.421   0.641   8.119 -0.5360  0.3663  0.2536
 3732TIP3    H135391   3.334   0.652   8.081 -0.4773  3.1324  0.7424
 3732TIP3    H235392   3.456   0.729   8.126  1.5930 -0.5035  1.8086
 3733TIP3   OH235393   1.676   6.395   8.649 -0.2653 -0.6596 -0.2154
 3733TIP3    H135394   1.659   6.407   8.556 -0.6325  2.0329  0.0914
 3733TIP3    H235395   1.656   6.481   8.688 -0.5695 -1.8178  2.4110
 3734TIP3   OH235396   1.111   5.311   7.880  0.6408  0.6821  0.0651
 3734TIP3    H135397   1.126   5.227   7.835 -0.8562  0.8640 -0.8397
 3734TIP3    H235398   1.197   5.334   7.916  0.8151 -1.9463  1.6232
 3735TIP3   OH235399   0.947   7.398   7.440 -0.5459 -0.4228  0.2545
 3735TIP3    H135400   0.980   7.336   7.375 -1.8842  0.8854 -1.8350
 3735TIP3    H235401   0.853   7.378   7.446 -0.4109 -0.6252  1.9617
 3736TIP3   OH235402   4.656   6.301   7.072 -0.4705  0.4588  0.7419
 3736TIP3    H135403   4.682   6.313   6.981  1.3185 -1.4782  0.9161
 3736TIP3    H235404   4.564   6.327   7.075 -1.1664 -1.3216 -2.0902
 3737TIP3   OH235405   4.164   4.287   8.441 -0.1217 -0.3128 -0.3239
 3737TIP3    H135406   4.241   4.342   8.424 -1.2996  1.4842 -0.0834
 3737TIP3    H235407   4.140   4.306   8.532 -0.1920 -1.7387 -0.0183
 3738TIP3   OH235408   0.513   0.640   9.204 -0.3727  0.3860 -0.5076
 3738TIP3    H135409   0.453   0.568   9.184  0.3219 -0.1466 -0.7052
 3738TIP3    H235410   0.578   0.638   9.134  2.3692 -1.8131  1.8664
 3739TIP3   OH235411   2.269   1.836   6.716 -0.4300  0.2711  0.0774
 3739TIP3    H135412   2.194   1.837   6.775 -0.8949  0.5151 -0.5081
 3739TIP3    H235413   2.231   1.819   6.630  0.5059 -3.1385  0.1878
 3740TIP3   OH235414   7.119   7.121   8.419 -0.2419  0.0877  0.0738
 3740TIP3    H135415   7.166   7.152   8.497 -0.9186  0.7824  0.2189
 3740TIP3    H235416   7.072   7.043   8.449 -0.1126  0.0723  0.2361
 3741TIP3   OH235417   5.169   3.092   9.288 -0.0750  0.1155 -0.1210
 3741TIP3    H135418   5.152   3.127   9.376  0.3633 -0.1612  0.0765
 3741TIP3    H235419   5.126   3.154   9.229  0.7629  1.0512  0.2202
 3742TIP3   OH235420   5.866   0.792   6.403 -0.7060 -0.0813 -0.1641
 3742TIP3    H135421   5.837   0.846   6.329 -0.7486  2.5887  1.6863
 3742TIP3    H235422   5.948   0.833   6.432 -0.4291 -1.3677  0.9979
 3743TIP3   OH235423   5.894   3.128   6.697 -0.3762  0.1180  0.0640
 3743TIP3    H135424   5.986   3.114   6.720 -0.7716 -0.9724  1.1357
 3743TIP3    H235425   5.892   3.212   6.653  1.1141  0.2418  0.1959
 3744TIP3   OH235426   4.496   2.348   8.137  0.4487 -0.5692  0.2516
 3744TIP3    H135427   4.532   2.413   8.077  0.8003 -1.6488 -0.7396
 3744TIP3    H235428   4.537   2.367   8.222  2.2442 -0.8628 -0.5142
 3745TIP3   OH235429   3.582   1.923   9.337 -0.8278  0.3858  0.0750
 3745TIP3    H135430   3.540   1.885   9.414  0.4525 -0.9834  0.1247
 3745TIP3    H235431   3.550   1.871   9.264  0.1319 -0.1679  0.0277
 3746TIP3   OH235432   5.855   1.893   8.903 -0.0180 -0.1684  0.2699
 3746TIP3    H135433   5.916   1.966   8.912  0.0004 -0.2707  1.0633
 3746TIP3    H235434   5.876   1.855   8.818 -0.2580  0.9450 -0.3003
 3747TIP3   OH235435   6.324   7.576   8.647 -0.4870  0.8174 -0.1070
 3747TIP3    H135436   6.358   7.527   8.721 -0.0132  1.4269  0.0925
 3747TIP3    H235437   6.280   7.651   8.686  0.3829  1.5318 -0.4378
 3748TIP3   OH235438   3.092   0.493   7.740 -0.3837 -0.0469  0.2318
 3748TIP3    H135439   3.135   0.567   7.784  0.6363 -0.8650  0.6636
 3748TIP3    H235440   2.999   0.511   7.748 -0.1453  1.4154 -0.0658
 3749TIP3   OH235441   7.086   4.321   8.613  0.3859 -0.2742  0.3427
 3749TIP3    H135442   7.004   4.304   8.659 -0.9563  0.1202 -1.8060
 3749TIP3    H235443   7.101   4.244   8.559  1.5917 -0.4495  0.8761
 3750TIP3   OH235444   3.362   7.260   7.709  0.4291 -0.1468  0.4359
 3750TIP3    H135445   3.420   7.308   7.769  2.5150 -0.8164 -0.9251
 3750TIP3    H235446   3.324   7.328   7.654  0.4624  0.2604  0.9035
 3751TIP3   OH235447   6.745   5.391   8.390 -0.5584  0.2560  0.0843
 3751TIP3    H135448   6.837   5.363   8.390 -1.2672 -2.4874 -1.8357
 3751TIP3    H235449   6.733   5.433   8.475  1.8013 -1.7279  1.5351
 3752TIP3   OH235450   5.949   4.374   8.751  0.0349 -0.4357  0.1314
 3752TIP3    H135451   5.854   4.376   8.752  0.0321  0.7855 -0.4525
 3752TIP3    H235452   5.974   4.438   8.684  1.2619 -0.1901  0.7826
 3753TIP3   OH235453   7.481   6.745   8.434 -0.2689 -0.7170  0.3848
 3753TIP3    H135454   7.458   6.654   8.456  0.2361 -0.8435  0.3996
 3753TIP3    H235455   7.563   6.761   8.481 -0.3449 -0.2598  0.3630
 3754TIP3   OH235456   2.725   2.618   6.971  0.0911  0.0283  0.0146
 3754TIP3    H135457   2.641   2.601   6.928  0.4609  0.5741 -0.9418
 3754TIP3    H235458   2.707   2.604   7.064  0.0023 -4.0999 -0.4708
 3755TIP3   OH235459   6.049   0.253   9.045 -0.3874  0.3215  0.0223
 3755TIP3    H135460   6.027   0.219   9.132 -0.0249 -0.4520 -0.1889
 3755TIP3    H235461   5.982   0.216   8.987  0.6150 -0.8940 -0.3833
 3756TIP3   OH235462   0.058   4.259   7.111 -0.1374  0.0979  0.2492
 3756TIP3    H135463   0.070   4.234   7.019 -0.1371  2.4202 -0.4591
 3756TIP3    H235464   0.103   4.343   7.119 -2.3883  1.2806  1.6320
 3757TIP3   OH235465   3.383   4.592   7.334  0.0567 -0.0697  0.0028
 3757TIP3    H135466   3.429   4.563   7.255  0.3839  1.6506 -0.4898
 3757TIP3    H235467   3.317   4.654   7.302  0.0404  0.4734  1.0494
 3758TIP3   OH235468   4.357   6.278   8.429 -0.3031 -0.0294  0.9320
 3758TIP3    H135469   4.308   6.359   8.443 -0.0967  0.1325  0.7183
 3758TIP3    H235470   4.447   6.300   8.455  0.2462  0.4715 -1.1923
 3759TIP3   OH235471   2.826   3.918   8.285 -0.3285  0.1082  0.4396
 3759TIP3    H135472   2.859   3.995   8.332  1.1654  0.4157 -1.0044
 3759TIP3    H235473   2.731   3.929   8.284 -0.1517  1.9252  0.3062
 3760TIP3   OH235474   7.589   1.665   8.904  0.5706  0.2711 -0.2525
 3760TIP3    H135475   7.574   1.583   8.856  1.9666  0.1796 -0.5610
 3760TIP3    H235476   7.580   1.733   8.838 -0.2150  0.3484 -0.0719
 3761TIP3   OH235477   0.785   4.679   7.897  0.1187 -0.1756  0.1219
 3761TIP3    H135478   0.791   4.767   7.860  1.5655  0.6557  2.1352
 3761TIP3    H235479   0.855   4.630   7.853 -0.2037 -0.1165 -0.4675
 3762TIP3   OH235480   5.576   0.723   6.505  0.5199  0.3912  0.2597
 3762TIP3    H135481   5.578   0.671   6.425  0.5246  1.2111 -0.2877
 3762TIP3    H235482   5.665   0.759   6.512  1.0519 -1.1062  1.6151
 3763TIP3   OH235483   0.954   2.233   7.252  0.7024  0.2707  0.2777
 3763TIP3    H135484   0.947   2.186   7.169  2.1105  1.3496 -0.5032
 3763TIP3    H235485   0.865   2.236   7.287 -0.1277  0.8228 -1.7775
 3764TIP3   OH235486   2.440   5.520   7.792  0.3114 -0.0305 -0.3547
 3764TIP3    H135487   2.499   5.444   7.785 -0.1606 -0.3353 -1.3733
 3764TIP3    H235488   2.362   5.494   7.741 -0.7726  0.2977  1.0795
 3765TIP3   OH235489   4.205   5.945   8.985 -0.2964  0.1181 -0.4120
 3765TIP3    H135490   4.146   5.928   8.911 -0.9613 -0.6908  0.2828
 3765TIP3    H235491   4.253   5.863   8.997 -0.3722  0.1562  0.2023
 3766TIP3   OH235492   1.223   3.055   9.478 -0.2244  0.2086 -0.4643
 3766TIP3    H135493   1.243   3.069   9.571  0.5965  0.5667 -0.6897
 3766TIP3    H235494   1.133   3.023   9.478 -0.1928  0.0808  0.4667
 3767TIP3   OH235495   0.168   1.060   7.014 -0.4498  0.2702 -0.4737
 3767TIP3    H135496   0.165   1.109   6.932  0.7760  2.5846  0.7824
 3767TIP3    H235497   0.258   1.070   7.045 -1.0808  0.1398  1.5631
 3768TIP3   OH235498   6.839   3.988   7.396  0.0994  0.0498 -0.4960
 3768TIP3    H135499   6.782   4.064   7.388 -0.3254  0.0237  1.7613
 3768TIP3    H235500   6.780   3.913   7.389 -0.0261  0.0074  0.8571
 3769TIP3   OH235501   3.358   5.940   7.060  0.3803 -0.2952  0.1088
 3769TIP3    H135502   3.444   5.974   7.039  1.0721 -0.9898  1.6523
 3769TIP3    H235503   3.362   5.847   7.037 -0.2815 -0.1429 -0.6787
 3770TIP3   OH235504   3.909   3.148   8.613  0.3316 -0.0083  0.8200
 3770TIP3    H135505   3.839   3.173   8.553  0.1324 -0.3152  0.9185
 3770TIP3    H235506   3.981   3.121   8.557  0.4236  0.4425  0.7156
 3771TIP3   OH235507   5.197   4.670   8.091 -0.1259 -0.9300 -0.1140
 3771TIP3    H135508   5.123   4.722   8.123  1.8397  2.3619 -0.5114
 3771TIP3    H235509   5.173   4.647   8.001 -1.1552 -1.0218  0.1661
 3772TIP3   OH235510   4.221   5.843   8.237 -0.4197 -0.0485  0.3964
 3772TIP3    H135511   4.179   5.810   8.316 -0.8431 -0.2430  0.1022
 3772TIP3    H235512   4.301   5.885   8.267  0.2785 -1.5653  0.7715
 3773TIP3   OH235513   3.550   2.197   7.492 -0.3364 -0.1351 -0.4739
 3773TIP3    H135514   3.619   2.158   7.545  1.6873  3.1554 -0.3862
 3773TIP3    H235515   3.589   2.209   7.406 -1.8631 -0.8933 -1.3064
 3774TIP3   OH235516   2.140   6.202   7.093 -0.1179 -0.0965 -0.2728
 3774TIP3    H135517   2.109   6.136   7.154 -1.7685  0.3478 -0.5661
 3774TIP3    H235518   2.100   6.179   7.010 -1.7712  1.8751 -0.1292
 3775TIP3   OH235519   5.576   1.830   7.660 -0.4273  0.1550  0.5057
 3775TIP3    H135520   5.508   1.764   7.671 -0.4801 -0.0183 -0.6976
 3775TIP3    H235521   5.643   1.788   7.606  0.6708  0.3147  1.6933
 3776TIP3   OH235522   0.028   2.844   9.265 -0.2866  0.3020  0.0198
 3776TIP3    H135523   0.013   2.925   9.314  1.5497  1.0484 -0.5870
 3776TIP3    H235524   0.119   2.848   9.238 -0.0633 -2.1009  0.1535
 3777TIP3   OH235525   3.685   4.289   8.293 -0.2018 -0.3572  0.1200
 3777TIP3    H135526   3.776   4.313   8.276 -0.5279 -0.2847 -1.7306
 3777TIP3    H235527   3.690   4.213   8.351  1.0043  0.0929  0.6304
 3778TIP3   OH235528   3.001   3.714   8.407  0.2130  0.2215 -0.1925
 3778TIP3    H135529   2.942   3.715   8.331  0.4473 -0.6630 -0.4010
 3778TIP3    H235530   3.083   3.750   8.373  0.7372 -1.3865 -0.7519
 3779TIP3   OH235531   4.319   6.546   7.403  0.1887  0.2996 -0.5960
 3779TIP3    H135532   4.287   6.608   7.338 -0.2021 -0.1077 -0.8062
 3779TIP3    H235533   4.260   6.471   7.395  0.1124  0.2541  0.2518
 3780TIP3   OH235534   4.578   5.834   6.922 -0.0307  0.0051  0.0420
 3780TIP3    H135535   4.612   5.758   6.875 -0.2383  0.0743 -0.2237
 3780TIP3    H235536   4.616   5.909   6.877 -2.1339  0.1771 -1.6003
 3781TIP3   OH235537   6.036   3.395   7.296 -0.1465 -0.1882  0.1992
 3781TIP3    H135538   6.082   3.344   7.363 -0.3456 -2.2562 -1.1344
 3781TIP3    H235539   5.945   3.366   7.303 -0.7217  1.6353  0.8169
 3782TIP3   OH235540   2.472   2.153   9.090  0.1985 -0.0274  0.7024
 3782TIP3    H135541   2.531   2.215   9.133  0.7768 -0.3302  0.3613
 3782TIP3    H235542   2.456   2.085   9.155  0.0783  0.1431  0.8541
 3783TIP3   OH235543   7.665   0.169   9.111  0.4774 -0.4598 -0.5510
 3783TIP3    H135544   7.744   0.166   9.057 -0.2247 -1.2265 -1.5582
 3783TIP3    H235545   7.663   0.259   9.144  0.9151  0.0451 -1.8302
 3784TIP3   OH235546   5.476   2.832   9.339 -0.0527  0.1591  0.0671
 3784TIP3    H135547   5.395   2.783   9.331  0.1926 -0.0929 -1.1024
 3784TIP3    H235548   5.458   2.898   9.407 -1.1313 -0.0627  0.0134
 3785TIP3   OH235549   0.483   0.433   6.954 -0.3021  1.0634 -0.0128
 3785TIP3    H135550   0.487   0.344   6.920  0.8175  0.9400  0.4152
 3785TIP3    H235551   0.408   0.433   7.014  0.7449 -0.0907  1.3560
 3786TIP3   OH235552   6.366   1.480   6.520 -0.0877 -0.2072 -0.1577
 3786TIP3    H135553   6.437   1.498   6.582 -0.2264  1.3493 -0.4046
 3786TIP3    H235554   6.399   1.408   6.466  0.3202 -1.1119  1.2361
 3787TIP3   OH235555   3.755   2.668   7.611  0.4611 -0.2012 -0.1932
 3787TIP3    H135556   3.823   2.647   7.674  0.6618 -1.6155 -0.8575
 3787TIP3    H235557   3.767   2.605   7.540 -1.5816 -0.5410 -0.2913
 3788TIP3   OH235558   3.894   5.182   9.560  0.0815 -0.4861 -0.1456
 3788TIP3    H135559   3.818   5.124   9.550 -0.7266  0.4319  0.4133
 3788TIP3    H235560   3.862   5.253   9.615  1.5941 -0.4751  0.7729
 3789TIP3   OH235561   5.245   0.655   7.791  0.2420 -0.1443  0.1027
 3789TIP3    H135562   5.162   0.625   7.754 -0.1476  0.1270  0.7383
 3789TIP3    H235563   5.295   0.574   7.804  1.1045 -0.1353 -2.5961
 3790TIP3   OH235564   5.311   0.683   6.936 -0.0518 -0.3658 -0.0693
 3790TIP3    H135565   5.244   0.749   6.920 -0.2514  0.7432  4.2699
 3790TIP3    H235566   5.265   0.611   6.979  1.1541 -0.5508  0.9582
 3791TIP3   OH235567   2.932   3.586   9.308 -0.0276  0.0253  0.4298
 3791TIP3    H135568   2.845   3.598   9.347 -0.4334 -1.7152  0.1136
 3791TIP3    H235569   2.931   3.641   9.230 -0.5304  0.6742  0.8791
 3792TIP3   OH235570   0.060   4.990   7.593 -0.0276 -0.5455 -0.5768
 3792TIP3    H135571   0.000   4.960   7.524 -0.8829 -1.3754  0.4810
 3792TIP3    H235572   0.002   5.019   7.663  0.8294 -0.3864  0.0753
 3793TIP3   OH235573   2.190   2.171   8.926  0.4262  0.3146 -0.0287
 3793TIP3    H135574   2.184   2.091   8.874 -0.4025  0.5127 -0.2520
 3793TIP3    H235575   2.218   2.141   9.013 -0.6353 -0.3179  0.1138
 3794TIP3   OH235576   5.300   5.784   7.947 -0.2525 -0.0767  0.2510
 3794TIP3    H135577   5.318   5.852   7.882  0.5366 -0.2186  0.3152
 3794TIP3    H235578   5.276   5.707   7.895 -0.5668  0.0835  0.1591
 3795TIP3   OH235579   6.536   2.338   7.514 -0.4040  0.0672  0.0562
 3795TIP3    H135580   6.613   2.317   7.461 -0.2274  3.3520 -1.2127
 3795TIP3    H235581   6.463   2.335   7.453 -1.2370 -1.9680  1.0303
 3796TIP3   OH235582   2.773   2.398   7.571  0.3421  0.4791  0.4580
 3796TIP3    H135583   2.822   2.319   7.595  2.8289  2.2733  1.7562
 3796TIP3    H235584   2.815   2.429   7.491 -0.3471  0.6879  0.1766
 3797TIP3   OH235585   3.270   5.269   7.736 -0.4330 -0.1847 -0.1435
 3797TIP3    H135586   3.223   5.339   7.781 -0.7276  0.0530 -0.8140
 3797TIP3    H235587   3.213   5.192   7.743 -1.1981  0.2445 -1.4447
 3798TIP3   OH235588   3.557   1.602   7.740  0.4047 -0.1607  0.7009
 3798TIP3    H135589   3.641   1.623   7.698 -0.7260 -2.1541 -3.0325
 3798TIP3    H235590   3.496   1.667   7.704 -0.2155 -0.5930  0.9635
 3799TIP3   OH235591   0.180   6.120   7.459 -0.5121  0.1551  0.2326
 3799TIP3    H135592   0.130   6.113   7.540 -0.4720 -1.6670  0.1326
 3799TIP3    H235593   0.144   6.198   7.416 -1.9418 -0.0268  1.0342
 3800TIP3   OH235594   6.185   1.747   8.454 -0.2162  0.3522  0.3862
 3800TIP3    H135595   6.273   1.722   8.481  0.5258  2.6731  0.3321
 3800TIP3    H235596   6.164   1.824   8.507 -2.5228 -0.5081  0.8732
 3801TIP3   OH235597   1.195   2.921   8.061 -0.1281 -0.3623  0.5930
 3801TIP3    H135598   1.290   2.917   8.073 -0.1804 -2.0674  0.7538
 3801TIP3    H235599   1.172   2.834   8.026 -1.6856 -0.1741  1.0723
 3802TIP3   OH235600   4.145   6.254   7.103  0.0185  0.5396 -0.2024
 3802TIP3    H135601   4.119   6.162   7.109  0.3109  0.4908  0.4836
 3802TIP3    H235602   4.093   6.290   7.032  0.4968 -0.3555 -1.0262
 3803TIP3   OH235603   1.247   5.127   8.197 -0.3971  0.4323 -0.6523
 3803TIP3    H135604   1.269   5.084   8.279 -1.7647 -1.1348 -1.0562
 3803TIP3    H235605   1.166   5.174   8.215 -1.2323 -0.7016 -1.3094
 3804TIP3   OH235606   4.772   3.028   8.393 -0.3359 -0.0673  0.0208
 3804TIP3    H135607   4.844   3.067   8.443 -0.5435  1.0413 -0.5114
 3804TIP3    H235608   4.812   3.003   8.309 -0.3073 -0.5817  0.1860
 3805TIP3   OH235609   3.793   2.420   7.428 -0.0126 -0.1397  0.4910
 3805TIP3    H135610   3.698   2.428   7.415 -0.1966 -1.1188  1.1072
 3805TIP3    H235611   3.812   2.328   7.411  0.9218  0.1526 -0.1255
 3806TIP3   OH235612   7.223   5.961   9.219 -0.5032 -0.1000  0.3062
 3806TIP3    H135613   7.298   5.911   9.252 -0.0679  0.2833 -0.0783
 3806TIP3    H235614   7.162   5.894   9.189  0.9486 -0.4664 -2.1622
 3807TIP3   OH235615   4.521   6.446   8.746 -0.4586  0.1070 -0.0086
 3807TIP3    H135616   4.435   6.464   8.707 -0.7998 -1.1908  0.0799
 3807TIP3    H235617   4.579   6.431   8.672 -1.1696 -2.6400 -0.1224
 3808TIP3   OH235618   2.913   0.419   9.449  0.2906 -0.4884  0.0843
 3808TIP3    H135619   2.980   0.474   9.489 -1.3133  2.6368 -1.2080
 3808TIP3    H235620   2.921   0.435   9.355 -0.1033 -2.7414 -0.3918
 3809TIP3   OH235621   0.138   3.557   8.119 -0.1482 -0.3837  0.1288
 3809TIP3    H135622   0.154   3.625   8.053 -1.6977 -1.0112 -0.9536
 3809TIP3    H235623   0.151   3.601   8.203 -0.6748  1.1307 -0.5606
 3810TIP3   OH235624   3.231   7.443   7.536 -0.0814 -0.1086 -0.0048
 3810TIP3    H135625   3.299   7.510   7.533 -0.4649  0.2755 -0.3401
 3810TIP3    H235626   3.152   7.490   7.564 -0.3287 -0.4334 -0.1442
 3811TIP3   OH235627   5.083   3.002   7.729  0.3131 -0.4051 -0.4246
 3811TIP3    H135628   5.045   3.072   7.782 -0.5313  0.1096 -1.6551
 3811TIP3    H235629   5.177   3.024   7.725  0.2099  0.1456 -0.0409
 3812TIP3   OH235630   1.294   3.341   8.015  0.4327 -0.0831  0.1052
 3812TIP3    H135631   1.383   3.351   7.980  0.8331 -0.8125  0.8831
 3812TIP3    H235632   1.255   3.428   8.005  1.8055  0.7090  1.2810
 3813TIP3   OH235633   4.076   1.549   8.769 -0.7420 -0.2325 -0.1092
 3813TIP3    H135634   4.023   1.507   8.837  0.9154 -1.0238  0.7528
 3813TIP3    H235635   4.126   1.616   8.816  1.5275 -1.7628 -0.1561
 3814TIP3   OH235636   2.946   6.005   9.139  0.1116  0.4361  0.0792
 3814TIP3    H135637   2.858   6.026   9.108 -0.2791 -1.5236 -0.2586
 3814TIP3    H235638   3.003   6.033   9.067 -0.4554 -0.3314 -0.6984
 3815TIP3   OH235639   1.254   4.843   7.597 -0.0802  0.1083  0.0924
 3815TIP3    H135640   1.230   4.751   7.607 -0.8327  0.4854  2.3514
 3815TIP3    H235641   1.285   4.850   7.506 -1.5745 -1.9906 -0.6562
 3816TIP3   OH235642   0.055   4.013   9.577 -0.1034  0.1183 -0.1214
 3816TIP3    H135643   0.112   3.946   9.613  0.5123  0.4168 -0.5316
 3816TIP3    H235644  -0.003   3.966   9.517  0.8874  0.0550 -1.0651
 3817TIP3   OH235645   0.780   6.945   8.929  0.1710 -0.5908 -0.0005
 3817TIP3    H135646   0.757   6.907   8.844 -1.0136 -0.3964  0.2149
 3817TIP3    H235647   0.714   6.911   8.989 -0.1172  0.7358  0.4661
 3818TIP3   OH235648   0.006   3.186   8.630  0.1009  0.0562 -0.1408
 3818TIP3    H135649  -0.020   3.097   8.607  0.1514 -0.0201  0.0914
 3818TIP3    H235650   0.050   3.219   8.551 -0.0281 -0.0794 -0.2705
 3819TIP3   OH235651   2.872   1.885   7.759  0.2792  0.1548  0.0625
 3819TIP3    H135652   2.916   1.926   7.834 -0.9651 -0.6791  1.3016
 3819TIP3    H235653   2.865   1.793   7.784 -2.3228  0.2824  0.0245
 3820TIP3   OH235654   1.702   0.257   7.858 -0.0695 -0.2089 -0.4316
 3820TIP3    H135655   1.719   0.267   7.952 -0.4236  0.0559 -0.3943
 3820TIP3    H235656   1.620   0.303   7.843 -1.6288 -2.7604 -0.3227
 3821TIP3   OH235657   1.185   0.956   7.486  0.3291  0.2326 -0.3713
 3821TIP3    H135658   1.149   0.886   7.540  1.9285 -0.5171 -0.2002
 3821TIP3    H235659   1.113   0.983   7.429 -0.8803 -0.1610  0.9406
 3822TIP3   OH235660   1.127   7.614   9.350 -0.0351  0.2644  0.2422
 3822TIP3    H135661   1.217   7.644   9.365  0.4064 -0.9460  0.1652
 3822TIP3    H235662   1.124   7.595   9.256  0.7523 -2.9604  0.7409
 3823TIP3   OH235663   0.008   2.492   8.455  0.4043 -0.1776 -0.0603
 3823TIP3    H135664  -0.048   2.550   8.507  1.0519 -1.2132  1.9166
 3823TIP3    H235665   0.093   2.534   8.454  0.2968  0.0244 -0.6101
 3824TIP3   OH235666   6.616   1.627   7.433 -0.4143 -0.0899 -0.5443
 3824TIP3    H135667   6.615   1.567   7.359  0.8431 -1.7757  0.7279
 3824TIP3    H235668   6.600   1.572   7.509  0.4813  1.2309  0.6572
 3825TIP3   OH235669   0.504   0.865   7.210 -0.2194  0.2379  0.4285
 3825TIP3    H135670   0.430   0.806   7.198 -0.1730  0.3320 -0.3301
 3825TIP3    H235671   0.506   0.882   7.305 -0.2347 -0.9647  0.6616
 3826TIP3   OH235672   4.770   5.153   8.555  0.0900 -0.0305  0.3337
 3826TIP3    H135673   4.827   5.127   8.628 -0.7418 -1.2255  0.5818
 3826TIP3    H235674   4.715   5.076   8.539  0.3925  0.1121 -1.7115
 3827TIP3   OH235675   1.167   0.856   8.613  0.3655 -0.0361 -0.7608
 3827TIP3    H135676   1.132   0.850   8.702 -0.2308  1.5383 -0.8582
 3827TIP3    H235677   1.225   0.780   8.605  1.4713  0.4981  1.4125
 3828TIP3   OH235678   0.361   2.421   9.708 -0.0890 -0.2747 -0.5501
 3828TIP3    H135679   0.432   2.468   9.665  0.7680 -0.9658  0.0517
 3828TIP3    H235680   0.386   2.329   9.703 -0.8715 -0.5234 -0.1952
 3829TIP3   OH235681   5.210   4.199   8.715 -0.0864 -0.9829  0.3954
 3829TIP3    H135682   5.165   4.208   8.631  0.1333 -1.4713  0.2217
 3829TIP3    H235683   5.164   4.260   8.773 -1.0528 -1.5494  0.2557
 3830TIP3   OH235684   3.084   0.153   8.593 -0.2897  0.1448 -0.0914
 3830TIP3    H135685   3.145   0.196   8.653  0.4803 -1.7610  0.5541
 3830TIP3    H235686   3.079   0.213   8.518  0.8728  1.2644  0.6812
 3831TIP3   OH235687   4.528   1.722   8.403  0.3199 -0.5912  0.1885
 3831TIP3    H135688   4.505   1.675   8.483 -1.0727 -0.2269  0.0395
 3831TIP3    H235689   4.455   1.782   8.389  1.7650  1.2101  0.0435
 3832TIP3   OH235690   4.240   0.980   7.646  0.3642 -0.2206  0.6906
 3832TIP3    H135691   4.201   1.068   7.649 -1.7987 -0.7633 -3.7673
 3832TIP3    H235692   4.332   0.994   7.668 -0.1127  2.9382  1.2221
 3833TIP3   OH235693   2.396   0.868   7.827  0.3933 -0.3911 -0.1226
 3833TIP3    H135694   2.372   0.901   7.740  0.7964  0.0704 -0.0593
 3833TIP3    H235695   2.365   0.935   7.887 -1.2744 -1.4097  0.2225
 3834TIP3   OH235696   5.346   6.153   8.971 -0.1844 -0.0297  0.2044
 3834TIP3    H135697   5.348   6.201   8.888  0.4609  1.2146  0.9045
 3834TIP3    H235698   5.416   6.089   8.963  0.3103  0.5220  0.0202
 3835TIP3   OH235699   1.362   6.493   8.706 -0.3244  0.1466 -0.0750
 3835TIP3    H135700   1.354   6.406   8.668 -1.9391  1.0182 -1.8675
 3835TIP3    H235701   1.287   6.541   8.673 -0.0189  1.9622  1.6671
 3836TIP3   OH235702   2.613   2.762   9.618 -0.0550 -0.0981 -0.2680
 3836TIP3    H135703   2.596   2.759   9.713  0.7037  0.5374 -0.1045
 3836TIP3    H235704   2.619   2.670   9.592 -0.6622 -0.2878  0.2241
 3837TIP3   OH235705   1.524   7.133   8.722  0.5421 -0.2734 -0.2281
 3837TIP3    H135706   1.495   7.079   8.649 -0.0833  2.3965 -2.1047
 3837TIP3    H235707   1.595   7.186   8.686 -0.3094  1.6808  0.8255
 3838TIP3   OH235708   4.851   0.090   8.699 -0.2216  0.1475 -0.0156
 3838TIP3    H135709   4.799   0.139   8.763 -1.2520  0.0978 -0.7915
 3838TIP3    H235710   4.787   0.037   8.652  0.4757  0.3859 -1.2792
 3839TIP3   OH235711   5.170   7.108   9.274  0.7367  0.1621 -0.4323
 3839TIP3    H135712   5.261   7.115   9.303  0.7889 -3.0683  0.4795
 3839TIP3    H235713   5.175   7.074   9.185  0.4679 -1.5292  0.1639
 3840TIP3   OH235714   3.127   2.986   8.558 -0.3118  0.6119 -0.1903
 3840TIP3    H135715   3.158   2.971   8.647 -0.9207  0.3145 -0.0218
 3840TIP3    H235716   3.111   3.081   8.554  0.4955  0.7539 -0.2480
 3841TIP3   OH235717   5.383   5.532   7.450 -0.5716 -0.9140  0.2043
 3841TIP3    H135718   5.368   5.602   7.514 -1.9143 -1.0237  0.0308
 3841TIP3    H235719   5.463   5.489   7.480 -0.6707 -0.3773  1.2782
 3842TIP3   OH235720   5.225   5.078   8.805  0.2833  0.6430 -0.1763
 3842TIP3    H135721   5.256   4.988   8.795 -2.4111 -0.5679  1.3385
 3842TIP3    H235722   5.281   5.129   8.747  0.3419 -2.3339 -3.0387
 3843TIP3   OH235723   1.852   2.946   7.971  0.2215 -0.4775  0.1229
 3843TIP3    H135724   1.799   2.989   8.039  1.2145  0.3629  0.3985
 3843TIP3    H235725   1.789   2.900   7.916 -0.5935 -1.4195  1.7792
 3844TIP3   OH235726   2.893   5.637   7.940 -0.5834  0.2528  0.1581
 3844TIP3    H135727   2.940   5.720   7.948 -0.9240  0.4462  0.1451
 3844TIP3    H235728   2.822   5.643   8.003  0.2181 -0.5985  1.1834
 3845TIP3   OH235729   7.238   1.417   7.406  0.1899  0.3193 -0.8007
 3845TIP3    H135730   7.219   1.327   7.432 -1.5888  0.7433 -0.5186
 3845TIP3    H235731   7.326   1.433   7.439 -0.1214 -0.7662  0.6471
 3846TIP3   OH235732   1.011   2.513   7.736 -0.2995  0.7994 -0.3097
 3846TIP3    H135733   0.955   2.521   7.814  0.3164  1.5802  0.0682
 3846TIP3    H235734   1.076   2.582   7.747  1.2291 -0.5760 -0.3302
 3847TIP3   OH235735   2.126   6.598   8.803  0.0692 -0.0927  0.2653
 3847TIP3    H135736   2.073   6.655   8.858  1.6659  0.2306  1.5456
 3847TIP3    H235737   2.196   6.654   8.770  0.5986 -0.8761  0.0088
 3848TIP3   OH235738   5.781   6.002   7.212 -0.7205  0.3377  0.1881
 3848TIP3    H135739   5.745   6.043   7.133 -0.5209 -0.6572 -0.4479
 3848TIP3    H235740   5.846   6.063   7.244 -0.4457  0.5400 -0.7207
 3849TIP3   OH235741   3.741   0.476   6.782 -0.5076  0.7514  0.4554
 3849TIP3    H135742   3.764   0.566   6.807 -1.4277  1.5664 -1.3688
 3849TIP3    H235743   3.814   0.447   6.728 -0.9322  1.0525 -0.3061
 3850TIP3   OH235744   1.285   0.917   9.100 -0.5796 -0.0141 -0.1929
 3850TIP3    H135745   1.378   0.903   9.082 -0.0256  1.4069  1.3710
 3850TIP3    H235746   1.269   0.868   9.180 -1.1195 -0.0637 -0.3311
 3851TIP3   OH235747   1.608   1.577   6.318  0.4951 -0.1828  0.0245
 3851TIP3    H135748   1.666   1.612   6.386 -0.1816  0.8669  0.0864
 3851TIP3    H235749   1.563   1.654   6.283 -2.5879 -1.1215  1.5712
 3852TIP3   OH235750   1.228   5.483   9.393 -0.4490  0.7018 -0.5144
 3852TIP3    H135751   1.144   5.519   9.366 -1.4817 -1.6406 -0.6886
 3852TIP3    H235752   1.223   5.390   9.369  2.0860  0.4298 -0.2670
 3853TIP3   OH235753   2.101   7.167   6.805  0.5694 -0.7210 -0.0820
 3853TIP3    H135754   2.041   7.218   6.749  0.5520 -0.9013 -0.2302
 3853TIP3    H235755   2.178   7.222   6.813  1.0664 -1.1976 -1.2887
 3854TIP3   OH235756   4.546   0.118   7.566  0.1171 -0.2633  0.2404
 3854TIP3    H135757   4.609   0.087   7.502 -0.8829 -0.9408 -0.4553
 3854TIP3    H235758   4.487   0.044   7.579 -0.0415  0.0560  1.5244
 3855TIP3   OH235759   3.521   0.431   7.292 -0.4073 -0.0659 -0.1121
 3855TIP3    H135760   3.577   0.473   7.227  0.4979  2.2527  1.9852
 3855TIP3    H235761   3.440   0.483   7.291 -0.3244  0.0952  0.6583
 3856TIP3   OH235762   3.620   5.585   9.449 -0.2824 -0.1763  0.3072
 3856TIP3    H135763   3.638   5.548   9.535  0.0961 -0.0233  0.2983
 3856TIP3    H235764   3.646   5.517   9.387  1.2391  0.3971  0.2638
 3857TIP3   OH235765   3.426   0.495   9.304  0.3738 -0.1942 -0.1147
 3857TIP3    H135766   3.477   0.516   9.382  1.4176 -0.7698 -0.6175
 3857TIP3    H235767   3.460   0.410   9.276 -2.0424 -1.4409  0.4769
 3858TIP3   OH235768   4.320   0.083   8.723  0.1340  0.1877 -0.0972
 3858TIP3    H135769   4.303   0.055   8.633 -0.4291 -0.4101  0.1928
 3858TIP3    H235770   4.246   0.051   8.773  0.8630 -0.2251  0.7433
 3859TIP3   OH235771   4.710   4.682   7.872  0.2333 -0.0717 -0.3717
 3859TIP3    H135772   4.639   4.681   7.935  1.4801 -0.6478  1.0699
 3859TIP3    H235773   4.741   4.592   7.868  1.1612  0.2407 -0.6433
 3860TIP3   OH235774   2.819   3.400   8.070  0.3164  0.1182 -0.1014
 3860TIP3    H135775   2.817   3.490   8.102  0.1538 -0.5638  1.9773
 3860TIP3    H235776   2.729   3.370   8.078  0.4920 -0.4315 -0.1417
 3861TIP3   OH235777   5.041   2.817   8.420 -0.0260  0.5561 -0.3805
 3861TIP3    H135778   5.058   2.911   8.409  0.6933  0.4107 -0.5776
 3861TIP3    H235779   5.060   2.799   8.512 -1.3563  0.8345 -0.0365
 3862TIP3   OH235780   1.396   3.705   8.108  0.4157  0.4207  0.3223
 3862TIP3    H135781   1.479   3.662   8.130 -1.0213 -1.1729  3.3472
 3862TIP3    H235782   1.348   3.641   8.055  0.1330  0.2247  0.8029
 3863TIP3   OH235783   7.390   0.669   8.430 -0.4176 -0.5640  0.4272
 3863TIP3    H135784   7.310   0.706   8.392  0.3680  0.8079  0.0416
 3863TIP3    H235785   7.374   0.671   8.524 -0.2810  1.1443  0.4469
 3864TIP3   OH235786   2.055   3.575   8.429  0.4669  0.0646  0.3421
 3864TIP3    H135787   1.998   3.517   8.480  0.7130 -0.0385  0.5003
 3864TIP3    H235788   2.104   3.625   8.494  0.5766  0.1363  0.2056
 3865TIP3   OH235789   2.947   0.459   6.843 -0.3108  0.0771 -0.2113
 3865TIP3    H135790   3.014   0.394   6.867  1.5353  1.8965 -0.1585
 3865TIP3    H235791   2.923   0.435   6.754  0.6036 -0.4906 -0.3250
 3866TIP3   OH235792   1.394   1.638   8.819  0.1953  0.4834  0.5292
 3866TIP3    H135793   1.360   1.686   8.895 -0.1055  0.6948  0.2654
 3866TIP3    H235794   1.346   1.555   8.820  0.8869  0.0797  1.1232
 3867TIP3   OH235795   4.260   3.429   7.799  0.4695  0.3760 -0.5309
 3867TIP3    H135796   4.275   3.360   7.735 -1.2195  0.3783 -0.9751
 3867TIP3    H235797   4.324   3.411   7.868 -0.5230 -2.2591 -0.1487
 3868TIP3   OH235798   4.715   1.103   7.506  0.3671  0.1547  0.5634
 3868TIP3    H135799   4.646   1.162   7.476 -0.6595 -0.2442  2.0830
 3868TIP3    H235800   4.728   1.043   7.432 -1.4449 -0.2373  0.5320
 3869TIP3   OH235801   4.672   6.244   9.269  0.1030 -0.2362 -0.1896
 3869TIP3    H135802   4.684   6.278   9.180  0.9869 -0.9746 -0.3660
 3869TIP3    H235803   4.756   6.260   9.312  0.1411 -1.1193  0.0821
 3870TIP3   OH235804   6.160   4.697   7.981  0.1216 -0.0816  0.4721
 3870TIP3    H135805   6.137   4.755   8.053 -0.0824 -0.3536  0.6257
 3870TIP3    H235806   6.255   4.683   7.991  0.1991  0.3454  0.3425
 3871TIP3   OH235807   0.985   4.639   8.402  0.1992 -0.0774 -0.4019
 3871TIP3    H135808   1.031   4.713   8.362 -1.1949  0.2068 -1.5855
 3871TIP3    H235809   0.930   4.604   8.331 -0.7969 -0.8729  0.7277
 3872TIP3   OH235810   5.319   2.346   9.217 -0.2428 -0.5729 -0.8789
 3872TIP3    H135811   5.320   2.250   9.219  0.3422 -0.5751  0.8618
 3872TIP3    H235812   5.411   2.371   9.228 -0.4921  0.1869 -0.4530
 3873TIP3   OH235813   3.317   2.725   8.522 -0.8015 -0.0135 -0.0077
 3873TIP3    H135814   3.257   2.658   8.555 -0.7442  0.5738  1.3334
 3873TIP3    H235815   3.401   2.705   8.562 -0.3350 -0.1914 -1.0354
 3874TIP3   OH235816   4.037   4.152   9.380  0.1998 -0.4360 -0.0369
 3874TIP3    H135817   4.034   4.121   9.471 -2.7022  0.3710  0.2484
 3874TIP3    H235818   4.098   4.226   9.382  0.6488 -0.8047  1.1139
 3875TIP3   OH235819   2.019   2.368   8.741 -0.4508  0.3781 -0.0454
 3875TIP3    H135820   2.069   2.335   8.816  0.3789 -1.7756 -1.4234
 3875TIP3    H235821   1.945   2.415   8.779  2.1416  3.0764  2.0921
 3876TIP3   OH235822   1.076   4.415   9.387 -0.4131  0.2260 -0.4684
 3876TIP3    H135823   1.011   4.347   9.369  0.5523 -0.4922 -1.3953
 3876TIP3    H235824   1.124   4.383   9.464  0.3136 -0.3862 -1.1506
 3877TIP3   OH235825   2.391   6.672   8.701 -0.6457  0.2484  0.5715
 3877TIP3    H135826   2.458   6.605   8.688  0.5259  0.9380  2.5554
 3877TIP3    H235827   2.433   6.737   8.757 -2.6434  1.2593  0.9857
 3878TIP3   OH235828   0.726   6.784   8.681 -0.1060  0.3101  0.2553
 3878TIP3    H135829   0.765   6.761   8.597 -0.0929 -0.2168  0.4016
 3878TIP3    H235830   0.724   6.702   8.730  0.2976  0.6866  0.9339
 3879TIP3   OH235831   0.068   0.025   9.339 -0.2340  0.0581  0.3378
 3879TIP3    H135832   0.032   0.089   9.277 -1.6513  0.4579  1.5197
 3879TIP3    H235833   0.049  -0.060   9.300 -0.2332  0.3164 -0.2357
 3880TIP3   OH235834   0.315   0.534   7.897  0.4934 -0.1818 -0.2505
 3880TIP3    H135835   0.320   0.442   7.925  0.5455 -0.6956 -1.8352
 3880TIP3    H235836   0.355   0.583   7.969  0.2805 -1.3664  0.7285
 3881TIP3   OH235837   0.960   0.459   6.932  0.4572 -0.0168 -0.5774
 3881TIP3    H135838   0.970   0.367   6.909  1.8787  0.1403 -0.6706
 3881TIP3    H235839   0.867   0.477   6.919 -0.0128 -1.6529  0.3223
 3882TIP3   OH235840   0.913   2.511   8.658  0.1283 -0.5248 -0.7096
 3882TIP3    H135841   0.969   2.451   8.705 -0.0383 -0.1015  0.0461
 3882TIP3    H235842   0.865   2.456   8.596 -1.5454 -1.5241  1.3587
 3883TIP3   OH235843   0.688   4.138   7.590  0.3527 -0.2564  0.3826
 3883TIP3    H135844   0.597   4.163   7.607  0.3251  0.5635 -0.8034
 3883TIP3    H235845   0.687   4.042   7.588 -0.5588 -0.2478  0.0263
 3884TIP3   OH235846   1.744   2.165   9.204 -0.2530 -0.2156  0.5443
 3884TIP3    H135847   1.679   2.233   9.223  0.4545  0.8230 -0.6032
 3884TIP3    H235848   1.823   2.195   9.248  0.3300  0.2429 -0.7610
 3885TIP3   OH235849   5.160   6.994   8.269 -0.3767 -0.0946  0.1253
 3885TIP3    H135850   5.226   6.932   8.238 -0.3491 -0.2425  0.4782
 3885TIP3    H235851   5.198   7.034   8.347 -0.1893  0.7332 -0.3750
 3886TIP3   OH235852   3.014   2.581   6.661  0.0407 -0.0769  0.2682
 3886TIP3    H135853   2.945   2.573   6.595  0.8460 -0.6930 -0.5228
 3886TIP3    H235854   2.983   2.527   6.734 -0.3492 -0.2931 -0.0498
 3887TIP3   OH235855   0.544   2.109   9.346  0.2056  0.3542  0.1600
 3887TIP3    H135856   0.532   2.123   9.440  0.8940 -0.4649  0.3854
 3887TIP3    H235857   0.636   2.084   9.338  0.6636  2.2190 -0.9699
 3888TIP3   OH235858   5.479   2.707   8.158  0.2812  0.1425  0.4410
 3888TIP3    H135859   5.563   2.661   8.153  0.0415 -0.2420 -0.0901
 3888TIP3    H235860   5.478   2.744   8.247  0.6052 -0.6287  0.7782
 3889TIP3   OH235861   5.515   6.454   8.980  0.2242  0.1991 -0.0158
 3889TIP3    H135862   5.610   6.454   8.990  0.3096 -1.1867 -0.6743
 3889TIP3    H235863   5.501   6.433   8.888 -0.7105  2.2338 -0.3864
 3890TIP3   OH235864   0.933   3.579   7.537  0.1356 -0.0854 -0.2713
 3890TIP3    H135865   0.910   3.488   7.515  0.2858 -0.2717  0.3234
 3890TIP3    H235866   0.855   3.629   7.515 -0.0632 -0.4042 -0.3032
 3891TIP3   OH235867   6.211   1.523   9.389 -0.5148 -0.3024 -0.9164
 3891TIP3    H135868   6.268   1.583   9.341 -0.0565  1.1549  1.2852
 3891TIP3    H235869   6.145   1.580   9.428  0.1911 -1.0816  1.6248
 3892TIP3   OH235870   7.153   4.185   8.935  0.0568  0.5397 -0.0198
 3892TIP3    H135871   7.141   4.155   9.025 -0.3207 -0.9775 -0.5447
 3892TIP3    H235872   7.155   4.105   8.883 -0.3599  1.4080 -1.4388
 3893TIP3   OH235873   6.343   1.823   9.436  0.3056 -0.2575  0.4333
 3893TIP3    H135874   6.389   1.798   9.357  1.3087  0.4512  0.7754
 3893TIP3    H235875   6.254   1.843   9.407  0.4004 -0.9373 -0.3498
 3894TIP3   OH235876   0.789   0.636   9.347  1.0042 -0.1325  0.1585
 3894TIP3    H135877   0.750   0.592   9.423  0.6704  0.2418  0.2097
 3894TIP3    H235878   0.729   0.616   9.275  0.1978  1.1999  0.4274
 3895TIP3   OH235879   0.788   6.020   8.229 -0.8357 -0.7550  0.2425
 3895TIP3    H135880   0.726   6.073   8.279 -0.2392  2.5254 -2.1389
 3895TIP3    H235881   0.737   5.987   8.155 -0.6134 -1.3868  0.3653
 3896TIP3   OH235882   1.288   7.476   8.191 -0.5402  0.7566  0.2180
 3896TIP3    H135883   1.195   7.466   8.173 -0.7302  2.3309  0.2357
 3896TIP3    H235884   1.331   7.423   8.123 -1.4145  1.2395 -0.7381
 3897TIP3   OH235885   2.216   6.732   8.279  0.1292 -0.5277 -0.2004
 3897TIP3    H135886   2.240   6.819   8.312 -0.4797 -0.9076  1.3231
 3897TIP3    H235887   2.210   6.743   8.184  1.8680  0.6398 -0.2073
 3898TIP3   OH235888   7.267   0.669   9.377 -0.4652 -0.1724 -0.0523
 3898TIP3    H135889   7.232   0.724   9.447 -2.8009 -1.0330 -0.4352
 3898TIP3    H235890   7.275   0.582   9.417 -1.8150 -0.6709 -0.7853
 3899TIP3   OH235891   6.618   5.975   8.324  0.3253 -0.2468 -0.3853
 3899TIP3    H135892   6.532   6.008   8.348  0.9179 -0.4902  2.4998
 3899TIP3    H235893   6.625   5.891   8.369  2.0889 -0.1995 -0.4953
 3900TIP3   OH235894   5.779   0.461   9.292  0.0114 -0.0799  0.1017
 3900TIP3    H135895   5.756   0.405   9.218  0.6852 -0.1169 -0.0826
 3900TIP3    H235896   5.728   0.541   9.277  0.9223  0.3376 -0.9914
 3901TIP3   OH235897   3.933   6.297   6.552  0.5825 -0.1253 -0.7729
 3901TIP3    H135898   3.866   6.236   6.521  0.7648  0.3459 -2.1223
 3901TIP3    H235899   3.885   6.361   6.604  0.3472 -1.2064  0.4227
 3902TIP3   OH235900   5.322   2.337   8.901 -0.7921 -0.1116  0.0197
 3902TIP3    H135901   5.337   2.291   8.984 -1.2095  0.2621  0.3090
 3902TIP3    H235902   5.358   2.425   8.916 -2.3906  0.5117  0.4213
 3903TIP3   OH235903   4.507   3.361   7.961  0.3690  0.5818  0.6029
 3903TIP3    H135904   4.479   3.290   8.018  1.3957  0.7350  1.3295
 3903TIP3    H235905   4.595   3.336   7.932 -0.6135 -0.1751 -2.0961
 3904TIP3   OH235906   6.070   3.970   8.230  0.3506 -0.1230 -0.0407
 3904TIP3    H135907   6.145   3.950   8.174 -1.7996 -1.4952 -2.6494
 3904TIP3    H235908   6.028   3.885   8.244 -1.1100  0.6955  0.7749
 3905TIP3   OH235909   0.807   3.871   6.518 -0.0192  0.1262 -0.2150
 3905TIP3    H135910   0.787   3.782   6.489  1.3294 -0.0211 -0.7960
 3905TIP3    H235911   0.884   3.862   6.574  0.6292  0.9926 -0.9258
 3906TIP3   OH235912   2.028   4.508   7.258 -0.1143 -0.3168  0.1105
 3906TIP3    H135913   1.955   4.569   7.246 -0.1592 -0.7297 -2.0902
 3906TIP3    H235914   2.085   4.523   7.182  0.3317 -2.3639 -0.0030
 3907TIP3   OH235915   0.038   3.111   9.058 -0.0483  0.1513 -0.6490
 3907TIP3    H135916  -0.031   3.075   9.003 -0.2187  1.1007 -1.0753
 3907TIP3    H235917   0.110   3.131   8.998  0.7019 -1.0268 -0.1797
 3908TIP3   OH235918   3.793   4.353   7.901 -0.3492  0.4546 -0.0555
 3908TIP3    H135919   3.797   4.419   7.831  0.5237 -0.1371 -0.5884
 3908TIP3    H235920   3.753   4.276   7.859 -0.2118  0.2332  0.2145
 3909TIP3   OH235921   4.893   0.108   7.750  0.1140 -0.2705 -0.0421
 3909TIP3    H135922   4.982   0.106   7.785 -0.5517  0.0113  1.7832
 3909TIP3    H235923   4.849   0.036   7.795 -0.9304  0.4546  0.1163
 3910TIP3   OH235924   0.363   5.048   7.988  0.0915  0.5249  0.2006
 3910TIP3    H135925   0.315   5.091   8.058  0.8111 -0.4056  1.3024
 3910TIP3    H235926   0.328   4.959   7.985 -0.0469  0.5988 -0.7468
 3911TIP3   OH235927   6.846   5.565   8.070  0.1684 -0.6922  0.2211
 3911TIP3    H135928   6.925   5.564   8.015  0.4655  2.6083  0.3570
 3911TIP3    H235929   6.880   5.561   8.159 -0.0055 -1.4234  0.2618
 3912TIP3   OH235930   5.644   7.125   7.955  0.0218 -0.3948 -0.0830
 3912TIP3    H135931   5.552   7.099   7.948  0.2091 -1.3392  0.7335
 3912TIP3    H235932   5.676   7.079   8.033  1.2710 -0.3227 -0.5329
 3913TIP3   OH235933   1.144   5.891   7.777 -0.3398  0.0484 -0.5149
 3913TIP3    H135934   1.149   5.957   7.708  1.3825  0.5629  0.0495
 3913TIP3    H235935   1.053   5.893   7.807 -0.2771  2.3872 -0.3076
 3914TIP3   OH235936   3.328   5.915   9.487  0.2654 -0.1466  0.0513
 3914TIP3    H135937   3.256   5.975   9.507  0.7220 -0.1729  1.9128
 3914TIP3    H235938   3.289   5.828   9.494  0.2273 -0.1350 -0.0148
 3915TIP3   OH235939   3.844   7.399   8.344 -0.6293  0.3823  0.0977
 3915TIP3    H135940   3.771   7.461   8.351 -0.5098  0.4844  0.4480
 3915TIP3    H235941   3.897   7.433   8.271 -1.5902 -0.3908 -1.0057
 3916TIP3   OH235942   2.568   3.251   8.124  0.5230  0.0163  0.2893
 3916TIP3    H135943   2.569   3.238   8.219  1.6279 -0.8188  0.1992
 3916TIP3    H235944   2.598   3.166   8.089  1.6109  0.7769 -0.7141
 3917TIP3   OH235945   7.596   6.665   7.289  0.2963  0.1076  0.0603
 3917TIP3    H135946   7.658   6.737   7.299 -0.2993  0.5196  0.9230
 3917TIP3    H235947   7.516   6.706   7.257 -0.2273 -0.0591  1.1005
 3918TIP3   OH235948   7.015   3.814   9.105  0.1635 -0.3084  0.1724
 3918TIP3    H135949   6.984   3.771   9.185 -0.1427  0.9762  0.7711
 3918TIP3    H235950   7.078   3.752   9.068  1.0837 -0.5147  1.9522
 3919TIP3   OH235951   1.997   4.727   8.697 -0.5069  0.0479 -0.3194
 3919TIP3    H135952   1.962   4.789   8.761 -1.2532 -0.0970 -0.5731
 3919TIP3    H235953   2.028   4.653   8.750 -2.8824 -0.9428 -0.1750
 3920TIP3   OH235954   0.035   7.003   9.579  0.4186  1.1602  0.3420
 3920TIP3    H135955   0.053   7.007   9.673  1.4409 -1.3866  0.3344
 3920TIP3    H235956   0.111   7.043   9.538  0.6979  0.8925  0.5875
 3921TIP3   OH235957   6.486   3.787   8.689 -0.0112 -0.6165 -0.1953
 3921TIP3    H135958   6.432   3.790   8.610 -0.0165 -0.2265 -0.1788
 3921TIP3    H235959   6.520   3.876   8.699  2.0178 -1.2274 -1.1555
 3922TIP3   OH235960   5.827   3.688   7.899 -0.3161 -0.2606 -0.3055
 3922TIP3    H135961   5.745   3.734   7.886 -1.3402 -1.9639 -0.1096
 3922TIP3    H235962   5.807   3.619   7.962  1.2614 -0.7203 -0.2490
 3923TIP3   OH235963   7.389   1.424   7.929  0.3445 -0.3550 -0.1069
 3923TIP3    H135964   7.364   1.356   7.992 -1.6417 -0.1136 -0.5491
 3923TIP3    H235965   7.484   1.425   7.931  0.3882 -2.0411  1.0872
 3924TIP3   OH235966   3.314   0.350   8.455  0.5605 -0.3090 -0.0578
 3924TIP3    H135967   3.383   0.387   8.400 -0.0806  1.4345  0.2286
 3924TIP3    H235968   3.261   0.426   8.481 -0.6312 -1.4123  0.8877
 3925TIP3   OH235969   4.879   1.095   7.907  0.1242 -0.5029  0.5104
 3925TIP3    H135970   4.826   1.030   7.862  0.8303  0.0360 -1.1900
 3925TIP3    H235971   4.816   1.150   7.954 -0.6060 -1.3462  0.5382
 3926TIP3   OH235972   6.988   1.937   9.389 -0.7732 -0.4470  0.0506
 3926TIP3    H135973   6.944   1.852   9.386 -0.9822 -0.4588  1.9341
 3926TIP3    H235974   7.064   1.923   9.446  0.0268  0.2900 -0.7982
 3927TIP3   OH235975   0.252   6.085   9.162 -0.0413 -0.2588 -0.7386
 3927TIP3    H135976   0.171   6.034   9.152 -0.7916  0.3401  1.6685
 3927TIP3    H235977   0.233   6.147   9.231  2.8662 -0.9030  0.8053
 3928TIP3   OH235978   0.335   1.596   8.190 -0.2615  0.7115 -0.0267
 3928TIP3    H135979   0.274   1.615   8.261 -1.0899  1.3388 -0.8708
 3928TIP3    H235980   0.278   1.572   8.116  0.6132 -1.1556 -0.1553
 3929TIP3   OH235981   0.001   6.718   8.990 -0.4406  0.1271  0.2346
 3929TIP3    H135982  -0.007   6.685   8.901 -0.0293  2.9067 -0.9166
 3929TIP3    H235983   0.087   6.759   8.994 -0.3567 -0.1229  1.9996
 3930TIP3   OH235984   0.476   2.423   8.393  0.3460 -0.1463  0.3588
 3930TIP3    H135985   0.457   2.330   8.391  2.7848 -0.7967  2.3456
 3930TIP3    H235986   0.507   2.443   8.304 -0.7178 -1.0503 -0.2449
 3931TIP3   OH235987   6.763   3.561   9.104 -0.2564  0.1944  0.1645
 3931TIP3    H135988   6.685   3.616   9.114 -0.3104  0.2045 -0.3133
 3931TIP3    H235989   6.730   3.477   9.074 -0.2255 -0.2813  1.3961
 3932TIP3   OH235990   3.932   2.775   8.058  0.5699 -0.1500 -0.0134
 3932TIP3    H135991   3.921   2.702   8.120  1.2722  0.7055  1.1673
 3932TIP3    H235992   3.989   2.836   8.104  1.0689  0.5496 -1.5132
 3933TIP3   OH235993   5.327   0.656   8.334  0.0394  0.0030 -0.3577
 3933TIP3    H135994   5.238   0.621   8.333  0.3438 -0.7806 -0.4891
 3933TIP3    H235995   5.367   0.624   8.253  0.0854  1.3093 -0.8747
 3934TIP3   OH235996   4.687   3.710   8.613  0.3509  1.2334  0.7482
 3934TIP3    H135997   4.744   3.761   8.555 -0.5398  0.0372 -1.2811
 3934TIP3    H235998   4.617   3.771   8.636  1.0080  1.8937  1.0602
 3935TIP3   OH235999   3.403   0.160   8.054 -0.1617 -0.0871 -0.0902
 3935TIP3    H136000   3.313   0.166   8.021 -0.1154  0.4573 -0.1201
 3935TIP3    H236001   3.458   0.181   7.979 -0.0184 -0.1143  0.0061
 3936TIP3   OH236002   7.553   3.794   8.528 -0.6468  0.1053 -0.2954
 3936TIP3    H136003   7.517   3.857   8.590 -1.7367  0.6456 -1.4446
 3936TIP3    H236004   7.565   3.843   8.447  1.8265 -0.2836 -0.2748
 3937TIP3   OH236005   0.552   5.265   6.914  0.2848  0.3416  0.1435
 3937TIP3    H136006   0.495   5.188   6.901  0.4343  0.5555 -2.1752
 3937TIP3    H236007   0.618   5.235   6.977  0.2170 -1.3896 -0.5446
 3938TIP3   OH236008   4.093   0.370   7.764 -0.1856 -0.0286  0.4708
 3938TIP3    H136009   4.090   0.408   7.852  0.5048  0.2299  0.3840
 3938TIP3    H236010   4.020   0.308   7.763 -0.7069  0.5623  0.9488
 3939TIP3   OH236011   1.845   2.510   6.426 -0.1160  0.1474  0.1330
 3939TIP3    H136012   1.938   2.515   6.402 -0.3607  1.6299 -0.6420
 3939TIP3    H236013   1.824   2.598   6.459 -1.0990 -0.3513  0.9024
 3940TIP3   OH236014   0.482   6.184   8.709  0.5387  0.0188 -0.3348
 3940TIP3    H136015   0.472   6.093   8.683 -4.2925  0.1315  0.3528
 3940TIP3    H236016   0.461   6.186   8.803 -0.3379  1.8946 -0.5114
 3941TIP3   OH236017   1.705   0.044   8.989 -0.5426  0.2323  0.4797
 3941TIP3    H136018   1.676   0.069   9.077  0.7804 -0.8071  1.2537
 3941TIP3    H236019   1.769   0.112   8.965 -1.5807  1.0313 -0.0956
 3942TIP3   OH236020   6.827   6.639   7.142 -0.0325 -0.2041 -0.5661
 3942TIP3    H136021   6.848   6.702   7.074 -0.5989 -1.0352 -1.5444
 3942TIP3    H236022   6.765   6.684   7.200 -0.1382  0.2509 -1.0324
 3943TIP3   OH236023   1.075   6.868   8.320  0.6996 -0.1324  0.1535
 3943TIP3    H136024   1.063   6.953   8.363 -0.9102  1.6553 -3.4060
 3943TIP3    H236025   0.997   6.818   8.343  0.0628  0.6387 -0.2916
 3944TIP3   OH236026   6.059   4.978   8.617 -0.1970 -0.1358  0.0722
 3944TIP3    H136027   6.006   4.958   8.694 -1.8063  3.1497 -0.0075
 3944TIP3    H236028   6.149   4.959   8.644 -0.3163  3.2825  3.8376
 3945TIP3   OH236029   1.544   6.900   6.958 -0.3841  0.0772 -0.4446
 3945TIP3    H136030   1.625   6.875   7.001 -1.0848 -0.7220  0.4661
 3945TIP3    H236031   1.571   6.955   6.885  0.9449  0.0888  0.0351
 3946TIP3   OH236032   1.333   7.030   9.263 -0.1430 -0.5682  0.2832
 3946TIP3    H136033   1.396   6.960   9.245 -0.8598 -0.8998 -1.1472
 3946TIP3    H236034   1.359   7.101   9.204 -0.4777 -0.3188  0.4355
 3947TIP3   OH236035   6.552   4.831   8.301 -0.0733 -0.1687  0.1015
 3947TIP3    H136036   6.537   4.857   8.210 -1.3693  1.3699  0.6912
 3947TIP3    H236037   6.642   4.858   8.319 -0.5450  1.6560 -0.0879
 3948TIP3   OH236038   7.187   2.355   7.881  0.1409 -0.1283  0.3084
 3948TIP3    H136039   7.277   2.329   7.863  0.1923  0.2931 -0.0677
 3948TIP3    H236040   7.135   2.308   7.816  0.3248  1.3797 -0.9942
 3949TIP3   OH236041   7.026   3.169   8.455  0.0716 -0.3114 -0.1232
 3949TIP3    H136042   6.949   3.147   8.402 -0.2720  0.4459  0.0455
 3949TIP3    H236043   7.062   3.085   8.482 -1.2203 -0.6734  0.5393
 3950TIP3   OH236044   6.937   6.546   9.375  0.2114 -0.4558 -0.3989
 3950TIP3    H136045   7.016   6.590   9.408  0.6143 -1.6441  0.2581
 3950TIP3    H236046   6.865   6.603   9.403  0.6949 -0.3756  0.7426
 3951TIP3   OH236047   2.089   7.355   8.658  0.7041 -0.5356  0.1591
 3951TIP3    H136048   2.092   7.401   8.574 -0.8947 -2.3797 -1.0017
 3951TIP3    H236049   2.175   7.314   8.665  0.5823 -1.0601 -1.0466
 3952TIP3   OH236050   5.140   5.241   9.014 -0.2127 -0.2682  0.0398
 3952TIP3    H136051   5.159   5.188   9.090 -3.1823 -0.2883  0.9067
 3952TIP3    H236052   5.155   5.183   8.939 -0.6896 -1.4181  0.8125
 3953TIP3   OH236053   0.467   5.462   6.740  0.3060  0.3619  0.7172
 3953TIP3    H136054   0.422   5.406   6.676  1.3316 -0.7477  0.9210
 3953TIP3    H236055   0.517   5.401   6.794  1.6667  1.4859  0.7987
 3954TIP3   OH236056   1.742   6.362   7.586 -0.0346 -0.0400  0.2470
 3954TIP3    H136057   1.812   6.324   7.639  0.4229  0.3766 -0.0448
 3954TIP3    H236058   1.690   6.414   7.648 -0.7027 -1.1655  0.6573
 3955TIP3   OH236059   7.672   5.420   6.891 -0.2710 -0.0555 -0.0106
 3955TIP3    H136060   7.623   5.480   6.948  0.1953 -0.3386  0.7011
 3955TIP3    H236061   7.763   5.448   6.899 -0.0181 -0.9832  0.5097
 3956TIP3   OH236062   0.945   0.408   9.424 -0.1804  0.5511  0.0263
 3956TIP3    H136063   1.037   0.421   9.447 -0.4174  3.1778 -0.2414
 3956TIP3    H236064   0.924   0.482   9.367 -1.5889 -1.8255 -2.7763
 3957TIP3   OH236065   1.709   0.297   8.844  0.0291 -0.2225  0.5096
 3957TIP3    H136066   1.756   0.381   8.843 -0.1564 -0.0266  2.8271
 3957TIP3    H236067   1.744   0.250   8.769  1.5515  1.1910  0.2588
 3958TIP3   OH236068   7.661   6.088   8.822  0.2655 -0.1673 -0.5834
 3958TIP3    H136069   7.684   6.164   8.875 -1.5332  0.2807 -0.3842
 3958TIP3    H236070   7.580   6.055   8.861  1.2927 -2.5641 -0.2897
 3959TIP3   OH236071   5.662   1.196   9.024 -0.0215  0.5294  0.4591
 3959TIP3    H136072   5.621   1.282   9.027  1.0043  1.1049 -1.0856
 3959TIP3    H236073   5.755   1.214   9.013  0.7237 -0.7424  3.6086
 3960TIP3   OH236074   2.325   0.354   7.636 -0.2707  0.1478  0.1996
 3960TIP3    H136075   2.250   0.343   7.577 -0.0379 -0.0896 -0.0561
 3960TIP3    H236076   2.286   0.382   7.718 -0.4808  1.9111 -0.4617
 3961TIP3   OH236077   7.314   5.181   8.097  0.3600  0.0501  0.3942
 3961TIP3    H136078   7.229   5.161   8.059 -0.4372  0.1667  2.0397
 3961TIP3    H236079   7.367   5.211   8.023 -0.3676 -1.9697 -1.0241
 3962TIP3   OH236080   3.111   4.400   6.799  0.0501 -0.6048  0.1489
 3962TIP3    H136081   3.162   4.339   6.745  1.7511  0.4718  0.4382
 3962TIP3    H236082   3.152   4.395   6.885 -0.4372  0.1757  0.4364
 3963TIP3   OH236083   3.771   3.154   9.122 -0.5434 -0.4716 -0.1313
 3963TIP3    H136084   3.808   3.099   9.053  0.2034 -2.3870  1.6777
 3963TIP3    H236085   3.714   3.095   9.172 -1.3121  0.9268  0.7062
 3964TIP3   OH236086   6.026   5.452   9.158  0.7183  0.4595 -0.3077
 3964TIP3    H136087   6.033   5.519   9.089 -1.3397 -0.3938 -1.4518
 3964TIP3    H236088   5.964   5.488   9.220  1.0630  0.3975  0.0749
 3965TIP3   OH236089   0.693   5.966   7.316  0.3238 -0.5403 -0.4876
 3965TIP3    H136090   0.755   5.916   7.262  0.4761 -1.5958  0.6065
 3965TIP3    H236091   0.608   5.929   7.295  0.4508 -1.4008  0.4208
 3966TIP3   OH236092   5.180   5.423   6.904  0.6126 -0.0419  0.0027
 3966TIP3    H136093   5.176   5.405   6.998 -1.2789 -0.3769 -0.0994
 3966TIP3    H236094   5.218   5.344   6.865 -0.3146 -0.6704  0.3319
 3967TIP3   OH236095   0.986   5.289   8.257 -0.3333  0.0085  0.2510
 3967TIP3    H136096   0.920   5.273   8.325 -0.4219 -3.9064 -0.5341
 3967TIP3    H236097   0.949   5.248   8.179  2.6168 -1.5890 -0.4300
 3968TIP3   OH236098   6.587   1.440   7.202 -0.1053  0.2793 -0.1541
 3968TIP3    H136099   6.637   1.360   7.190  0.3569  0.8199 -2.2857
 3968TIP3    H236100   6.511   1.431   7.143  0.4601  1.7520 -1.1797
 3969TIP3   OH236101   6.312   7.383   8.110  0.2267  0.2329  0.7428
 3969TIP3    H136102   6.226   7.425   8.112 -0.1349 -0.4775  0.3318
 3969TIP3    H236103   6.374   7.456   8.100 -0.5788  0.5618 -3.8584
 3970TIP3   OH236104   2.393   5.258   8.713  0.2178  0.6876 -0.1398
 3970TIP3    H136105   2.449   5.263   8.635 -0.6741  0.2987 -0.8253
 3970TIP3    H236106   2.411   5.172   8.750 -0.6767  0.1269 -0.9606
 3971TIP3   OH236107   2.949   6.988   7.970 -0.1919  0.2587  0.1395
 3971TIP3    H136108   3.019   6.946   7.919  1.5349  0.3267  2.2791
 3971TIP3    H236109   2.937   7.074   7.930 -0.8866 -0.6912 -1.7988
 3972TIP3   OH236110   7.283   3.879   8.382  0.0757  0.3687 -0.0072
 3972TIP3    H136111   7.298   3.815   8.452  0.1088  0.9984  0.5730
 3972TIP3    H236112   7.330   3.843   8.307 -1.1052 -1.0134 -0.1215
 3973TIP3   OH236113   7.112   7.270   9.293  0.0428  0.2192  0.2310
 3973TIP3    H136114   7.044   7.332   9.270  1.0793  0.9942 -0.8887
 3973TIP3    H236115   7.164   7.315   9.360  0.6668  0.4965 -0.4248
 3974TIP3   OH236116   3.194   1.309   7.158 -0.2788 -0.6018 -0.1695
 3974TIP3    H136117   3.127   1.242   7.173  0.2249 -0.7890  1.4218
 3974TIP3    H236118   3.240   1.280   7.079 -0.8022 -1.5328 -0.1453
 3975TIP3   OH236119   0.195   4.136   9.375  0.1961 -0.5449  0.0866
 3975TIP3    H136120   0.147   4.112   9.454 -1.3980 -1.0431 -0.9850
 3975TIP3    H236121   0.268   4.189   9.406 -0.2668 -0.9144  1.9016
 3976TIP3   OH236122   0.444   2.002   6.706 -0.5044  0.0035 -0.2673
 3976TIP3    H136123   0.413   1.959   6.627 -1.5628 -0.7521  0.5211
 3976TIP3    H236124   0.539   1.992   6.704 -0.4099  0.9907 -1.9822
 3977TIP3   OH236125   6.819   2.454   7.702 -0.3313 -0.6374  0.3837
 3977TIP3    H136126   6.836   2.361   7.721 -0.6278 -0.7052  0.3126
 3977TIP3    H236127   6.811   2.458   7.607  1.3969 -0.2590  0.2248
 3978TIP3   OH236128   5.706   2.270   8.041 -0.0058  0.6377  0.3904
 3978TIP3    H136129   5.661   2.198   8.086 -1.8428  0.9781 -0.8099
 3978TIP3    H236130   5.787   2.282   8.090  0.3309 -2.2011  0.6636
 3979TIP3   OH236131   1.874   5.538   7.470 -0.2494 -0.4524 -0.2988
 3979TIP3    H136132   1.808   5.520   7.537  0.1801 -1.0457 -0.0203
 3979TIP3    H236133   1.829   5.523   7.387 -0.2299 -1.7269 -0.0964
 3980TIP3   OH236134   0.650   6.994   6.950  0.4545  0.5325  0.3761
 3980TIP3    H136135   0.700   6.995   7.031 -0.6523 -1.9363  1.1886
 3980TIP3    H236136   0.703   6.943   6.889  0.0668  0.0598  0.4314
 3981TIP3   OH236137   7.568   3.552   7.678 -0.1098 -0.6968  0.9834
 3981TIP3    H136138   7.533   3.494   7.610  0.7630  0.3989 -0.4559
 3981TIP3    H236139   7.557   3.640   7.642 -0.4521 -0.0088  2.6818
 3982TIP3   OH236140   1.412   2.711   7.682  0.4819 -0.1831 -0.0610
 3982TIP3    H136141   1.375   2.705   7.595  0.4073  2.7841 -0.3491
 3982TIP3    H236142   1.494   2.760   7.670  1.7312 -1.7792  1.2821
 3983TIP3   OH236143   4.392   3.875   7.268  0.1577  0.4356 -0.0421
 3983TIP3    H136144   4.334   3.800   7.255 -1.9297  1.8965  0.3651
 3983TIP3    H236145   4.403   3.912   7.181 -2.4042  2.1054  0.2317
 3984TIP3   OH236146   0.690   5.426   8.373 -0.0226 -0.2828  0.5915
 3984TIP3    H136147   0.646   5.447   8.291 -1.0826 -0.5082  1.0870
 3984TIP3    H236148   0.746   5.502   8.391 -0.5933  0.2316  0.2131
 3985TIP3   OH236149   0.997   7.578   8.043  0.2299 -0.1627  0.2514
 3985TIP3    H136150   1.071   7.638   8.053  0.3167 -0.2936  0.3893
 3985TIP3    H236151   0.925   7.634   8.012 -0.7524  0.7654  3.7771
 3986TIP3   OH236152   5.373   4.202   6.924  0.3877 -0.3370 -0.1462
 3986TIP3    H136153   5.439   4.142   6.890  0.4785 -0.1762 -0.2540
 3986TIP3    H236154   5.301   4.196   6.861  0.5781  0.0012 -0.3985
 3987TIP3   OH236155   7.112   3.371   7.387  0.1383 -0.1198 -0.3660
 3987TIP3    H136156   7.175   3.423   7.338 -1.0855  1.0637 -0.7646
 3987TIP3    H236157   7.051   3.339   7.320 -1.3327  1.2025  0.2930
 3988TIP3   OH236158   0.105   2.598   7.192  0.1503  0.5490  0.0423
 3988TIP3    H136159   0.028   2.598   7.135  0.3349 -1.4564 -0.2664
 3988TIP3    H236160   0.072   2.569   7.277  0.8816 -3.1691 -0.7520
 3989TIP3   OH236161   6.947   7.532   8.181  0.0600 -0.1101 -0.6301
 3989TIP3    H136162   7.038   7.544   8.157  0.0572 -0.8559 -1.0379
 3989TIP3    H236163   6.934   7.437   8.181 -0.4999 -0.0463  0.2218
 3990TIP3   OH236164   0.318   4.357   8.163  0.1496 -0.3081  0.0044
 3990TIP3    H136165   0.285   4.393   8.081 -2.3712 -0.1663  0.9772
 3990TIP3    H236166   0.239   4.337   8.213  1.5978 -0.9195  2.1731
 3991TIP3   OH236167   4.346   7.386   9.072  0.2907  0.0313  0.5324
 3991TIP3    H136168   4.434   7.348   9.071 -0.0935 -0.9579  1.5346
 3991TIP3    H236169   4.334   7.422   8.984  1.2024 -0.9802 -0.0314
 3992TIP3   OH236170   0.918   1.494   8.685  0.2857  0.2603 -0.2933
 3992TIP3    H136171   0.957   1.581   8.697  0.3041  0.0883  1.0342
 3992TIP3    H236172   0.992   1.437   8.667  0.5591  0.1329  1.1198
 3993TIP3   OH236173   1.637   3.067   8.059  0.0926  0.0007  0.0796
 3993TIP3    H136174   1.574   3.067   7.986  0.1777 -0.1460  0.0045
 3993TIP3    H236175   1.585   3.039   8.135  0.0904 -0.2315 -0.0051
 3994TIP3   OH236176   1.357   6.476   9.144 -0.2124  1.0397  0.0320
 3994TIP3    H136177   1.288   6.517   9.091 -0.2365  2.8192  1.3342
 3994TIP3    H236178   1.367   6.388   9.107 -1.0941  1.7600 -2.0847
 3995TIP3   OH236179   6.137   3.871   8.887  0.5185  0.3149  0.1630
 3995TIP3    H136180   6.188   3.852   8.965 -0.1718 -0.5016  0.4271
 3995TIP3    H236181   6.055   3.823   8.899  0.4306  0.1055 -1.0942
 3996TIP3   OH236182   2.612   7.202   7.499 -0.3563  0.3782  0.7452
 3996TIP3    H136183   2.574   7.183   7.413  0.8878  2.0169 -0.2134
 3996TIP3    H236184   2.536   7.212   7.556 -1.2355 -0.0365 -0.3069
 3997TIP3   OH236185   1.894   6.020   7.932 -0.0196  0.1504  0.1413
 3997TIP3    H136186   1.964   6.042   7.994 -0.7995 -1.1920  1.5711
 3997TIP3    H236187   1.842   6.101   7.927  0.5431  0.5535  0.5702
 3998TIP3   OH236188   7.644   0.875   8.532  0.1352  0.3145  0.3430
 3998TIP3    H136189   7.570   0.859   8.474  0.9191  1.0816 -0.9056
 3998TIP3    H236190   7.606   0.874   8.620 -0.9113 -1.8160 -0.0717
 3999TIP3   OH236191   2.165   3.111   7.181  0.4406  0.2307  0.1603
 3999TIP3    H136192   2.151   3.200   7.151 -0.3306  0.0813  0.0492
 3999TIP3    H236193   2.181   3.060   7.102  1.4684  0.3669  0.2729
 4000TIP3   OH236194   6.401   6.439   8.272 -0.2426  0.7159 -0.3319
 4000TIP3    H136195   6.416   6.499   8.345 -0.2778 -2.2397  2.2953
 4000TIP3    H236196   6.488   6.402   8.253 -0.7007 -0.7694  0.3556
 4001TIP3   OH236197   4.021   0.107   7.935 -0.0394  0.9130  0.7869
 4001TIP3    H136198   4.092   0.120   7.998 -0.5086  2.3536  1.0528
 4001TIP3    H236199   3.945   0.085   7.989  0.5908 -2.7691  0.3902
 4002TIP3   OH236200   7.327   6.946   6.628  0.6850 -0.4094  0.0971
 4002TIP3    H136201   7.419   6.924   6.609  0.6105 -1.9661  1.3256
 4002TIP3    H236202   7.330   7.038   6.653  1.5474  0.2159 -2.0386
 4003TIP3   OH236203   2.066   3.774   7.991 -0.9224 -0.0646  0.0753
 4003TIP3    H136204   2.142   3.823   8.021  0.5241 -2.4590  0.6132
 4003TIP3    H236205   2.085   3.754   7.899 -1.3366  0.1150 -0.0515
 4004TIP3   OH236206   0.362   6.504   9.336 -0.7867 -0.2197 -0.4884
 4004TIP3    H136207   0.325   6.591   9.321 -1.2156 -0.4252 -0.6389
 4004TIP3    H236208   0.451   6.521   9.367 -1.0362  0.2806 -0.0318
 4005TIP3   OH236209   1.270   0.451   9.126 -0.1634 -0.1005 -0.1497
 4005TIP3    H136210   1.352   0.456   9.077  0.2865 -0.0968  0.5918
 4005TIP3    H236211   1.235   0.364   9.107  1.5972 -1.3969  1.9729
 4006TIP3   OH236212   3.609   2.029   7.845 -0.1738 -0.5331  0.1272
 4006TIP3    H136213   3.580   2.118   7.824  1.4383  0.2360  0.9646
 4006TIP3    H236214   3.660   2.002   7.769  1.7960  0.4562  1.0175
 4007TIP3   OH236215   7.233   0.357   7.500  0.6169  0.1201 -0.5011
 4007TIP3    H136216   7.263   0.444   7.473  1.2831  0.0050 -0.1422
 4007TIP3    H236217   7.313   0.308   7.519  0.2346  0.4307  2.4262
 4008TIP3   OH236218   1.125   4.644   6.843  0.1491  0.7002  0.0541
 4008TIP3    H136219   1.086   4.559   6.822  3.3465 -0.7808 -0.6163
 4008TIP3    H236220   1.082   4.671   6.924 -2.1453 -0.7075 -0.6105
 4009TIP3   OH236221   6.890   6.977   7.956  0.3064 -0.2392  0.0232
 4009TIP3    H136222   6.889   7.038   7.882  1.7295  0.9728  0.9593
 4009TIP3    H236223   6.826   7.013   8.017 -0.3470 -0.8453 -0.2916
 4010TIP3   OH236224   4.604   5.381   7.503  0.1825 -0.4981 -0.0284
 4010TIP3    H136225   4.627   5.465   7.543 -2.7299  0.6250 -0.4628
 4010TIP3    H236226   4.675   5.364   7.441  0.7236  1.8109 -0.1530
 4011TIP3   OH236227   0.371   5.609   9.232 -0.0412 -0.6501  0.0069
 4011TIP3    H136228   0.279   5.582   9.229  0.3881 -2.2752  0.3113
 4011TIP3    H236229   0.369   5.702   9.212 -1.6271 -0.9473 -1.5233
 4012TIP3   OH236230   4.158   6.256   8.685  0.0753  0.3496 -0.5933
 4012TIP3    H136231   4.250   6.229   8.675 -0.0376 -0.0174 -0.6832
 4012TIP3    H236232   4.162   6.338   8.733  0.2611 -1.8260  3.5569
 4013TIP3   OH236233   1.707   4.958   8.223  1.3873  0.3258  0.0142
 4013TIP3    H136234   1.711   5.035   8.279 -0.2955  0.4865 -0.0184
 4013TIP3    H236235   1.797   4.945   8.192  1.2397  4.3677 -2.8374
 4014TIP3   OH236236   1.738   1.280   9.234  0.0830  0.0606  0.2509
 4014TIP3    H136237   1.720   1.372   9.253 -0.5046  0.0741 -0.3428
 4014TIP3    H236238   1.833   1.274   9.234  0.1266  0.6409  0.4009
 4015TIP3   OH236239   2.241   1.667   7.309 -0.1513  0.3705  0.0699
 4015TIP3    H136240   2.217   1.585   7.352  0.5077  0.4139  0.5540
 4015TIP3    H236241   2.299   1.710   7.372  0.2623  0.7737 -0.5728
 4016TIP3   OH236242   6.975   0.412   8.436 -0.0720  0.3359  0.7362
 4016TIP3    H136243   6.921   0.480   8.396 -0.9134 -1.7020 -1.8315
 4016TIP3    H236244   6.920   0.334   8.436  1.7913 -1.0523  0.9966
 4017TIP3   OH236245   7.553   0.248   7.482  0.0101 -0.0566 -0.2464
 4017TIP3    H136246   7.516   0.285   7.401  0.4656  0.9269 -0.0219
 4017TIP3    H236247   7.599   0.170   7.453 -0.5676 -0.2039 -0.8127
 4018TIP3   OH236248   2.654   5.815   8.298 -0.7527 -0.0726  0.3794
 4018TIP3    H136249   2.584   5.881   8.305 -1.5636 -0.7646 -0.7455
 4018TIP3    H236250   2.658   5.775   8.385  1.2874  2.8841  1.7935
 4019TIP3   OH236251   6.245   0.275   9.347  0.4307  0.0976  0.2334
 4019TIP3    H136252   6.294   0.319   9.277 -0.8317 -1.1041 -1.4565
 4019TIP3    H236253   6.198   0.346   9.391  1.2570  0.8655 -0.0757
 4020TIP3   OH236254   4.684   6.175   8.764  0.3083 -0.3270 -0.1547
 4020TIP3    H136255   4.592   6.192   8.741  0.1780 -0.6295  0.1250
 4020TIP3    H236256   4.682   6.089   8.808  0.3153  0.8081  2.2449
 4021TIP3   OH236257   0.868   3.457   7.842 -0.1542 -0.0240 -0.3668
 4021TIP3    H136258   0.874   3.374   7.795  0.6383 -0.1746 -0.0004
 4021TIP3    H236259   0.813   3.512   7.786 -0.0193 -0.5252 -0.9980
 4022TIP3   OH236260   6.022   3.042   9.255 -0.4383 -0.2064 -0.6986
 4022TIP3    H136261   6.041   2.990   9.333  0.4621  0.8864 -0.1629
 4022TIP3    H236262   5.939   3.006   9.222 -0.7334 -0.8123  0.6368
 4023TIP3   OH236263   4.269   5.097   9.273  0.1872  0.4795 -0.0098
 4023TIP3    H136264   4.223   5.161   9.327 -0.2442  2.6222 -2.6575
 4023TIP3    H236265   4.200   5.053   9.223  0.7320  2.1615 -2.4093
 4024TIP3   OH236266   4.031   1.704   8.076  0.2475  0.0321 -0.2909
 4024TIP3    H136267   4.122   1.676   8.081  0.5991  1.3223  1.4790
 4024TIP3    H236268   3.983   1.624   8.056  1.6150 -1.0195  0.4454
 4025TIP3   OH236269   0.691   0.351   8.887  0.0999 -0.1929  0.2642
 4025TIP3    H136270   0.719   0.442   8.880 -0.2844 -0.0640  0.3540
 4025TIP3    H236271   0.623   0.342   8.820  1.5546 -0.9794 -1.1917
 4026TIP3   OH236272   0.032   2.231   8.979 -0.3754 -0.0697  0.1991
 4026TIP3    H136273   0.001   2.227   9.070  3.3991  0.5539  1.6840
 4026TIP3    H236274  -0.002   2.315   8.946  0.4299  1.0271  2.0158
 4027TIP3   OH236275   6.588   2.968   8.244  0.5354  0.2565 -0.3368
 4027TIP3    H136276   6.507   2.987   8.291  0.9365  0.8077  0.1393
 4027TIP3    H236277   6.577   3.013   8.160  1.0508  1.7825  0.3891
 4028TIP3   OH236278   3.825   1.103   8.881 -0.0123  0.0171 -0.0113
 4028TIP3    H136279   3.733   1.087   8.902  0.3200  0.1071  1.6460
 4028TIP3    H236280   3.831   1.089   8.787 -1.7257  0.0431 -0.1535
 4029TIP3   OH236281   0.330   0.893   7.779 -0.0024  0.1920  0.0420
 4029TIP3    H136282   0.256   0.873   7.836 -0.0590  1.1643  0.3287
 4029TIP3    H236283   0.298   0.877   7.690 -0.2387 -0.3279  0.2156
 4030TIP3   OH236284   2.094   0.030   9.119 -0.8123 -0.3033 -0.0851
 4030TIP3    H136285   2.187   0.039   9.098 -0.8873 -1.2731 -0.9426
 4030TIP3    H236286   2.049   0.041   9.035 -1.1895 -3.3790 -0.4052
 4031TIP3   OH236287   7.549   6.133   7.837  0.2201 -0.0288  0.3890
 4031TIP3    H136288   7.560   6.191   7.761  0.1081 -1.2460 -0.5821
 4031TIP3    H236289   7.456   6.111   7.837  0.3800 -0.7292  0.3433
 4032TIP3   OH236290   5.964   0.931   9.392 -0.0998  0.3287  0.2331
 4032TIP3    H136291   6.048   0.911   9.350 -1.1576 -2.3613 -0.8270
 4032TIP3    H236292   5.906   0.953   9.319 -1.0409 -0.7560  0.6361
 4033TIP3   OH236293   3.873   0.727   6.814  0.1259 -0.6122  0.4997
 4033TIP3    H136294   3.832   0.800   6.768 -0.6461 -1.8132 -0.8190
 4033TIP3    H236295   3.958   0.716   6.771 -0.2827 -1.2588 -0.1688
 4034TIP3   OH236296   7.634   7.639   7.879 -0.6698 -0.2403 -0.3146
 4034TIP3    H136297   7.708   7.689   7.915 -0.5443 -0.1629 -0.6783
 4034TIP3    H236298   7.661   7.617   7.790 -1.1677 -0.0459 -0.5146
 4035TIP3   OH236299   2.016   5.522   6.651  0.6067 -0.2736 -0.0994
 4035TIP3    H136300   2.054   5.593   6.702  0.8901  0.5478 -1.3936
 4035TIP3    H236301   1.966   5.471   6.714  1.7249  0.1281  1.1638
 4036TIP3   OH236302   1.478   6.648   8.895  0.1557  0.2798  0.0596
 4036TIP3    H136303   1.556   6.669   8.844 -1.1419  0.3996 -1.9642
 4036TIP3    H236304   1.425   6.593   8.838 -1.5437  0.7342  1.1104
 4037TIP3   OH236305   6.192   1.428   8.902 -0.7194 -0.2753  0.4319
 4037TIP3    H136306   6.105   1.460   8.877 -0.2872  0.9558  0.4039
 4037TIP3    H236307   6.232   1.399   8.820 -1.0926 -0.8195  0.4412
 4038TIP3   OH236308   1.402   5.342   8.367 -0.0343  0.2042 -0.1359
 4038TIP3    H136309   1.328   5.392   8.333 -0.7298 -0.3595  0.5193
 4038TIP3    H236310   1.387   5.253   8.335  1.4510  0.4823 -1.7053
 4039TIP3   OH236311   6.308   3.031   7.009  0.3415  0.3016 -0.0959
 4039TIP3    H136312   6.267   2.958   6.963  1.2753 -0.5064  0.3196
 4039TIP3    H236313   6.239   3.097   7.016 -1.3882 -1.5615  1.9081
 4040TIP3   OH236314   7.605   3.984   8.281  0.4982 -0.1060 -0.2962
 4040TIP3    H136315   7.603   3.957   8.189  0.2501 -0.3901 -0.2069
 4040TIP3    H236316   7.692   4.024   8.292  0.1563  0.8468 -0.9077
 4041TIP3   OH236317   3.368   0.098   8.326 -0.5311 -0.2847 -0.3658
 4041TIP3    H136318   3.396   0.106   8.234 -0.6589  0.9055 -0.3143
 4041TIP3    H236319   3.365   0.188   8.358 -2.5082 -0.5003  0.2047
 4042TIP3   OH236320   4.699   2.204   7.921  0.5598 -0.1925 -0.6215
 4042TIP3    H136321   4.789   2.180   7.897  1.9642  2.1354  1.7638
 4042TIP3    H236322   4.700   2.300   7.921 -2.5158 -0.0544 -2.2702
 4043TIP3   OH236323   0.536   3.353   7.429  0.2019 -0.4429  0.4488
 4043TIP3    H136324   0.600   3.409   7.473  1.7037  0.1442 -2.2860
 4043TIP3    H236325   0.483   3.414   7.377  0.5818 -1.3267 -1.0266
 4044TIP3   OH236326   5.915   0.269   7.103  0.6683 -0.1755 -0.0942
 4044TIP3    H136327   5.913   0.221   7.021 -1.4385 -0.7632  0.2509
 4044TIP3    H236328   5.832   0.248   7.146  1.6336  0.2155  2.1377
 4045TIP3   OH236329   4.604   4.610   9.110 -0.1149  0.1841  0.0986
 4045TIP3    H136330   4.679   4.638   9.163 -0.5013  0.2509  0.6107
 4045TIP3    H236331   4.638   4.536   9.060 -0.3825 -1.4871  2.2325
 4046TIP3   OH236332   2.417   3.409   7.204 -0.4986 -0.1137 -0.2078
 4046TIP3    H136333   2.469   3.351   7.149 -2.7628 -2.5670  0.0895
 4046TIP3    H236334   2.342   3.434   7.151  0.0195  2.0154 -0.0511
 4047TIP3   OH236335   7.159   4.715   7.563 -0.0229  0.5675 -0.2698
 4047TIP3    H136336   7.133   4.772   7.491 -0.5235  1.7116  0.7772
 4047TIP3    H236337   7.212   4.771   7.620  0.6092 -0.3979  0.1108
 4048TIP3   OH236338   5.158   7.177   8.015 -0.5125  0.0136 -0.1071
 4048TIP3    H136339   5.174   7.083   8.011 -0.7410 -0.2174  2.5945
 4048TIP3    H236340   5.242   7.215   8.041 -0.5539  0.5190 -0.6732
 4049TIP3   OH236341   7.095   6.545   8.317 -0.6274  0.7017 -0.1523
 4049TIP3    H136342   7.090   6.591   8.401  2.5719  0.2895  0.3950
 4049TIP3    H236343   7.048   6.463   8.333  1.0378  0.0134  1.8013
 4050TIP3   OH236344   6.479   7.493   7.403 -0.2878 -0.9059 -0.3857
 4050TIP3    H136345   6.557   7.548   7.393 -0.2509 -0.8272  0.2714
 4050TIP3    H236346   6.482   7.433   7.329  0.4844 -0.9983 -0.2854
 4051TIP3   OH236347   6.224   4.365   7.976  0.6313  0.2244  0.2024
 4051TIP3    H136348   6.247   4.340   8.066  0.3569 -0.1673  0.1624
 4051TIP3    H236349   6.309   4.375   7.933  0.7730  0.6811  0.5748
 4052TIP3   OH236350   2.196   0.585   8.447  0.5002 -0.0607 -0.3276
 4052TIP3    H136351   2.172   0.678   8.439  2.3663  0.6364  1.2852
 4052TIP3    H236352   2.278   0.579   8.397  2.3344  0.0849  2.4560
 4053TIP3   OH236353   5.421   7.355   8.661 -0.2971 -0.2525  0.8509
 4053TIP3    H136354   5.457   7.380   8.746  1.1402  0.8665 -0.0338
 4053TIP3    H236355   5.330   7.382   8.664 -0.1032  0.3153  1.8376
 4054TIP3   OH236356   2.184   4.854   8.556 -0.1344  0.1260  0.0569
 4054TIP3    H136357   2.152   4.938   8.523  0.5556  1.5947  2.8081
 4054TIP3    H236358   2.109   4.816   8.600 -0.2541 -0.3839 -0.5771
 4055TIP3   OH236359   5.062   2.898   9.158  0.2111  0.7448 -0.6060
 4055TIP3    H136360   4.972   2.908   9.191  0.6024 -0.0380  0.7980
 4055TIP3    H236361   5.114   2.959   9.210  0.6317  0.5170 -0.7523
 4056TIP3   OH236362   3.933   3.749   8.625  0.2513  0.1896 -0.3066
 4056TIP3    H136363   3.886   3.671   8.593  0.7112 -0.0771 -0.3458
 4056TIP3    H236364   3.944   3.804   8.548  2.2290 -0.8933 -0.8793
 4057TIP3   OH236365   0.573   0.908   7.935  0.0180  0.0053 -0.3377
 4057TIP3    H136366   0.489   0.889   7.893 -0.4262  1.4752 -0.1518
 4057TIP3    H236367   0.553   0.913   8.028  0.1880  0.9537 -0.3439
 4058TIP3   OH236368   1.464   1.849   6.505 -0.0491  0.0453  0.6847
 4058TIP3    H136369   1.417   1.907   6.445  0.3787  0.8177  1.0813
 4058TIP3    H236370   1.538   1.817   6.454 -0.7493 -0.8488  0.1902
 4059TIP3   OH236371   7.130   7.443   7.780  0.6707  0.6477  0.0196
 4059TIP3    H136372   7.157   7.363   7.825 -0.2907 -0.1475 -0.7641
 4059TIP3    H236373   7.161   7.432   7.691 -1.3864  0.0653 -0.6941
 4060TIP3   OH236374   0.149   1.208   6.760  0.1473 -0.6604  0.1282
 4060TIP3    H136375   0.065   1.245   6.789 -0.2030 -1.6848  0.4936
 4060TIP3    H236376   0.150   1.221   6.665 -0.5780 -0.9043  0.0767
 4061TIP3   OH236377   2.221   3.396   6.777  0.1209 -0.7811  0.3945
 4061TIP3    H136378   2.305   3.438   6.795 -1.1447  2.1553  0.0042
 4061TIP3    H236379   2.228   3.366   6.686 -0.3377  2.8388 -1.0428
 4062TIP3   OH236380   0.024   6.552   8.273  0.6546  0.1682 -0.0381
 4062TIP3    H136381   0.076   6.474   8.253  0.5709  0.4474 -1.4388
 4062TIP3    H236382  -0.062   6.517   8.297  0.9350 -0.2118  0.4304
 4063TIP3   OH236383   0.909   1.080   9.622 -0.3848  0.6023  0.3109
 4063TIP3    H136384   0.908   1.083   9.718 -0.4860 -2.6946  0.5355
 4063TIP3    H236385   1.001   1.067   9.600 -0.5665 -0.4955  0.1325
 4064TIP3   OH236386   5.656   1.057   8.669  0.0534 -0.1188  0.4404
 4064TIP3    H136387   5.643   0.974   8.624 -0.0219  0.2042 -0.1483
 4064TIP3    H236388   5.580   1.066   8.727 -1.4911  0.8860 -1.6166
 4065TIP3   OH236389   6.441   7.475   9.206  0.3693 -0.2646  0.6064
 4065TIP3    H136390   6.525   7.502   9.168 -0.8285 -1.2205 -3.2322
 4065TIP3    H236391   6.399   7.557   9.233  0.9235  0.7244 -1.3423
 4066TIP3   OH236392   7.605   5.527   8.911 -0.8316  0.1560  0.7198
 4066TIP3    H136393   7.665   5.601   8.919  0.4382 -0.7095 -0.4602
 4066TIP3    H236394   7.599   5.491   9.000  1.6426 -0.6606  0.6338
 4067TIP3   OH236395   3.497   2.039   6.825  0.1244 -0.0463  0.5669
 4067TIP3    H136396   3.491   2.131   6.851 -2.3658 -0.1431  0.5674
 4067TIP3    H236397   3.527   1.994   6.903 -0.2148  0.5853  1.0698
 4068TIP3   OH236398   1.775   4.258   7.083  0.2076 -0.0713 -0.0073
 4068TIP3    H136399   1.769   4.348   7.050  1.3335 -0.5141 -1.5695
 4068TIP3    H236400   1.780   4.204   7.004  2.6763 -1.2569  0.8476
 4069TIP3   OH236401   4.778   7.349   9.063  0.3512 -0.0069 -0.3315
 4069TIP3    H136402   4.808   7.357   9.154  0.5405 -1.3776 -0.2454
 4069TIP3    H236403   4.697   7.298   9.069 -0.2383  0.8591 -0.8449
 4070TIP3   OH236404   7.096   0.097   9.854  0.6372 -0.3840 -0.1404
 4070TIP3    H136405   7.016   0.145   9.873  1.0053 -0.2170  1.0212
 4070TIP3    H236406   7.068   0.005   9.848 -0.0161 -0.1252 -2.0896
 4071TIP3   OH236407   0.467   7.075   8.810  0.4652  0.2769 -0.2174
 4071TIP3    H136408   0.451   7.166   8.835  1.1754 -0.1588  2.1400
 4071TIP3    H236409   0.388   7.048   8.764 -0.4792  1.5985  0.5525
 4072TIP3   OH236410   5.678   7.479   8.118 -0.2612 -0.1507  0.0690
 4072TIP3    H136411   5.630   7.399   8.094 -0.5942 -0.2090  0.9057
 4072TIP3    H236412   5.679   7.531   8.038 -2.3422  0.1676  0.2118
 4073TIP3   OH236413   3.283   3.029   8.785 -0.0805 -0.0053  0.1847
 4073TIP3    H136414   3.351   3.096   8.796  0.3252 -0.4035  0.1025
 4073TIP3    H236415   3.309   2.958   8.843 -0.9790  0.2569  0.9356
 4074TIP3   OH236416   2.218   2.944   9.276 -0.4357  0.2260 -0.1572
 4074TIP3    H136417   2.183   2.882   9.341 -0.4722 -3.9962 -3.7091
 4074TIP3    H236418   2.313   2.940   9.289 -0.4745 -0.1273  0.0506
 4075TIP3   OH236419   3.803   5.006   9.104 -0.2546  0.0799  0.0296
 4075TIP3    H136420   3.754   5.054   9.171 -1.7233 -0.0944 -0.8659
 4075TIP3    H236421   3.767   4.917   9.107  0.8107 -0.3628  0.1010
 4076TIP3   OH236422   4.909   4.838   7.966  0.1929  0.6714  0.8048
 4076TIP3    H136423   4.832   4.788   7.940  1.7531 -0.6560 -1.7097
 4076TIP3    H236424   4.930   4.892   7.890  1.7710  0.9576  1.3914
 4077TIP3   OH236425   1.196   4.780   8.732 -0.2878 -0.5352  0.2146
 4077TIP3    H136426   1.107   4.787   8.698 -0.0863 -0.9118 -0.3953
 4077TIP3    H236427   1.185   4.750   8.823 -0.7872 -0.3844  0.2048
 4078TIP3   OH236428   5.693   3.864   7.268  0.4003 -0.2410 -0.6798
 4078TIP3    H136429   5.619   3.832   7.216 -0.2412 -1.1386  0.6951
 4078TIP3    H236430   5.755   3.792   7.268 -0.1917 -0.7991  0.8334
 4079TIP3   OH236431   3.887   7.456   8.062 -0.1470 -0.1073  0.0306
 4079TIP3    H136432   3.802   7.498   8.077  0.0791  0.3685  0.0285
 4079TIP3    H236433   3.951   7.520   8.095  0.3769  0.9090 -2.6515
 4080TIP3   OH236434   3.597   2.932   8.624 -0.0470  0.0494 -0.0788
 4080TIP3    H136435   3.518   2.912   8.575 -1.5503  2.7153  1.0138
 4080TIP3    H236436   3.620   3.021   8.596  1.6043 -0.0382  0.8660
 4081TIP3   OH236437   1.556   4.518   9.010 -0.5785  0.0320  0.0471
 4081TIP3    H136438   1.547   4.489   8.920 -1.9141  0.6862 -0.0532
 4081TIP3    H236439   1.537   4.441   9.063 -0.5917 -0.1492 -0.2227
 4082TIP3   OH236440   6.854   6.262   7.551  0.7929  0.0894  0.0984
 4082TIP3    H136441   6.851   6.179   7.598  1.1599  0.4269  0.7215
 4082TIP3    H236442   6.858   6.236   7.459 -0.1479 -0.5697  0.2191
 4083TIP3   OH236443   2.594   0.727   7.667  0.5602 -0.3666  0.5307
 4083TIP3    H136444   2.541   0.772   7.733  2.0426  0.1333  1.4248
 4083TIP3    H236445   2.664   0.788   7.646  0.7674 -0.9825 -0.6806
 4084TIP3   OH236446   4.464   1.780   7.765  0.6171  0.0027  1.1589
 4084TIP3    H136447   4.458   1.876   7.764 -4.4075 -0.0128  1.0770
 4084TIP3    H236448   4.461   1.755   7.673 -1.1838 -0.1257  1.2079
 4085TIP3   OH236449   2.619   2.369   8.121 -0.2037 -0.1513 -0.9281
 4085TIP3    H136450   2.665   2.355   8.039  0.0320 -1.5524 -0.5846
 4085TIP3    H236451   2.534   2.405   8.095  0.3289  0.5847 -1.6887
 4086TIP3   OH236452   3.170   5.008   9.211 -0.3699 -0.5972 -0.0764
 4086TIP3    H136453   3.085   5.052   9.222  1.1203  2.6098 -0.2790
 4086TIP3    H236454   3.197   5.030   9.123  1.0611 -0.8757  0.2725
 4087TIP3   OH236455   2.589   3.591   7.759  0.5711  0.0655  0.3854
 4087TIP3    H136456   2.574   3.626   7.671  3.4125  1.0050  0.1736
 4087TIP3    H236457   2.526   3.519   7.767 -0.2906  0.4358 -2.1142
 4088TIP3   OH236458   5.487   2.596   8.472  0.3664  0.4446 -0.0955
 4088TIP3    H136459   5.399   2.568   8.444  0.2163  0.6639  0.1456
 4088TIP3    H236460   5.502   2.550   8.554  0.8817 -0.3347 -0.6253
 4089TIP3   OH236461   4.377   0.132   9.086  0.2460  0.2037 -0.3394
 4089TIP3    H136462   4.408   0.186   9.158  0.3078 -0.3057  0.0189
 4089TIP3    H236463   4.335   0.057   9.128  0.6173 -0.2891 -0.8326
 4090TIP3   OH236464   5.549   5.634   8.423 -0.6419  0.6166  0.2383
 4090TIP3    H136465   5.579   5.551   8.388  1.3680  1.6129 -0.6097
 4090TIP3    H236466   5.594   5.642   8.508  0.1585  1.3379 -0.2329
 4091TIP3   OH236467   1.938   1.967   8.110 -0.0990 -0.3336 -0.4621
 4091TIP3    H136468   1.969   2.024   8.181 -1.0232  1.1288 -1.1958
 4091TIP3    H236469   1.969   2.009   8.030 -1.0896 -0.6550 -1.0352
 4092TIP3   OH236470   0.453   5.002   8.577 -0.5814 -0.1929 -0.1571
 4092TIP3    H136471   0.441   5.059   8.502  2.3205 -0.3799 -0.8479
 4092TIP3    H236472   0.465   4.915   8.539  0.0112 -0.4351  0.5668
 4093TIP3   OH236473   0.820   1.622   8.215  0.4596  0.2330  0.3037
 4093TIP3    H136474   0.882   1.564   8.169  0.0512  0.0479 -0.0264
 4093TIP3    H236475   0.734   1.586   8.193  0.0596  2.2148 -1.6708
 4094TIP3   OH236476   4.265   3.466   8.271 -0.2325  0.8060  0.5905
 4094TIP3    H136477   4.212   3.490   8.195 -2.0532  2.3978  2.2507
 4094TIP3    H236478   4.235   3.524   8.340 -0.1029 -1.9406  3.1187
 4095TIP3   OH236479   7.172   6.391   7.450  0.5460  0.2550  0.5859
 4095TIP3    H136480   7.157   6.374   7.542 -1.4820 -2.5859 -0.1547
 4095TIP3    H236481   7.102   6.452   7.424 -0.1791 -0.6063  0.4958
 4096TIP3   OH236482   7.005   2.045   8.537 -0.5371  0.3253  0.5801
 4096TIP3    H136483   6.985   2.062   8.629 -0.0775  1.2548  0.5213
 4096TIP3    H236484   6.924   2.009   8.501 -1.0578  0.9433  1.1047
 4097TIP3   OH236485   3.580   0.770   7.799  0.1106  0.0233  0.6810
 4097TIP3    H136486   3.614   0.807   7.881  0.3947  0.7642  0.2393
 4097TIP3    H236487   3.646   0.791   7.734 -1.3091  1.8394 -0.2716
 4098TIP3   OH236488   6.480   5.336   7.605 -0.1610  0.6886  0.3032
 4098TIP3    H136489   6.524   5.298   7.529  1.1197  1.4322  0.6402
 4098TIP3    H236490   6.514   5.286   7.680 -3.2943 -1.7965  0.3185
 4099TIP3   OH236491   1.447   1.657   9.575 -0.5058  0.3149  0.3258
 4099TIP3    H136492   1.491   1.635   9.493 -0.0895  0.9818  0.3601
 4099TIP3    H236493   1.501   1.726   9.613 -1.4097  0.9324  0.5259
 4100TIP3   OH236494   4.041   6.706   8.620 -0.5696 -0.3723 -0.2884
 4100TIP3    H136495   3.975   6.764   8.659 -0.9093 -0.8954 -0.0711
 4100TIP3    H236496   4.090   6.762   8.560 -1.3526 -0.0173 -0.6181
 4101TIP3   OH236497   5.452   6.775   8.207  0.1103  0.4317 -0.0617
 4101TIP3    H136498   5.475   6.775   8.300 -0.7898 -2.1807  0.2400
 4101TIP3    H236499   5.509   6.707   8.169 -0.2939  0.7155 -1.2057
 4102TIP3   OH236500   3.789   3.235   7.049  0.2221 -0.5630  0.2624
 4102TIP3    H136501   3.775   3.325   7.077 -0.6988 -1.2459  2.1760
 4102TIP3    H236502   3.710   3.212   7.000 -0.0698 -0.6797  0.7806
 4103TIP3   OH236503   7.435   3.740   8.164  0.0211  0.5399 -0.7742
 4103TIP3    H136504   7.506   3.796   8.133  1.5564 -1.1877 -0.5045
 4103TIP3    H236505   7.422   3.675   8.095  1.3719 -1.4650  0.7467
 4104TIP3   OH236506   5.335   2.211   7.922  0.5973 -0.6813 -0.4070
 4104TIP3    H136507   5.265   2.269   7.893 -0.0802 -0.2907  1.8502
 4104TIP3    H236508   5.292   2.150   7.982  2.0309 -0.9908  0.3397
 4105TIP3   OH236509   6.329   3.871   9.130  0.3995  0.1099  0.1067
 4105TIP3    H136510   6.379   3.952   9.127  0.4939  0.0695  0.5591
 4105TIP3    H236511   6.376   3.812   9.070 -0.4459  0.8062 -1.3074
 4106TIP3   OH236512   6.535   7.510   8.018  0.1927  0.0878  0.0997
 4106TIP3    H136513   6.609   7.569   8.035 -0.0822  0.6185 -0.4822
 4106TIP3    H236514   6.479   7.560   7.958 -0.2400 -0.6196 -0.0920
 4107TIP3   OH236515   4.886   2.243   7.402  0.4358  0.1473 -0.0030
 4107TIP3    H136516   4.923   2.330   7.393  0.2601  0.1420 -0.7935
 4107TIP3    H236517   4.878   2.210   7.313 -2.8556  0.7256 -0.0649
 4108TIP3   OH236518   1.695   1.623   8.168  0.1615 -0.2195  0.1339
 4108TIP3    H136519   1.663   1.540   8.133  0.7239 -0.8727  1.1334
 4108TIP3    H236520   1.764   1.599   8.229  1.1105  1.0455 -0.3775
 4109TIP3   OH236521   7.311   2.163   6.544  0.3839 -0.2815  0.8532
 4109TIP3    H136522   7.248   2.101   6.507  0.3853 -1.0323  2.0699
 4109TIP3    H236523   7.386   2.110   6.570  0.3983  0.2047  1.8828
 4110TIP3   OH236524   7.304   7.549   6.964  0.2632 -0.4668 -0.2983
 4110TIP3    H136525   7.342   7.467   6.995  0.8733 -0.1701 -0.2526
 4110TIP3    H236526   7.219   7.524   6.928  0.4217 -1.1078 -0.2329
 4111TIP3   OH236527   2.760   0.563   8.969 -0.0742  0.3085 -0.6874
 4111TIP3    H136528   2.811   0.542   9.047  1.0217  0.6388 -1.3071
 4111TIP3    H236529   2.810   0.630   8.923 -0.7933  0.2579 -1.5924
 4112TIP3   OH236530   7.616   1.482   7.347 -0.3292 -0.3517 -0.4282
 4112TIP3    H136531   7.551   1.440   7.403  0.4197  0.7373  1.3452
 4112TIP3    H236532   7.670   1.409   7.315 -0.7529 -1.0097  0.3093
 4113TIP3   OH236533   5.976   2.175   7.569  0.4312  0.0723 -0.3265
 4113TIP3    H136534   5.897   2.130   7.537  0.0218  1.3414 -1.1866
 4113TIP3    H236535   6.045   2.110   7.562 -0.5617 -1.1387  0.6239
 4114TIP3   OH236536   2.084   1.180   7.588  0.2812  0.0219  0.4798
 4114TIP3    H136537   2.141   1.253   7.612  0.2259 -0.3590  1.8453
 4114TIP3    H236538   2.002   1.197   7.635 -0.3400 -0.0361 -0.5532
 4115TIP3   OH236539   2.422   3.460   9.454  0.3937  0.8358 -0.1252
 4115TIP3    H136540   2.410   3.413   9.537  1.3285  0.3680 -0.2421
 4115TIP3    H236541   2.453   3.393   9.393 -0.3421  1.1610 -0.8804
 4116TIP3   OH236542   0.467   4.390   8.480  0.5477  0.1869  0.8172
 4116TIP3    H136543   0.387   4.437   8.458 -1.6949 -3.3884  0.4826
 4116TIP3    H236544   0.437   4.313   8.529  3.7721 -1.3590  0.6152
 4117TIP3   OH236545   3.451   1.426   7.497  0.1582 -0.0680 -0.1925
 4117TIP3    H136546   3.456   1.464   7.585 -1.0835 -1.9082  0.7413
 4117TIP3    H236547   3.497   1.342   7.504 -3.5025 -2.2847  0.0029
 4118TIP3   OH236548   0.879   2.572   7.973  0.1233 -0.3473  0.2557
 4118TIP3    H136549   0.884   2.627   8.051  2.1697  1.1879 -0.8584
 4118TIP3    H236550   0.939   2.499   7.990  1.2890  0.4720 -0.1700
 4119TIP3   OH236551   3.885   1.047   7.696  0.5081 -0.2189  0.4665
 4119TIP3    H136552   3.941   1.000   7.758  1.7769 -0.8873 -1.0998
 4119TIP3    H236553   3.924   1.134   7.690  0.8888 -0.4176  0.0041
 4120TIP3   OH236554   3.700   0.558   7.102  0.0530 -0.1805  0.2473
 4120TIP3    H136555   3.737   0.641   7.070  0.4638  0.3421  1.9544
 4120TIP3    H236556   3.764   0.492   7.076 -0.6470 -0.0959 -1.7974
 4121TIP3   OH236557   0.611   6.577   9.434  0.3829 -0.0151  0.9417
 4121TIP3    H136558   0.692   6.566   9.384  0.5608  0.3338  1.1520
 4121TIP3    H236559   0.640   6.585   9.525  0.1009 -0.0394  1.0337
 4122TIP3   OH236560   1.061   5.864   7.487 -0.6401 -0.5779  0.5280
 4122TIP3    H136561   1.054   5.880   7.392  0.4040 -1.1805  0.3316
 4122TIP3    H236562   1.062   5.768   7.495 -0.8244 -0.5305  1.1597
 4123TIP3   OH236563   5.185   7.033   8.817 -0.2042 -0.3247 -0.2561
 4123TIP3    H136564   5.162   7.126   8.809 -1.6484 -0.8073 -2.8304
 4123TIP3    H236565   5.238   7.028   8.896  0.0364  2.7116 -0.1219
 4124TIP3   OH236566   5.982   6.170   7.376  0.0514  0.7797 -0.4259
 4124TIP3    H136567   6.047   6.183   7.308 -0.9263  1.0137 -1.3334
 4124TIP3    H236568   6.030   6.126   7.447  0.9288 -0.0717 -1.5166
 4125TIP3   OH236569   2.280   0.054   7.728  0.2774 -0.6004 -0.3223
 4125TIP3    H136570   2.220   0.110   7.679  0.0732 -1.2606 -0.8416
 4125TIP3    H236571   2.327   0.114   7.786 -0.5676 -0.0159 -0.2242
 4126TIP3   OH236572   7.600   0.073   6.989 -0.0755 -0.0577  0.2852
 4126TIP3    H136573   7.512   0.109   7.001  0.1554  0.2652  1.1166
 4126TIP3    H236574   7.602   0.044   6.898 -0.4120  1.6660 -0.3028
 4127TIP3   OH236575   6.304   4.579   9.137 -0.2169 -0.6122  0.2090
 4127TIP3    H136576   6.213   4.566   9.164 -1.0027  1.2044 -1.3665
 4127TIP3    H236577   6.309   4.672   9.115  2.6489 -0.1273  2.3998
 4128TIP3   OH236578   0.160   1.273   7.464  0.3715 -0.3029 -0.3272
 4128TIP3    H136579   0.142   1.251   7.372  1.7948 -2.7903 -0.1027
 4128TIP3    H236580   0.235   1.219   7.487  1.2592  1.6738  1.7956
 4129TIP3   OH236581   4.828   0.148   9.158  0.1455 -0.4181 -0.5769
 4129TIP3    H136582   4.797   0.089   9.089  0.5311 -3.1238  1.4261
 4129TIP3    H236583   4.893   0.097   9.206  1.7571  2.2708  0.3099
 4130TIP3   OH236584   4.437   5.103   8.606 -0.0625 -0.5203 -0.0895
 4130TIP3    H136585   4.485   5.153   8.672  1.3284 -1.1761 -0.5600
 4130TIP3    H236586   4.437   5.159   8.529  0.5253 -0.7771 -0.2814
 4131TIP3   OH236587   4.027   3.372   8.925  0.6456  0.1947  0.1241
 4131TIP3    H136588   4.021   3.368   9.020  0.5849 -1.3241  0.0713
 4131TIP3    H236589   4.042   3.465   8.906 -2.7630  1.1727  1.4029
 4132TIP3   OH236590   1.347   0.538   7.505  0.0638 -0.1745 -0.2394
 4132TIP3    H136591   1.339   0.613   7.445 -0.8803  1.6945  2.0585
 4132TIP3    H236592   1.434   0.549   7.544 -0.5564  0.4962  1.0039
 4133TIP3   OH236593   1.732   0.423   9.231 -0.2183 -0.2156  0.4342
 4133TIP3    H136594   1.808   0.367   9.219 -0.0219  0.2181 -0.5251
 4133TIP3    H236595   1.764   0.496   9.284  0.2255  0.2740 -0.4662
 4134TIP3   OH236596   4.394   5.400   9.278  0.2309  0.2179 -0.1988
 4134TIP3    H136597   4.306   5.410   9.314 -0.2235 -1.3613 -0.7610
 4134TIP3    H236598   4.410   5.305   9.282  1.6923  0.4260 -0.6032
 4135TIP3   OH236599   0.109   2.786   8.950  0.2638 -0.3986  0.5340
 4135TIP3    H136600   0.180   2.850   8.966 -0.0382 -0.1978  1.1137
 4135TIP3    H236601   0.109   2.774   8.855 -0.5094  1.4456  0.2620
 4136TIP3   OH236602   6.690   6.234   8.841 -0.4081 -0.0253 -0.3295
 4136TIP3    H136603   6.775   6.263   8.806  0.0967 -1.5187 -0.3871
 4136TIP3    H236604   6.646   6.193   8.767 -0.2701 -1.1906  0.2168
 4137TIP3   OH236605   1.988   1.982   9.463 -0.0798 -0.1020 -0.0839
 4137TIP3    H136606   2.046   1.932   9.520 -0.9477  0.1229  1.0156
 4137TIP3    H236607   1.939   1.916   9.414 -2.3468 -0.4634  2.4757
 4138TIP3   OH236608   1.577   0.290   7.199 -0.1739  0.0167  0.4093
 4138TIP3    H136609   1.484   0.295   7.221 -0.7673 -2.7007 -1.1056
 4138TIP3    H236610   1.586   0.345   7.121 -0.6544 -0.3025  0.1300
 4139TIP3   OH236611   6.842   2.026   8.089 -0.1780 -0.6888  0.3250
 4139TIP3    H136612   6.908   2.052   8.154  0.5815 -2.2840  0.2277
 4139TIP3    H236613   6.893   2.004   8.011 -1.0221  0.3299 -0.5528
 4140TIP3   OH236614   4.820   0.639   7.589  0.2424  0.2471 -0.2898
 4140TIP3    H136615   4.785   0.645   7.500 -0.4796 -0.0107 -0.0378
 4140TIP3    H236616   4.824   0.730   7.620  0.8251  0.3661 -0.7016
 4141TIP3   OH236617   0.785   4.916   7.769  0.1198 -0.2494  0.2727
 4141TIP3    H136618   0.690   4.930   7.764  0.3056  2.5803  2.1841
 4141TIP3    H236619   0.823   5.003   7.754  2.3930 -1.2100  0.0571
 4142TIP3   OH236620   3.705   5.689   7.504  0.5379 -0.1801 -0.0043
 4142TIP3    H136621   3.795   5.664   7.522  0.3774 -0.2227  0.7598
 4142TIP3    H236622   3.670   5.718   7.588 -0.4930 -1.2192 -0.0514
 4143TIP3   OH236623   5.210   5.446   7.263  0.5067 -0.3248 -0.2864
 4143TIP3    H136624   5.173   5.534   7.255 -0.0070 -0.2265  2.3781
 4143TIP3    H236625   5.277   5.454   7.331  0.6752 -1.9248 -0.2254
 4144TIP3   OH236626   6.880   3.661   8.074  0.1031  0.2326 -0.1033
 4144TIP3    H136627   6.913   3.707   8.151 -1.5878 -0.7690  1.3145
 4144TIP3    H236628   6.955   3.613   8.040  0.6252 -0.3983  1.7864
 4145TIP3   OH236629   5.868   7.582   6.899 -0.3146 -0.5218  0.1077
 4145TIP3    H136630   5.788   7.632   6.886  0.3694 -0.1019 -3.4041
 4145TIP3    H236631   5.838   7.495   6.924 -1.7829  0.0109  0.3021
 4146TIP3   OH236632   3.946   4.985   8.322 -0.2220 -0.3309  0.0815
 4146TIP3    H136633   3.941   5.078   8.346 -2.5146 -0.6245  1.0749
 4146TIP3    H236634   4.001   4.946   8.390  0.1190  0.1690  0.1011
 4147TIP3   OH236635   6.832   4.909   7.498  0.0253 -0.4024  0.4939
 4147TIP3    H136636   6.769   4.924   7.428 -0.4077 -1.9325  0.5240
 4147TIP3    H236637   6.825   4.987   7.553  0.4759  0.8997 -1.1987
 4148TIP3   OH236638   0.851   4.272   9.304  0.0561  0.2662 -0.4114
 4148TIP3    H136639   0.774   4.328   9.315 -0.1053  0.4695 -2.2400
 4148TIP3    H236640   0.861   4.263   9.209  1.4693 -0.9057 -0.1915
 4149TIP3   OH236641   3.542   5.444   7.893 -0.2368 -0.5448  0.8121
 4149TIP3    H136642   3.452   5.473   7.883 -0.1258 -0.5358 -0.2810
 4149TIP3    H236643   3.538   5.374   7.958 -0.7658  0.6602  2.1050
 4150TIP3   OH236644   5.630   1.053   7.063  0.9013 -0.0866  0.0498
 4150TIP3    H136645   5.662   1.129   7.013  2.0326 -0.4610  0.1924
 4150TIP3    H236646   5.617   0.985   6.997 -1.7173  0.6588 -0.3505
 4151TIP3   OH236647   0.879   6.686   8.399 -0.4460 -0.3265  0.1568
 4151TIP3    H136648   0.919   6.599   8.397  0.7396  0.2073 -1.5786
 4151TIP3    H236649   0.785   6.668   8.386 -0.2430 -1.3430 -0.0364
 4152TIP3   OH236650   2.009   0.657   7.103  0.0068 -0.5157 -0.0735
 4152TIP3    H136651   1.972   0.612   7.178 -0.8712 -0.4293 -0.4364
 4152TIP3    H236652   2.067   0.593   7.062  0.1379 -0.7129  0.4140
 4153TIP3   OH236653   0.983   2.407   9.279 -0.3269  0.4622 -0.1182
 4153TIP3    H136654   0.944   2.355   9.209 -2.0162 -0.1070  1.2062
 4153TIP3    H236655   1.001   2.344   9.349 -1.9909  1.5363  1.3384
 4154TIP3   OH236656   4.029   2.738   9.062 -0.4929  0.9962 -0.6095
 4154TIP3    H136657   4.089   2.785   9.003  0.1837  0.9818  0.0507
 4154TIP3    H236658   3.975   2.807   9.100 -1.9212  0.8748 -2.2982
 4155TIP3   OH236659   5.896   0.011   6.579 -0.9980  0.3132  0.2062
 4155TIP3    H136660   5.814   0.047   6.613 -1.5246 -0.7523  0.0818
 4155TIP3    H236661   5.878  -0.008   6.487 -0.4737  0.4703  0.0655
 4156TIP3   OH236662   7.337   5.480   8.808  0.7936 -0.1633  0.5247
 4156TIP3    H136663   7.313   5.564   8.769  0.7920 -0.4870 -0.1799
 4156TIP3    H236664   7.433   5.480   8.808  1.1172 -2.3643 -4.5900
 4157TIP3   OH236665   0.725   6.884   9.366  0.3536  0.5437 -0.4989
 4157TIP3    H136666   0.730   6.979   9.381 -0.2433  0.5128 -0.0645
 4157TIP3    H236667   0.772   6.846   9.440  0.5077  0.4964 -0.6213
 4158TIP3   OH236668   0.239   5.173   7.711 -0.1841 -0.0358 -0.1175
 4158TIP3    H136669   0.177   5.237   7.676 -2.7507 -1.0584  2.1627
 4158TIP3    H236670   0.207   5.088   7.678  0.9372 -0.4689 -0.1240
 4159TIP3   OH236671   0.833   2.807   6.666 -0.1283  0.1615  0.2068
 4159TIP3    H136672   0.757   2.751   6.651  0.4968 -1.3093  2.0574
 4159TIP3    H236673   0.797   2.895   6.673 -1.8981 -0.6337  2.3092
 4160TIP3   OH236674   3.124   0.044   8.193 -0.4842  0.6462 -0.0115
 4160TIP3    H136675   3.207   0.030   8.239 -0.1899  1.4647 -0.2679
 4160TIP3    H236676   3.094   0.130   8.224 -1.2581  0.3341  0.1133
 4161TIP3   OH236677   1.955   1.350   8.775 -0.0940  0.3155 -0.1191
 4161TIP3    H136678   1.948   1.342   8.680 -1.6460 -1.3366  0.0746
 4161TIP3    H236679   1.983   1.263   8.804 -0.8565  0.4223  1.0059
 4162TIP3   OH236680   6.036   2.786   8.060  0.1832 -0.3149  0.0085
 4162TIP3    H136681   6.077   2.837   7.989 -0.9486  0.6779  0.0275
 4162TIP3    H236682   6.025   2.699   8.023  0.9159 -0.1956 -0.5209
 4163TIP3   OH236683   6.008   5.120   7.988  0.2303  0.1488  0.3136
 4163TIP3    H136684   5.974   5.146   7.903  1.4236 -0.7436 -0.4713
 4163TIP3    H236685   5.931   5.096   8.039 -0.4324 -0.2723 -0.8568
 4164TIP3   OH236686   3.571   5.139   8.766  0.2583 -0.0778 -0.6920
 4164TIP3    H136687   3.616   5.223   8.754 -1.3880  1.0783  0.6718
 4164TIP3    H236688   3.586   5.092   8.684 -0.0214  2.1643 -2.1196
 4165TIP3   OH236689   5.034   0.208   6.838 -0.4983  0.1981 -0.2559
 4165TIP3    H136690   5.060   0.295   6.868  0.5431 -0.4794  0.8890
 4165TIP3    H236691   5.116   0.162   6.822 -1.0219 -0.7179 -0.3889
 4166TIP3   OH236692   3.060   0.850   9.358 -0.1710  0.2029  0.4033
 4166TIP3    H136693   3.133   0.799   9.390  0.4250  0.5759 -0.3217
 4166TIP3    H236694   3.036   0.908   9.431  1.7075  1.6427 -0.0459
 4167TIP3   OH236695   7.362   3.892   9.317 -0.5869 -0.3505 -0.0058
 4167TIP3    H136696   7.451   3.864   9.337 -1.0900 -2.1352 -0.0508
 4167TIP3    H236697   7.307   3.829   9.364 -1.8242  0.9145  0.2709
 4168TIP3   OH236698   1.601   3.038   8.657  0.8919  0.0961 -0.5374
 4168TIP3    H136699   1.605   2.959   8.603  0.3693  0.3817 -0.9965
 4168TIP3    H236700   1.544   3.015   8.730 -0.2875  0.4287 -1.3265
 4169TIP3   OH236701   1.948   0.858   7.307  1.1518 -0.6110  0.2672
 4169TIP3    H136702   2.000   0.839   7.229 -0.5781  0.6054 -1.2846
 4169TIP3    H236703   1.936   0.953   7.305  0.3433 -0.6655  1.5294
 4170TIP3   OH236704   1.694   0.726   9.238  0.0365 -0.2101  0.0519
 4170TIP3    H136705   1.656   0.814   9.226 -1.6614 -0.7560  1.0478
 4170TIP3    H236706   1.758   0.738   9.308 -0.6517  0.1283  0.6410
 4171TIP3   OH236707   3.868   6.503   7.307 -0.3300  0.3705  0.1008
 4171TIP3    H136708   3.822   6.432   7.262  1.6124 -0.8377 -0.1130
 4171TIP3    H236709   3.821   6.582   7.282 -1.0861 -0.5815 -1.6662
 4172TIP3   OH236710   1.506   6.802   9.226  0.0585 -0.0919 -0.1704
 4172TIP3    H136711   1.524   6.727   9.170 -2.0957 -1.3149  0.6679
 4172TIP3    H236712   1.561   6.789   9.303 -0.6652 -1.1180  0.1921
 4173TIP3   OH236713   0.690   5.122   8.752 -0.2872  0.2519  0.3855
 4173TIP3    H136714   0.649   5.132   8.838 -2.8122  0.3338 -0.7379
 4173TIP3    H236715   0.629   5.067   8.703  1.9986 -1.3759 -0.8315
 4174TIP3   OH236716   2.057   4.163   6.842 -0.0814 -0.6942 -0.1279
 4174TIP3    H136717   2.053   4.125   6.754  1.2496 -1.1860  0.0120
 4174TIP3    H236718   1.968   4.152   6.876 -0.5828 -0.6154 -1.3559
 4175TIP3   OH236719   6.596   0.451   7.743 -0.3815 -0.4231  0.0928
 4175TIP3    H136720   6.558   0.367   7.718 -1.1878  0.0211 -0.2242
 4175TIP3    H236721   6.666   0.429   7.804 -1.8136 -1.2252  1.5293
 4176TIP3   OH236722   6.187   0.910   8.310 -0.3431 -0.2897 -0.4532
 4176TIP3    H136723   6.188   0.901   8.215 -0.0904 -0.2605 -0.4552
 4176TIP3    H236724   6.118   0.974   8.329  0.6009  0.8340 -0.7155
 4177TIP3   OH236725   3.642   1.657   8.106 -0.1881  0.6491  0.6279
 4177TIP3    H136726   3.691   1.717   8.163  0.1884  1.0662 -0.1236
 4177TIP3    H236727   3.565   1.707   8.080  0.2385  0.9067 -0.1805
 4178TIP3   OH236728   0.928   3.253   9.416 -0.0042  0.7049 -0.4540
 4178TIP3    H136729   1.004   3.267   9.359  1.0586 -0.0878  0.7044
 4178TIP3    H236730   0.938   3.162   9.446 -0.7632  0.9799  0.6717
 4179TIP3   OH236731   3.505   2.544   7.966  0.5987  0.1051  0.1144
 4179TIP3    H136732   3.425   2.541   7.913  0.3209 -1.5387  0.5573
 4179TIP3    H236733   3.507   2.632   8.002 -1.5208 -0.0825  0.8104
 4180TIP3   OH236734   0.679   4.453   7.613  0.2041 -0.0262  0.1209
 4180TIP3    H136735   0.770   4.481   7.621  0.5135 -0.7537 -0.7014
 4180TIP3    H236736   0.682   4.358   7.625 -0.2046 -0.2842 -1.5527
 4181TIP3   OH236737   1.386   4.031   8.751  0.3500 -0.7117  0.8005
 4181TIP3    H136738   1.444   4.104   8.771  1.3462 -0.8839 -1.1505
 4181TIP3    H236739   1.445   3.960   8.725 -0.6788 -1.0925 -0.6623
 4182TIP3   OH236740   1.281   3.226   8.828  0.0185 -0.8961  0.1846
 4182TIP3    H136741   1.190   3.198   8.818 -0.2817 -0.5149  1.6900
 4182TIP3    H236742   1.327   3.146   8.853 -0.2774 -0.6947  1.4086
 4183TIP3   OH236743   4.976   4.440   8.106  0.0457  0.3260  0.1424
 4183TIP3    H136744   5.031   4.502   8.155 -0.2737  0.8158 -0.1116
 4183TIP3    H236745   4.900   4.425   8.162  0.7502 -0.9161  0.8231
 4184TIP3   OH236746   4.564   4.228   8.221 -0.1856  0.0661  0.3277
 4184TIP3    H136747   4.630   4.182   8.169 -0.3367 -0.4773  0.6169
 4184TIP3    H236748   4.614   4.278   8.285 -0.0260  0.2272  0.0779
 4185TIP3   OH236749   5.903   6.264   7.647  0.1299 -0.0398  0.6632
 4185TIP3    H136750   5.985   6.236   7.688  0.5554  2.0275  1.3694
 4185TIP3    H236751   5.904   6.224   7.561  2.1007  0.2579  0.4998
 4186TIP3   OH236752   0.916   0.816   6.779  0.7196  0.2865  0.6409
 4186TIP3    H136753   0.855   0.761   6.730  0.3312 -1.1728  2.6340
 4186TIP3    H236754   1.002   0.777   6.763  1.0870  1.7606 -1.3818
 4187TIP3   OH236755   5.035   2.200   7.861  0.5739  0.4064 -0.3050
 4187TIP3    H136756   5.021   2.194   7.955 -1.7020 -2.5008 -0.6565
 4187TIP3    H236757   5.088   2.123   7.840 -1.1762 -0.5206 -1.6181
 4188TIP3   OH236758   0.776   1.820   8.849 -0.1635  0.3513  0.7379
 4188TIP3    H136759   0.684   1.801   8.834  0.5703 -2.3467 -0.9805
 4188TIP3    H236760   0.803   1.758   8.916  0.5660  0.5994  0.6853
 4189TIP3   OH236761   4.157   4.085   8.922 -0.0707 -0.0548  1.0640
 4189TIP3    H136762   4.102   4.150   8.966 -0.5653 -1.3494  2.4743
 4189TIP3    H236763   4.098   4.040   8.862 -0.1664 -0.3372  1.3634
 4190TIP3   OH236764   6.846   1.725   8.067  0.0178  0.6206  0.3298
 4190TIP3    H136765   6.875   1.690   7.983 -1.1192  0.0978  0.1257
 4190TIP3    H236766   6.792   1.801   8.044  0.0534  0.7325  0.6091
 4191TIP3   OH236767   0.856   0.780   7.391 -0.5591 -0.2981  0.2883
 4191TIP3    H136768   0.860   0.750   7.300  1.8256 -0.0790  0.2677
 4191TIP3    H236769   0.822   0.869   7.385  0.5975  0.1085 -0.5367
 4192TIP3   OH236770   1.819   4.756   8.489  0.2390  0.6564 -0.2184
 4192TIP3    H136771   1.887   4.745   8.555  0.6553 -0.4316 -0.7909
 4192TIP3    H236772   1.746   4.798   8.535  0.5209 -0.0620  0.9231
 4193TIP3   OH236773   6.524   2.630   7.286 -0.0556 -0.0872 -0.4635
 4193TIP3    H136774   6.505   2.641   7.379  0.5107 -0.4888 -0.2980
 4193TIP3    H236775   6.509   2.716   7.248  1.0230  0.4134  0.2293
 4194TIP3   OH236776   1.615   4.687   6.863  0.2793  0.4536 -0.0790
 4194TIP3    H136777   1.620   4.768   6.915 -1.7137  1.1164 -0.8228
 4194TIP3    H236778   1.601   4.717   6.773  1.5999 -0.7222 -0.7065
 4195TIP3   OH236779   0.299   2.642   7.571 -0.7352 -0.0206 -0.1307
 4195TIP3    H136780   0.239   2.653   7.645  0.0043 -0.5905  0.5852
 4195TIP3    H236781   0.289   2.551   7.546 -0.5612  0.0192 -0.3457
 4196TIP3   OH236782   6.417   1.553   8.490  0.0797  0.3448 -0.2342
 4196TIP3    H136783   6.488   1.494   8.514 -0.2974 -0.9428 -2.0444
 4196TIP3    H236784   6.339   1.516   8.531 -0.0843 -0.1963 -1.0131
 4197TIP3   OH236785   3.119   6.791   6.969 -0.0555 -0.5134 -0.1373
 4197TIP3    H136786   3.043   6.787   6.912  1.4028  0.6761 -2.3168
 4197TIP3    H236787   3.194   6.790   6.910  1.6021 -0.1820  1.8221
 4198TIP3   OH236788   6.122   0.287   8.699  0.4131 -0.5680 -0.4018
 4198TIP3    H136789   6.086   0.245   8.777  0.2531  0.2401 -0.0277
 4198TIP3    H236790   6.045   0.321   8.653  0.5606 -0.4450 -0.5565
 4199TIP3   OH236791   7.550   3.829   7.651  0.2078 -0.9759 -0.0996
 4199TIP3    H136792   7.507   3.861   7.571 -1.6094 -3.1624 -0.1004
 4199TIP3    H236793   7.526   3.894   7.717 -0.0140 -0.2189 -0.8924
 4200TIP3   OH236794   5.430   1.379   8.701  0.0237  0.4837  0.2824
 4200TIP3    H136795   5.507   1.432   8.680  0.8576 -0.3130  1.1892
 4200TIP3    H236796   5.375   1.436   8.755  0.1744  0.9276 -0.0356
 4201TIP3   OH236797   7.621   3.620   6.630 -0.0537 -0.0302 -0.2605
 4201TIP3    H136798   7.679   3.621   6.554  0.6666 -0.5743  0.2756
 4201TIP3    H236799   7.651   3.692   6.685  1.0350 -1.1342  0.6688
 4202TIP3   OH236800   5.601   6.258   7.474 -0.0412  0.3936 -0.3261
 4202TIP3    H136801   5.646   6.220   7.398  0.4002  0.0073  0.1192
 4202TIP3    H236802   5.514   6.281   7.441 -0.4051 -1.1982 -0.5778
 4203TIP3   OH236803   4.166   5.639   6.521 -0.2705 -0.1116 -0.3305
 4203TIP3    H136804   4.152   5.623   6.428  1.2549 -0.1926 -0.5632
 4203TIP3    H236805   4.247   5.690   6.525 -1.0544  1.1148  0.8711
 4204TIP3   OH236806   4.075   7.284   8.754 -0.5668  0.1126  0.2083
 4204TIP3    H136807   4.131   7.227   8.807 -0.9259  0.0199  0.4906
 4204TIP3    H236808   4.029   7.224   8.694  0.2387  0.2696 -0.5866
 4205TIP3   OH236809   1.365   0.656   8.562 -0.3982  0.4643  0.0608
 4205TIP3    H136810   1.414   0.590   8.513  1.2844  0.2633  1.8870
 4205TIP3    H236811   1.389   0.739   8.521 -0.3694  0.1735 -0.5266
 4206TIP3   OH236812   3.446   1.336   8.915 -0.1898  0.3963  0.0667
 4206TIP3    H136813   3.446   1.367   8.825 -0.0471  0.3215  0.0413
 4206TIP3    H236814   3.376   1.271   8.918  0.0040  0.1775 -0.0680
 4207TIP3   OH236815   0.586   3.583   9.636  0.5125 -0.6875 -0.1432
 4207TIP3    H136816   0.668   3.616   9.672 -0.1373 -0.0988  0.8303
 4207TIP3    H236817   0.611   3.503   9.590  1.6334 -0.4984  0.0978
 4208TIP3   OH236818   5.261   2.956   8.284 -0.0025  0.2173  0.3075
 4208TIP3    H136819   5.227   3.029   8.336  0.3562  0.8501 -0.3328
 4208TIP3    H236820   5.343   2.932   8.328  0.7546  1.3389 -0.4717
 4209TIP3   OH236821   5.962   6.643   8.854  0.2856  0.0924  0.1080
 4209TIP3    H136822   6.043   6.643   8.905  1.7272 -3.0472 -1.8629
 4209TIP3    H236823   5.895   6.613   8.914  0.7874  1.5195  1.4518
 4210TIP3   OH236824   4.090   5.980   6.467  0.0976  0.5706  0.5135
 4210TIP3    H136825   4.001   6.016   6.471  0.4139  1.5431 -0.7345
 4210TIP3    H236826   4.137   6.038   6.407  2.0753  1.1303  2.4669
 4211TIP3   OH236827   3.213   6.945   7.636  0.1148 -0.5394 -0.0609
 4211TIP3    H136828   3.298   6.986   7.654  0.4011 -1.1445  0.0022
 4211TIP3    H236829   3.166   7.009   7.582  1.2069 -0.8132 -1.3966
 4212TIP3   OH236830   2.595   0.046   8.146 -0.1750  0.1853  0.3512
 4212TIP3    H136831   2.526   0.003   8.197 -0.6217 -1.2412 -1.3508
 4212TIP3    H236832   2.640   0.102   8.209 -1.3379 -0.7025  2.0540
 4213TIP3   OH236833   1.653   6.109   7.695 -0.0226  0.2651  0.0655
 4213TIP3    H136834   1.732   6.159   7.673  0.6199  0.4623  2.5338
 4213TIP3    H236835   1.686   6.022   7.719 -0.1986  0.9453  3.1776
 4214TIP3   OH236836   4.254   6.634   8.356  0.6728  0.6240 -0.0225
 4214TIP3    H136837   4.315   6.637   8.283 -0.3717  0.7823 -0.9131
 4214TIP3    H236838   4.265   6.719   8.399 -0.4893  1.5991 -1.5284
 4215TIP3   OH236839   1.638   2.843   7.693  0.3568 -0.8014 -0.3736
 4215TIP3    H136840   1.730   2.821   7.703  0.4779 -1.0187 -1.7824
 4215TIP3    H236841   1.633   2.887   7.608 -0.9571 -1.5178 -0.6893
 4216TIP3   OH236842   6.238   1.529   8.186 -0.1022  0.3165 -0.0673
 4216TIP3    H136843   6.324   1.511   8.148 -0.4232  0.4112 -0.8581
 4216TIP3    H236844   6.256   1.592   8.256  0.3533  1.2699 -1.0012
 4217TIP3   OH236845   6.986   3.705   8.803  0.4636 -0.2514  0.6337
 4217TIP3    H136846   6.920   3.746   8.859  2.6257  1.3486  2.1759
 4217TIP3    H236847   6.941   3.693   8.719 -2.4338 -1.3281  2.1964
 4218TIP3   OH236848   0.047   4.147   7.641 -0.1212 -0.0553  0.0331
 4218TIP3    H136849   0.121   4.128   7.584 -0.0332 -0.5419  0.2965
 4218TIP3    H236850   0.003   4.222   7.601 -0.2571 -0.5899 -0.8555
 4219TIP3   OH236851   0.193   0.912   9.220  0.2955 -0.3892  0.5008
 4219TIP3    H136852   0.280   0.942   9.246 -0.7124  0.3880  3.3458
 4219TIP3    H236853   0.167   0.971   9.150  0.9309  1.2782  1.6142
 4220TIP3   OH236854   1.992   3.155   6.428  0.3034 -0.1042 -0.1004
 4220TIP3    H136855   2.007   3.060   6.436  1.6254 -0.1134 -2.0074
 4220TIP3    H236856   1.901   3.167   6.456  0.0937 -1.9465  0.1454
 4221TIP3   OH236857   3.568   7.485   7.102  0.6697  0.5391  0.2079
 4221TIP3    H136858   3.532   7.421   7.163  2.8402 -0.7327  0.2669
 4221TIP3    H236859   3.622   7.543   7.156  2.0885 -0.2048 -0.3424
 4222TIP3   OH236860   6.481   0.696   6.883 -0.4254  0.1110 -0.8183
 4222TIP3    H136861   6.525   0.615   6.909 -0.5307 -0.1811 -1.5523
 4222TIP3    H236862   6.542   0.765   6.911 -0.8919 -0.1361  0.9345
 4223TIP3   OH236863   6.231   3.495   9.128 -0.0832 -0.2917 -0.1388
 4223TIP3    H136864   6.196   3.422   9.178  0.4061 -0.9521 -0.7427
 4223TIP3    H236865   6.229   3.569   9.189  1.2681 -1.2515  1.1377
 4224TIP3   OH236866   6.178   0.905   8.044 -0.2735  0.1973 -0.2821
 4224TIP3    H136867   6.236   0.973   8.011  0.1193  0.6821  1.3153
 4224TIP3    H236868   6.216   0.823   8.011  1.0392  0.5488  0.2888
 4225TIP3   OH236869   2.487   1.282   9.565  0.3098 -0.1478  0.1935
 4225TIP3    H136870   2.556   1.341   9.594  0.5813 -0.9135  1.1305
 4225TIP3    H236871   2.443   1.330   9.495  1.6620  0.4266 -0.2945
 4226TIP3   OH236872   2.693   1.117   9.722 -0.7243 -0.4717  0.5614
 4226TIP3    H136873   2.727   1.179   9.786 -2.2819 -0.0044  0.9770
 4226TIP3    H236874   2.638   1.169   9.664 -1.2099 -1.2764  0.2751
 4227TIP3   OH236875   7.363   7.130   6.824 -0.0306  0.2307  0.5576
 4227TIP3    H136876   7.377   7.189   6.898  0.8471  1.6451 -0.6674
 4227TIP3    H236877   7.269   7.132   6.809  0.1386  3.2893 -0.8935
 4228TIP3   OH236878   3.802   7.129   8.985  0.3134  0.0392 -0.0431
 4228TIP3    H136879   3.748   7.162   9.057 -0.6994 -0.9288 -0.3291
 4228TIP3    H236880   3.813   7.204   8.927 -1.7242  0.0036 -0.5619
 4229TIP3   OH236881   2.364   7.246   7.577  0.7934  0.4206 -0.2455
 4229TIP3    H136882   2.386   7.339   7.584 -0.5073  0.6710  1.1026
 4229TIP3    H236883   2.277   7.245   7.537  0.7854 -0.2206 -0.2212
 4230TIP3   OH236884   5.908   3.593   7.627  0.4686  0.3088  0.3663
 4230TIP3    H136885   5.944   3.554   7.706  1.5801  0.2631 -0.1383
 4230TIP3    H236886   5.918   3.687   7.639  0.4098  0.3126  0.3850
 4231TIP3   OH236887   0.954   7.542   7.657  0.4641 -0.4843 -0.1476
 4231TIP3    H136888   0.964   7.515   7.565  0.6152 -0.9618  0.0051
 4231TIP3    H236889   1.000   7.626   7.662  0.0941 -0.2494 -0.6040
 4232TIP3   OH236890   1.284   2.254   7.366  0.5413  0.6466  0.1110
 4232TIP3    H136891   1.221   2.322   7.387  0.0506 -0.1738  1.4278
 4232TIP3    H236892   1.273   2.239   7.272 -0.5632  1.1733  0.1417
 4233TIP3   OH236893   7.569   5.029   9.155  0.0961  0.2196  0.3346
 4233TIP3    H136894   7.635   4.967   9.187 -0.0730 -0.2624 -0.2339
 4233TIP3    H236895   7.489   4.978   9.150 -0.1810  0.6432  0.4364
 4234TIP3   OH236896   0.413   1.193   6.855 -0.4399  0.6120 -0.1207
 4234TIP3    H136897   0.391   1.285   6.867 -1.8973  0.7581 -2.9510
 4234TIP3    H236898   0.337   1.157   6.808  0.5162 -1.8022  0.0498
 4235TIP3   OH236899   2.930   5.404   7.795 -0.5572 -0.0493 -0.3321
 4235TIP3    H136900   2.935   5.447   7.710  0.3585 -0.3638 -0.4508
 4235TIP3    H236901   2.926   5.475   7.859 -0.7550  0.1901 -0.6126
 4236TIP3   OH236902   2.014   7.031   7.154 -0.4906 -0.2802  0.3880
 4236TIP3    H136903   2.096   7.045   7.202 -0.6691  2.6657 -0.0311
 4236TIP3    H236904   1.945   7.050   7.217 -0.8932 -1.7789  0.4474
 4237TIP3   OH236905   2.617   0.266   7.708 -0.1743  0.4694  0.1438
 4237TIP3    H136906   2.664   0.284   7.790 -0.2283  0.1670  0.2451
 4237TIP3    H236907   2.527   0.291   7.726 -1.0249 -2.8884  1.4414
 4238TIP3   OH236908   0.226   0.437   8.184 -0.0304  0.1321 -0.0154
 4238TIP3    H136909   0.287   0.505   8.157 -1.1845  1.3701  0.3857
 4238TIP3    H236910   0.262   0.405   8.267  1.5524 -1.1551 -1.1227
 4239TIP3   OH236911   1.851   2.782   6.522  0.2059 -0.5311 -0.3586
 4239TIP3    H136912   1.904   2.753   6.596 -0.5518  0.9372  0.8144
 4239TIP3    H236913   1.880   2.872   6.504 -0.3172 -0.5119 -1.1993
 4240TIP3   OH236914   0.743   3.874   7.990  0.3148  0.0374 -0.0439
 4240TIP3    H136915   0.765   3.870   7.897  1.2251 -1.9128  0.2008
 4240TIP3    H236916   0.806   3.936   8.026  0.6832 -0.0296 -0.5563
 4241TIP3   OH236917   3.108   5.886   6.958 -0.0818 -0.2198 -0.2330
 4241TIP3    H136918   3.103   5.950   6.888  1.7371  0.7339  0.4619
 4241TIP3    H236919   3.188   5.908   7.006 -1.5833 -0.3835  2.5698
 4242TIP3   OH236920   4.305   0.756   8.438 -0.2261 -0.1549  0.2847
 4242TIP3    H136921   4.392   0.775   8.474  1.1707 -0.7244 -2.5218
 4242TIP3    H236922   4.294   0.662   8.451 -1.0092  0.1071  1.7150
 4243TIP3   OH236923   6.507   7.459   8.805 -0.6406  0.2810 -0.4204
 4243TIP3    H136924   6.530   7.367   8.807  0.1512  0.4744 -0.4579
 4243TIP3    H236925   6.551   7.498   8.881 -2.0553  0.3968  0.3901
 4244TIP3   OH236926   2.252   6.889   9.311  0.1118 -0.3128  0.0228
 4244TIP3    H136927   2.219   6.968   9.353  1.6010  0.1434  0.4239
 4244TIP3    H236928   2.293   6.921   9.230  2.3948 -0.3570  1.0900
 4245TIP3   OH236929   5.918   4.261   9.165  0.7101 -0.1130 -0.0349
 4245TIP3    H136930   5.870   4.180   9.148  1.1790 -0.0759 -1.6198
 4245TIP3    H236931   5.976   4.272   9.090  0.4118  1.8751 -0.0238
 4246TIP3   OH236932   5.562   1.753   8.956 -0.5927 -0.8767 -0.3217
 4246TIP3    H136933   5.555   1.830   8.901 -1.9444 -0.3769  0.5057
 4246TIP3    H236934   5.656   1.734   8.960 -0.2245  0.8145 -0.4062
 4247TIP3   OH236935   4.448   5.564   7.082 -0.0319  0.3438 -0.3018
 4247TIP3    H136936   4.449   5.470   7.063 -0.9286  0.0049  1.2498
 4247TIP3    H236937   4.386   5.600   7.018 -0.0616 -0.1845 -0.5811
 4248TIP3   OH236938   5.881   6.173   9.269  0.7144  0.2813 -0.4578
 4248TIP3    H136939   5.888   6.264   9.298  0.7414  0.5682 -1.3537
 4248TIP3    H236940   5.788   6.152   9.279  0.9783 -0.2164  1.5261
 4249TIP3   OH236941   1.854   3.958   7.898  0.3909  0.2039 -0.0002
 4249TIP3    H136942   1.811   3.890   7.845  0.2963  1.5603 -1.7655
 4249TIP3    H236943   1.907   3.910   7.961 -0.7790 -1.5060 -0.2511
 4250TIP3   OH236944   0.303   2.373   7.581 -0.1180  0.2328 -0.4867
 4250TIP3    H136945   0.388   2.385   7.624 -0.2579 -0.1563 -0.0911
 4250TIP3    H236946   0.274   2.286   7.609 -0.7129  0.4192 -0.5034
 4251TIP3   OH236947   4.080   1.644   9.375  0.0570  0.5683  0.5832
 4251TIP3    H136948   4.074   1.714   9.440  0.1558 -0.6612  1.9877
 4251TIP3    H236949   3.992   1.638   9.338  0.0841  1.5059  0.3394
 4252TIP3   OH236950   7.235   1.740   9.489  0.4212 -0.6077  0.1165
 4252TIP3    H136951   7.281   1.742   9.573  0.2282  0.4408  0.2035
 4252TIP3    H236952   7.165   1.675   9.501  0.8355 -0.9866  0.5241
 4253TIP3   OH236953   0.418   1.637   8.464 -0.1847  0.3436 -0.5517
 4253TIP3    H136954   0.332   1.624   8.504  1.1936  0.2608  2.6593
 4253TIP3    H236955   0.474   1.570   8.503  1.0875 -0.6620 -3.7568
 4254TIP3   OH236956   2.115   5.175   8.827  1.0351  0.0668  0.4901
 4254TIP3    H136957   2.078   5.147   8.911 -0.2132  0.3032  0.0405
 4254TIP3    H236958   2.209   5.159   8.836  0.6599 -2.2272  1.0601
 4255TIP3   OH236959   4.872   2.035   7.599  0.0882  0.1971 -0.2491
 4255TIP3    H136960   4.876   2.077   7.513 -3.8100 -0.2928 -0.8455
 4255TIP3    H236961   4.852   2.106   7.660 -0.2630  0.1208 -0.2711
 4256TIP3   OH236962   1.379   6.697   7.380  0.3879 -0.4689 -0.2877
 4256TIP3    H136963   1.458   6.750   7.372 -0.4926  0.9068 -0.2756
 4256TIP3    H236964   1.375   6.647   7.299  0.5492  0.4870 -0.8992
 4257TIP3   OH236965   7.547   1.054   7.110 -0.1042  0.6569 -0.0021
 4257TIP3    H136966   7.504   1.026   7.029  3.8955  1.2098 -2.5723
 4257TIP3    H236967   7.558   0.973   7.160 -0.0585 -0.2129 -1.3630
 4258TIP3   OH236968   0.185   7.016   7.870  0.1859  0.2449 -1.2888
 4258TIP3    H136969   0.141   7.010   7.786  1.2638  2.0850 -2.0460
 4258TIP3    H236970   0.115   7.036   7.933 -0.6320 -1.1978 -1.7053
 4259TIP3   OH236971   6.874   3.313   9.385 -0.4687 -0.7822  0.2399
 4259TIP3    H136972   6.871   3.266   9.302  1.1619 -0.5116 -0.0172
 4259TIP3    H236973   6.893   3.246   9.450  0.4923 -0.6977  0.0628
 4260TIP3   OH236974   2.319   4.547   8.985 -0.5123  0.0352  0.0657
 4260TIP3    H136975   2.372   4.599   9.045  0.3621 -0.0849 -0.5782
 4260TIP3    H236976   2.380   4.483   8.948 -0.1756  2.0255 -3.2758
 4261TIP3   OH236977   4.383   2.429   8.943  0.5488 -0.4084  0.1726
 4261TIP3    H136978   4.305   2.421   8.998  0.3074 -0.8709 -0.2277
 4261TIP3    H236979   4.382   2.350   8.889  0.8211  0.0053 -0.4486
 4262TIP3   OH236980   6.623   4.396   8.097 -0.3011  0.0940 -0.4450
 4262TIP3    H136981   6.588   4.402   8.186  3.7103  0.0004  1.3455
 4262TIP3    H236982   6.633   4.487   8.070  1.1560  0.2248  0.4505
 4263TIP3   OH236983   3.032   0.969   7.629  0.0848  0.1488  0.4756
 4263TIP3    H136984   3.026   1.044   7.570  1.0303  0.4000  0.6889
 4263TIP3    H236985   3.047   0.894   7.570  0.1238  0.2651  0.3366
 4264TIP3   OH236986   5.020   1.858   8.082  0.2467  0.9348 -0.0625
 4264TIP3    H136987   5.018   1.880   8.176 -0.8651  1.2395 -0.1358
 4264TIP3    H236988   5.046   1.766   8.080  1.6863  1.2972  0.4498
 4265TIP3   OH236989   7.509   6.306   8.950  0.8400  0.0938  0.3936
 4265TIP3    H136990   7.501   6.248   9.025  0.3842 -0.0036  0.2735
 4265TIP3    H236991   7.596   6.346   8.959  1.4818 -1.1879  0.0620
 4266TIP3   OH236992   1.657   7.674   8.116 -0.3429 -0.0873  0.1026
 4266TIP3    H136993   1.713   7.603   8.083 -0.9920 -0.3300 -0.5353
 4266TIP3    H236994   1.714   7.728   8.170  0.3793 -0.6042 -0.1315
 4267TIP3   OH236995   5.935   4.913   8.913 -0.3278 -0.0928 -0.1749
 4267TIP3    H136996   5.967   4.823   8.917  0.6012  0.2267 -0.1547
 4267TIP3    H236997   5.925   4.939   9.004  0.7312  0.2707 -0.1510
 4268TIP3   OH236998   3.848   6.528   9.269  0.0382  0.0809 -0.2659
 4268TIP3    H136999   3.923   6.497   9.217 -0.0306 -1.4486  0.4778
 4268TIP3    H237000   3.813   6.448   9.308  1.0476  1.2621  3.4510
 4269TIP3   OH237001   4.233   7.347   8.220 -0.0218  0.8662 -0.1918
 4269TIP3    H137002   4.317   7.301   8.212  0.3021  1.1717  1.1674
 4269TIP3    H237003   4.218   7.385   8.134  0.5448 -0.3546 -0.8527
 4270TIP3   OH237004   5.010   6.124   7.827  0.0793  0.0954 -0.1198
 4270TIP3    H137005   5.026   6.068   7.903  0.3887  0.2231 -0.0916
 4270TIP3    H237006   4.973   6.064   7.762 -0.2589  0.0015  0.1526
 4271TIP3   OH237007   7.040   3.964   6.772 -0.5349  0.0729  0.3244
 4271TIP3    H137008   7.065   3.953   6.680  0.1145  1.4830  0.3017
 4271TIP3    H237009   7.116   4.005   6.813 -1.1276  0.2416  1.3026
 4272TIP3   OH237010   6.149   2.723   7.619  0.4322  0.1556  0.4550
 4272TIP3    H137011   6.144   2.649   7.558 -0.3994 -0.1302  0.8421
 4272TIP3    H237012   6.057   2.748   7.632  0.6594  0.7382  0.9591
 4273TIP3   OH237013   0.930   5.926   7.975  0.2003  0.3208 -0.0231
 4273TIP3    H137014   0.857   5.967   7.929 -0.3604 -1.0202 -0.3577
 4273TIP3    H237015   0.940   5.979   8.055  0.2909  1.8190 -0.9911
 4274TIP3   OH237016   6.603   4.660   7.989 -0.3241 -0.9362  0.4663
 4274TIP3    H137017   6.522   4.707   8.013 -0.4300 -0.5140 -0.6264
 4274TIP3    H237018   6.670   4.728   7.988 -0.2068 -1.0566  0.1739
 4275TIP3   OH237019   5.006   2.209   6.911  0.2556  0.5585 -0.0729
 4275TIP3    H137020   5.000   2.284   6.852  1.5641  1.4063  0.8315
 4275TIP3    H237021   4.924   2.161   6.897 -1.1919  2.8070  0.2039
 4276TIP3   OH237022   4.532   0.043   8.431  0.5657  0.0592 -0.7064
 4276TIP3    H137023   4.437   0.047   8.418  0.0845 -1.2249  1.9308
 4276TIP3    H237024   4.554   0.126   8.474  0.8122  0.6904 -1.9961
 4277TIP3   OH237025   2.527   3.033   8.846 -0.1905  0.1287  0.3646
 4277TIP3    H137026   2.620   3.018   8.830 -0.5346 -2.1627  0.2050
 4277TIP3    H237027   2.514   3.012   8.938 -0.8000 -1.1180  0.0137
 4278TIP3   OH237028   6.816   3.927   8.006  0.5142 -0.5858 -0.9171
 4278TIP3    H137029   6.738   3.874   7.987  1.0923 -0.8942 -2.5908
 4278TIP3    H237030   6.874   3.868   8.054 -0.0830 -0.4795 -0.0289
 4279TIP3   OH237031   0.532   6.921   9.040  0.3180 -0.4635 -0.4729
 4279TIP3    H137032   0.491   6.983   9.100 -1.0816 -2.4623  0.7599
 4279TIP3    H237033   0.523   6.963   8.954 -0.8608  0.9084  0.2585
 4280TIP3   OH237034   0.139   2.533   9.245 -0.2328 -0.7876  0.0699
 4280TIP3    H137035   0.173   2.585   9.318 -0.0562  0.0359 -0.5758
 4280TIP3    H237036   0.198   2.459   9.237  1.4092  0.5769 -0.9875
 4281TIP3   OH237037   5.462   0.960   6.742  0.4400 -0.4897 -0.1325
 4281TIP3    H137038   5.516   1.031   6.708 -0.9474  0.8622  0.4078
 4281TIP3    H237039   5.375   0.976   6.707 -0.4356 -0.5537  1.8736
 4282TIP3   OH237040   3.123   2.574   9.542 -0.2147 -0.1499 -0.4825
 4282TIP3    H137041   3.032   2.577   9.511 -0.5163  0.5642  0.4332
 4282TIP3    H237042   3.146   2.481   9.538 -1.0898 -0.3814 -0.4360
 4283TIP3   OH237043   1.745   2.431   8.808  0.2242 -0.6961  0.2370
 4283TIP3    H137044   1.766   2.497   8.741  0.4004 -1.0994 -0.1117
 4283TIP3    H237045   1.698   2.479   8.876  0.1093 -0.2643 -0.1450
 4284TIP3   OH237046   4.782   7.456   7.075  0.2847  0.1722 -0.0969
 4284TIP3    H137047   4.807   7.547   7.088 -1.7039  0.5060  1.8885
 4284TIP3    H237048   4.851   7.405   7.118  0.1744  0.8312  0.8678
 4285TIP3   OH237049   1.123   2.739   6.625  0.0931 -0.2352  0.1986
 4285TIP3    H137050   1.141   2.656   6.669 -1.3953 -0.8783 -0.3236
 4285TIP3    H237051   1.037   2.765   6.658  0.1629  0.6639 -0.2953
 4286TIP3   OH237052   6.634   7.597   9.502  0.1035 -0.1149 -0.2159
 4286TIP3    H137053   6.699   7.657   9.467 -0.7781  1.0152  0.0329
 4286TIP3    H237054   6.550   7.638   9.481 -0.5047 -1.0444  0.3479
 4287TIP3   OH237055   0.020   7.410   8.037  0.1659 -0.3315  0.1279
 4287TIP3    H137056   0.002   7.324   8.002 -1.0684 -0.1032  0.1810
 4287TIP3    H237057  -0.014   7.471   7.972  2.1835  0.1627 -0.5340
 4288TIP3   OH237058   6.828   4.002   8.563 -0.5226 -0.5758 -0.0609
 4288TIP3    H137059   6.825   3.906   8.555  0.4186 -0.5507 -0.9649
 4288TIP3    H237060   6.879   4.030   8.487 -1.3707  0.7049 -0.1704
 4289TIP3   OH237061   6.841   3.103   7.676  0.1713  0.0911  0.1835
 4289TIP3    H137062   6.875   3.030   7.726  2.6862  1.4896  0.6758
 4289TIP3    H237063   6.850   3.179   7.734 -0.2132  1.1705 -1.0956
 4290TIP3   OH237064   2.553   4.659   8.842 -0.2666 -0.0764 -0.1816
 4290TIP3    H137065   2.520   4.619   8.922 -0.1143  0.9046  0.3798
 4290TIP3    H237066   2.642   4.625   8.833  1.0700  2.5517  2.0529
 4291TIP3   OH237067   3.813   0.887   9.407  0.2784 -0.6974 -0.0759
 4291TIP3    H137068   3.824   0.890   9.502  0.3048  2.1190 -0.0827
 4291TIP3    H237069   3.893   0.848   9.375  1.4535  0.7303  0.9743
 4292TIP3   OH237070   5.751   4.867   8.548 -0.2490 -0.4025 -0.3267
 4292TIP3    H137071   5.721   4.908   8.629  0.2878 -0.1535 -0.2473
 4292TIP3    H237072   5.801   4.791   8.576  0.3010 -0.0743 -0.4043
 4293TIP3   OH237073   2.015   3.895   6.692  0.3785 -0.0418 -0.3712
 4293TIP3    H137074   1.947   3.939   6.642  1.4991  2.2210 -0.0336
 4293TIP3    H237075   2.095   3.910   6.642  0.5876 -3.6681 -1.3947
 4294TIP3   OH237076   6.337   7.553   7.630  0.8817  0.5319  0.0132
 4294TIP3    H137077   6.280   7.477   7.623 -0.7217  1.7757 -0.8839
 4294TIP3    H237078   6.382   7.557   7.546  2.2888 -0.3826  0.6787
 4295TIP3   OH237079   7.636   1.610   7.709 -0.1140  0.0348 -0.2995
 4295TIP3    H137080   7.710   1.613   7.770 -0.3234 -2.8142  0.2271
 4295TIP3    H237081   7.619   1.516   7.697 -1.6210  0.5509 -2.8968
 4296TIP3   OH237082   4.762   7.439   7.944 -0.2355 -0.1131 -0.1830
 4296TIP3    H137083   4.802   7.415   8.027  0.0292  1.2998  0.1241
 4296TIP3    H237084   4.829   7.419   7.878 -0.6762 -1.8309 -0.1717
 4297TIP3   OH237085   5.635   5.542   8.693 -0.0346  0.4571 -0.1975
 4297TIP3    H137086   5.567   5.571   8.754  1.8049  0.3105  2.0613
 4297TIP3    H237087   5.612   5.451   8.673  0.9233 -0.5517  2.8296
 4298TIP3   OH237088   5.770   6.402   9.317  0.3786 -0.1957 -0.2862
 4298TIP3    H137089   5.796   6.485   9.357  2.1051 -0.4851 -0.7206
 4298TIP3    H237090   5.675   6.408   9.307  0.1125  0.5648  2.2589
 4299TIP3   OH237091   6.657   1.105   7.939  0.1388 -0.3738  0.7522
 4299TIP3    H137092   6.677   1.106   7.845 -0.2172 -0.3633  0.6761
 4299TIP3    H237093   6.742   1.117   7.981  0.0260  2.4492  0.3963
 4300TIP3   OH237094   6.034   2.548   7.939  0.1997 -0.1019 -0.0762
 4300TIP3    H137095   5.991   2.491   7.875  0.3475 -1.2464  0.8147
 4300TIP3    H237096   6.128   2.532   7.926  0.2916  0.7416 -0.5268
 4301TIP3   OH237097   3.666   1.156   9.546  0.5058  0.4439  0.6319
 4301TIP3    H137098   3.598   1.219   9.521 -1.5129 -2.3134 -1.3871
 4301TIP3    H237099   3.738   1.173   9.485  0.4507  1.4519  0.8287
 4302TIP3   OH237100   4.248   5.926   6.688 -0.9271  0.2970  0.0017
 4302TIP3    H137101   4.185   5.932   6.616 -0.9616  2.3310  0.1445
 4302TIP3    H237102   4.326   5.972   6.656  0.2507 -1.5049  0.1216
 4303TIP3   OH237103   4.841   3.329   7.004  0.0302 -0.4153 -0.4389
 4303TIP3    H137104   4.924   3.315   6.960  0.1541  0.5701 -0.5403
 4303TIP3    H237105   4.860   3.396   7.070 -0.9465  0.7781 -1.3122
 4304TIP3   OH237106   4.670   0.671   7.865 -0.0238 -0.5325 -0.4655
 4304TIP3    H137107   4.684   0.760   7.900 -2.4112 -0.3220  0.1175
 4304TIP3    H237108   4.732   0.664   7.793  1.0837  1.1468  0.2499
 4305TIP3   OH237109   0.773   6.624   7.835 -0.0345 -0.0907 -0.4235
 4305TIP3    H137110   0.835   6.552   7.820 -0.0007 -0.4895  1.4184
 4305TIP3    H237111   0.748   6.652   7.747  1.1354 -1.3284 -1.1968
 4306TIP3   OH237112   3.460   6.361   8.430  0.2366 -0.2314  0.3629
 4306TIP3    H137113   3.439   6.280   8.476 -0.2203  0.5468  1.5734
 4306TIP3    H237114   3.549   6.349   8.398 -0.1636 -1.5829 -0.3456
 4307TIP3   OH237115   7.118   3.258   8.202  0.1072  0.2107 -0.2902
 4307TIP3    H137116   7.074   3.215   8.276  0.6805 -0.6153 -0.4212
 4307TIP3    H237117   7.147   3.342   8.238 -1.0168  0.5166 -0.0261
 4308TIP3   OH237118   2.708   4.984   7.839 -0.1879 -0.4690  0.4324
 4308TIP3    H137119   2.669   4.908   7.883 -0.0701 -1.3969 -1.0103
 4308TIP3    H237120   2.655   4.996   7.761  1.8711 -1.2681 -1.1825
 4309TIP3   OH237121   4.429   2.576   7.862  0.0522 -0.0344  0.0170
 4309TIP3    H137122   4.340   2.553   7.889  0.0230 -2.1073 -1.6352
 4309TIP3    H237123   4.422   2.590   7.768  1.2354  1.3271  0.0913
 4310TIP3   OH237124   1.537   4.887   6.677 -0.2258 -0.0336 -0.2019
 4310TIP3    H137125   1.442   4.898   6.680 -0.1727  0.1275  1.6647
 4310TIP3    H237126   1.572   4.976   6.682  0.0754  0.1426 -3.2833
 4311TIP3   OH237127   0.777   6.404   9.088 -0.2046 -0.3758 -0.0656
 4311TIP3    H137128   0.809   6.381   9.175  1.3521 -2.5353 -1.1098
 4311TIP3    H237129   0.716   6.334   9.065 -0.3765  0.0102 -0.8214
 4312TIP3   OH237130   2.142   3.825   7.167 -0.0287 -0.2795  0.1356
 4312TIP3    H137131   2.066   3.799   7.220 -2.1291  0.0165 -2.5477
 4312TIP3    H237132   2.137   3.920   7.163  1.1697 -0.1654  0.7890
 4313TIP3   OH237133   2.686   5.826   9.160  0.2404  0.4174  0.5038
 4313TIP3    H137134   2.662   5.762   9.092 -0.9685 -1.0068  2.1909
 4313TIP3    H237135   2.689   5.909   9.113  0.0478 -0.5819 -1.4184
 4314TIP3   OH237136   7.336   4.486   7.557  0.3359  0.1684  0.0127
 4314TIP3    H137137   7.279   4.556   7.526 -1.9025 -1.3465  0.4800
 4314TIP3    H237138   7.303   4.466   7.645  0.2330 -2.1328 -0.4961
 4315TIP3   OH237139   6.399   3.065   8.923 -0.2025 -0.2717 -0.0273
 4315TIP3    H137140   6.474   3.008   8.939 -0.2558 -0.3373 -0.0066
 4315TIP3    H237141   6.324   3.013   8.952 -0.1892  0.0876  0.6812
 4316TIP3   OH237142   5.749   3.048   6.918 -0.0843 -0.3331  0.1418
 4316TIP3    H137143   5.779   3.123   6.970  1.2955 -0.8951  0.1974
 4316TIP3    H237144   5.785   3.063   6.831 -3.2203  1.1179 -1.0416
 4317TIP3   OH237145   5.004   0.254   8.026 -0.5192  0.1059 -0.1785
 4317TIP3    H137146   5.034   0.345   8.034  0.2564 -0.1322 -0.2476
 4317TIP3    H237147   4.955   0.237   8.107 -0.6707  0.5874 -0.1695
 4318TIP3   OH237148   6.408   6.047   9.160  0.4189  0.1389 -0.6985
 4318TIP3    H137149   6.399   6.133   9.202  1.3082 -0.1379  0.0862
 4318TIP3    H237150   6.318   6.016   9.148  0.1235  0.7521 -0.0985
 4319TIP3   OH237151   4.933   7.483   8.395  0.3130  0.0811  0.2336
 4319TIP3    H137152   4.943   7.403   8.344  0.5705  0.8516 -0.9552
 4319TIP3    H237153   4.861   7.530   8.352  0.7455  0.8953  0.3864
 4320TIP3   OH237154   4.848   2.681   8.204  0.6798  0.3108  0.1277
 4320TIP3    H137155   4.907   2.755   8.221  0.6087  0.3477  0.2186
 4320TIP3    H237156   4.893   2.629   8.137 -0.2942  1.6264 -1.6228
 4321TIP3   OH237157   6.080   3.097   8.548  0.5002 -0.0016  0.1297
 4321TIP3    H137158   6.109   3.153   8.620 -1.4578 -0.4691  1.3464
 4321TIP3    H237159   6.121   3.012   8.565  0.1693 -0.0659  0.6236
 4322TIP3   OH237160   0.422   4.342   7.717 -0.0307 -0.1464  0.2127
 4322TIP3    H137161   0.490   4.406   7.698 -0.4895  1.4676  3.3405
 4322TIP3    H237162   0.345   4.373   7.671  0.2092  0.5536  0.2767
 4323TIP3   OH237163   3.177   2.510   8.003  0.4066 -0.8144  0.5690
 4323TIP3    H137164   3.206   2.508   8.094  1.8052  0.2963  0.1940
 4323TIP3    H237165   3.214   2.592   7.968  0.5609 -1.5949 -1.2033
 4324TIP3   OH237166   2.757   3.055   7.510  0.2529 -0.6312  0.6238
 4324TIP3    H137167   2.706   3.069   7.589 -1.3517 -0.9590 -0.3232
 4324TIP3    H237168   2.774   3.143   7.476  1.7122 -0.4305  1.7472
 4325TIP3   OH237169   1.594   4.102   7.306  0.3691  0.2458  0.5968
 4325TIP3    H137170   1.501   4.123   7.318 -0.2720 -2.4845  1.0049
 4325TIP3    H237171   1.638   4.187   7.309 -1.8464  1.4621  2.9972
 4326TIP3   OH237172   6.199   5.886   8.313  0.0421  0.0711 -0.2208
 4326TIP3    H137173   6.257   5.839   8.253 -0.5591 -0.5000 -0.3622
 4326TIP3    H237174   6.251   5.961   8.341  0.2249  0.5520 -1.7233
 4327TIP3   OH237175   6.943   1.483   8.961 -0.5297  0.3292  0.7167
 4327TIP3    H137176   6.939   1.452   9.052 -1.6040  0.3087  0.6725
 4327TIP3    H237177   6.931   1.404   8.908  1.6984  0.0737  0.4935
 4328TIP3   OH237178   6.757   0.146   9.182 -0.0827  0.3422  0.1451
 4328TIP3    H137179   6.671   0.184   9.202  1.0359  1.6254  3.1568
 4328TIP3    H237180   6.818   0.220   9.191  1.7606 -1.2976  2.3364
 4329TIP3   OH237181   3.010   0.431   8.694  0.0634 -0.4270  0.4709
 4329TIP3    H137182   3.100   0.461   8.683 -0.9961  3.1151  0.2774
 4329TIP3    H237183   2.968   0.447   8.610 -1.2206 -0.1147  1.1403
 4330TIP3   OH237184   1.960   5.060   6.730 -0.3749  0.4053 -0.1728
 4330TIP3    H137185   1.981   4.968   6.712  0.3185 -0.4166  3.8293
 4330TIP3    H237186   1.867   5.059   6.753  0.0576  0.2528  1.7451
 4331TIP3   OH237187   6.214   3.487   8.072 -0.1441 -0.6005  0.2949
 4331TIP3    H137188   6.201   3.497   8.167  2.8604 -0.9532  0.8374
 4331TIP3    H237189   6.273   3.559   8.048  0.6441 -1.5965 -0.9054
 4332TIP3   OH237190   0.236   6.266   9.378  0.2559 -0.1389  0.4238
 4332TIP3    H137191   0.291   6.344   9.372 -0.7114  0.6136  0.9727
 4332TIP3    H237192   0.147   6.300   9.376 -0.1779 -1.2492  0.5277
 4333TIP3   OH237193   1.612   3.614   8.279 -0.6320 -0.1511 -0.0897
 4333TIP3    H137194   1.556   3.548   8.320 -1.6860  1.2133  0.7325
 4333TIP3    H237195   1.678   3.563   8.232 -1.2453 -1.7849  0.7455
 4334TIP3   OH237196   0.020   1.754   7.484 -0.0371 -0.0251  0.1501
 4334TIP3    H137197  -0.018   1.733   7.569 -0.8398 -0.9192 -0.4152
 4334TIP3    H237198   0.009   1.675   7.432  1.0225  0.2961 -0.5943
 4335TIP3   OH237199   5.169   1.316   8.479  0.1749  0.2198 -0.0331
 4335TIP3    H137200   5.084   1.356   8.502 -0.0924 -0.0463 -0.5424
 4335TIP3    H237201   5.156   1.283   8.390  0.8410  0.2353 -0.1342
 4336TIP3   OH237202   6.736   5.499   7.067 -0.6329  0.2728 -0.1361
 4336TIP3    H137203   6.785   5.570   7.025 -0.4828  0.5778  0.5363
 4336TIP3    H237204   6.646   5.531   7.071 -0.5559  0.4516  0.2134
 4337TIP3   OH237205   7.576   7.166   7.934  1.2397 -0.3188 -0.7779
 4337TIP3    H137206   7.539   7.199   7.851  1.3365 -1.5151 -1.3109
 4337TIP3    H237207   7.512   7.101   7.964  0.9816  0.4179  0.3373
 4338TIP3   OH237208   7.674   1.338   7.679 -0.3337 -0.0387  0.0915
 4338TIP3    H137209   7.709   1.325   7.591 -0.8228  1.1313 -0.2916
 4338TIP3    H237210   7.707   1.263   7.729  0.3782 -0.4431 -0.9494
 4339TIP3   OH237211   1.672   1.957   8.377 -0.5261 -0.4985  0.3115
 4339TIP3    H137212   1.703   1.960   8.287 -1.7008 -1.5294 -0.1578
 4339TIP3    H237213   1.740   2.001   8.428 -0.8183  2.0412 -1.3286
 4340TIP3   OH237214   1.596   7.643   8.558 -0.2304 -0.4989  0.5356
 4340TIP3    H137215   1.603   7.582   8.484  2.3178 -1.1147  1.1725
 4340TIP3    H237216   1.648   7.602   8.627 -0.0401  1.4969  1.6349
 4341TIP3   OH237217   1.871   1.914   8.935 -0.3506 -0.3219 -0.1363
 4341TIP3    H137218   1.955   1.901   8.892 -0.2845 -1.9154  0.3936
 4341TIP3    H237219   1.865   2.008   8.948  1.0333 -0.1120 -0.7980
 4342TIP3   OH237220   3.118   0.232   9.684  0.5396  0.3564  0.5091
 4342TIP3    H137221   3.043   0.225   9.743 -1.0948  1.6129 -1.2980
 4342TIP3    H237222   3.127   0.326   9.669  0.8548  0.0758 -1.2631
 4343TIP3   OH237223   0.877   0.510   8.071 -0.1374 -0.4571  0.6723
 4343TIP3    H137224   0.869   0.601   8.100 -1.3100 -0.1125 -0.6035
 4343TIP3    H237225   0.971   0.498   8.055  0.0540  0.4586  1.0658
 4344TIP3   OH237226   7.252   7.480   9.455  0.4670 -0.0117  0.2356
 4344TIP3    H137227   7.275   7.528   9.534  0.4086  0.0347  0.2241
 4344TIP3    H237228   7.335   7.443   9.425  0.1954 -1.6658  1.3956
 4345TIP3   OH237229   5.884   1.808   9.222 -0.1322  0.1180 -0.5686
 4345TIP3    H137230   5.823   1.734   9.225 -0.8836  0.7167 -0.4684
 4345TIP3    H237231   5.828   1.883   9.202  0.8222  0.4495 -2.1251
 4346TIP3   OH237232   1.914   2.458   8.415  0.3962  0.3216 -0.2286
 4346TIP3    H137233   1.906   2.440   8.508 -0.8626  0.9125 -0.1872
 4346TIP3    H237234   1.964   2.540   8.410  1.9541 -0.5995 -0.1802
 4347TIP3   OH237235   1.305   2.834   8.553 -0.3399 -0.9442  0.1754
 4347TIP3    H137236   1.229   2.790   8.592 -4.1203  3.4666 -1.2803
 4347TIP3    H237237   1.331   2.899   8.618  0.3480 -0.5703 -0.4643
 4348TIP3   OH237238   4.633   3.302   8.965  0.5333 -0.5661  0.3931
 4348TIP3    H137239   4.575   3.365   9.006  0.1786 -0.6278 -0.0151
 4348TIP3    H237240   4.683   3.352   8.900  1.7208 -0.2822  1.4735
 4349TIP3   OH237241   3.568   0.434   8.251 -0.4231  0.3045  0.4391
 4349TIP3    H137242   3.547   0.527   8.260 -0.1228  0.4207 -0.0339
 4349TIP3    H237243   3.583   0.422   8.158  1.4736  0.2079  0.7128
 4350TIP3   OH237244   1.455   4.868   9.305 -0.5172  0.4637 -0.1165
 4350TIP3    H137245   1.363   4.870   9.332  0.0278  2.1520  1.8432
 4350TIP3    H237246   1.452   4.840   9.213 -2.7435 -2.1822  0.6259
 4351TIP3   OH237247   1.806   4.045   9.204 -0.0231  0.5893 -0.3776
 4351TIP3    H137248   1.860   4.123   9.188 -1.3288  1.7561  0.6362
 4351TIP3    H237249   1.725   4.079   9.242 -0.7602 -1.2587 -0.1734
 4352TIP3   OH237250   0.875   5.782   7.151 -0.4799 -0.1619  0.3738
 4352TIP3    H137251   0.936   5.713   7.176 -1.0824 -1.6854 -2.0842
 4352TIP3    H237252   0.925   5.839   7.093 -0.9719 -0.6230 -0.5195
 4353TIP3   OH237253   4.074   1.269   7.593 -0.2210 -0.0095  0.4189
 4353TIP3    H137254   4.051   1.361   7.579 -2.4645 -0.7498 -1.5711
 4353TIP3    H237255   4.124   1.244   7.515  0.2541 -0.5019  0.8757
 4354TIP3   OH237256   1.482   3.686   7.322  0.1384  0.2376 -0.0720
 4354TIP3    H137257   1.518   3.657   7.239 -0.1245  0.1620 -0.1616
 4354TIP3    H237258   1.413   3.748   7.298  0.0723  0.2275  0.0896
 4355TIP3   OH237259   3.362   3.499   7.833 -0.4536 -0.1022  0.4658
 4355TIP3    H137260   3.405   3.419   7.864  0.6758 -0.3630 -1.5985
 4355TIP3    H237261   3.408   3.570   7.879  0.9869 -0.4811 -0.3517
 4356TIP3   OH237262   1.299   6.855   8.949  0.1182 -0.3710  0.1054
 4356TIP3    H137263   1.360   6.927   8.931  0.9919 -1.3753 -1.1913
 4356TIP3    H237264   1.355   6.784   8.981  0.1522 -2.1700 -3.4371
 4357TIP3   OH237265   7.522   7.053   8.436 -0.1849 -0.2693 -0.0786
 4357TIP3    H137266   7.504   6.960   8.421  0.4123 -0.4132  0.0624
 4357TIP3    H237267   7.502   7.095   8.352  1.0793 -0.7695 -0.6661
 4358TIP3   OH237268   5.539   7.541   6.742 -0.7010 -0.5479  0.3238
 4358TIP3    H137269   5.455   7.508   6.708 -0.5903 -1.6697  1.0877
 4358TIP3    H237270   5.598   7.466   6.735  0.2241  0.2056 -0.1036
 4359TIP3   OH237271   7.375   3.501   6.589  0.0061  0.2925 -0.4467
 4359TIP3    H137272   7.449   3.556   6.614  0.0804 -0.1713  0.4008
 4359TIP3    H237273   7.308   3.562   6.559 -0.2454  0.9403  1.3319
 4360TIP3   OH237274   4.161   5.436   6.723  0.6491 -0.5543 -0.4129
 4360TIP3    H137275   4.167   5.475   6.636 -0.0702  0.6831  0.0687
 4360TIP3    H237276   4.252   5.427   6.751  1.0017 -2.6278 -1.9615
 4361TIP3   OH237277   6.715   6.392   7.085  0.7492  0.2364  0.1249
 4361TIP3    H137278   6.739   6.472   7.132  1.6573  0.7113 -1.1044
 4361TIP3    H237279   6.765   6.323   7.129  0.2565  0.3898  0.9454
 4362TIP3   OH237280   6.652   2.580   7.865 -0.1917 -0.5532  0.5990
 4362TIP3    H137281   6.707   2.531   7.803 -0.1033 -0.1067  0.3192
 4362TIP3    H237282   6.687   2.557   7.951  0.0103 -0.7861  0.4575
 4363TIP3   OH237283   5.836   3.162   8.285 -0.2101  0.4492 -0.6026
 4363TIP3    H137284   5.835   3.072   8.251  0.6818 -0.3165  1.2483
 4363TIP3    H237285   5.747   3.176   8.318 -0.2649  0.1294 -0.6118
 4364TIP3   OH237286   3.962   5.578   7.567  0.0731  0.1791  0.6070
 4364TIP3    H137287   4.023   5.647   7.591 -0.7118  1.2934 -0.5184
 4364TIP3    H237288   3.964   5.518   7.642  1.5889  0.8255  1.1320
 4365TIP3   OH237289   3.781   5.676   9.161  0.3839 -0.3169  0.1135
 4365TIP3    H137290   3.820   5.645   9.080  2.6356 -1.8066  1.6569
 4365TIP3    H237291   3.739   5.599   9.200 -0.5811  0.3522  0.4623
 4366TIP3   OH237292   3.568   3.539   9.308 -0.3604 -0.3348  0.1040
 4366TIP3    H137293   3.492   3.595   9.293  0.5366  0.7150 -0.6123
 4366TIP3    H237294   3.640   3.584   9.266  0.6512 -1.3833  0.6609
 4367TIP3   OH237295   3.266   2.170   7.856  0.1487  0.3884  0.0419
 4367TIP3    H137296   3.279   2.076   7.868 -2.1062  0.1891  1.5510
 4367TIP3    H237297   3.345   2.210   7.893  0.0188 -0.8707  1.8393
 4368TIP3   OH237298   1.321   5.019   8.965  0.1878 -0.5289 -0.3919
 4368TIP3    H137299   1.360   4.931   8.962  1.5699 -0.0657  1.5835
 4368TIP3    H237300   1.368   5.063   9.036 -1.7239  1.2173 -0.1219
 4369TIP3   OH237301   3.482   4.439   8.798 -0.3246 -0.0172 -0.2396
 4369TIP3    H137302   3.576   4.455   8.807 -0.7140  1.3704  2.4521
 4369TIP3    H237303   3.470   4.348   8.826  0.1695 -0.0986 -0.2803
 4370TIP3   OH237304   4.782   6.976   6.947 -0.2303  0.5498 -0.5306
 4370TIP3    H137305   4.757   6.898   6.897 -0.6437  0.5956 -0.4002
 4370TIP3    H237306   4.870   6.957   6.978 -0.2582  0.2083 -0.6560
 4371TIP3   OH237307   1.880   5.372   6.840  0.7343 -0.6380  0.2007
 4371TIP3    H137308   1.953   5.397   6.897 -0.9728 -1.2291  2.8506
 4371TIP3    H237309   1.834   5.304   6.889 -1.3929 -0.5538 -1.5263
 4372TIP3   OH237310   1.513   1.498   7.415 -0.1551  0.4212  0.2323
 4372TIP3    H137311   1.607   1.488   7.402 -0.2745 -0.5846  0.0597
 4372TIP3    H237312   1.504   1.577   7.468  0.6340  2.0523 -1.8838
 4373TIP3   OH237313   2.044   5.446   8.828  0.2045  0.6153  0.0014
 4373TIP3    H137314   1.952   5.418   8.833  0.5088 -0.4598 -0.1977
 4373TIP3    H237315   2.093   5.365   8.812  1.1688  1.2103 -0.1270
 4374TIP3   OH237316   7.310   3.770   7.330 -0.7607  0.6552 -0.4101
 4374TIP3    H137317   7.264   3.716   7.267 -1.0258  0.2745  0.1035
 4374TIP3    H237318   7.401   3.768   7.302 -0.4522 -1.4718  0.5649
 4375TIP3   OH237319   6.212   5.735   7.817  0.7014  0.3548  0.0987
 4375TIP3    H137320   6.290   5.786   7.795  0.8981 -0.6763 -1.8095
 4375TIP3    H237321   6.173   5.713   7.732 -1.3459  0.3152  0.9800
 4376TIP3   OH237322   7.282   4.832   7.765 -0.1827  0.5829  0.0853
 4376TIP3    H137323   7.356   4.796   7.813 -0.7468  0.3257  0.7839
 4376TIP3    H237324   7.235   4.884   7.830 -1.0625  0.0794 -0.1272
 4377TIP3   OH237325   2.363   4.283   7.199 -0.7887  0.2735  0.4776
 4377TIP3    H137326   2.318   4.351   7.250  2.4959  0.4309  3.5645
 4377TIP3    H237327   2.394   4.221   7.264 -1.6270 -3.0628 -2.0527
 4378TIP3   OH237328   4.647   0.083   7.268 -0.3613  0.1199  0.2212
 4378TIP3    H137329   4.687   0.003   7.303  0.1709 -0.6861 -2.1033
 4378TIP3    H237330   4.653   0.074   7.173  0.5480  3.3325 -0.1527
 4379TIP3   OH237331   6.502   2.948   8.601 -0.0906  0.0823  0.1070
 4379TIP3    H137332   6.479   3.006   8.674 -1.0571 -2.3238  1.8239
 4379TIP3    H237333   6.597   2.953   8.596  0.0912 -0.4121  2.2073
 4380TIP3   OH237334   6.132   0.140   7.549  0.2562  0.2513 -0.2363
 4380TIP3    H137335   6.155   0.101   7.634  1.1816  2.8511  0.7947
 4380TIP3    H237336   6.202   0.202   7.532  0.2489 -0.4178 -3.1341
 4381TIP3   OH237337   0.248   2.624   9.470 -0.2166 -0.0157  0.0665
 4381TIP3    H137338   0.187   2.605   9.541  0.2779  0.0839  0.5273
 4381TIP3    H237339   0.325   2.571   9.490  0.1311  0.4177 -0.1029
 4382TIP3   OH237340   1.818   7.484   9.121 -0.4414 -0.0573 -0.0585
 4382TIP3    H137341   1.859   7.490   9.207 -0.3257 -2.9327  0.1680
 4382TIP3    H237342   1.758   7.559   9.118 -0.3035  0.2350  2.4205
 4383TIP3   OH237343   2.619   3.056   6.793 -0.4157 -0.1820 -0.7643
 4383TIP3    H137344   2.677   2.991   6.753 -0.2663  0.0439 -0.9192
 4383TIP3    H237345   2.532   3.017   6.790 -0.6714  0.4361 -2.6728
 4384TIP3   OH237346   4.669   3.460   7.457  0.0513  0.5150 -0.9014
 4384TIP3    H137347   4.630   3.465   7.369 -0.6057 -0.6893 -0.7130
 4384TIP3    H237348   4.617   3.521   7.509  1.6835  2.7341 -1.7276
 4385TIP3   OH237349   4.352   1.893   8.278 -0.0703  0.3042 -0.0812
 4385TIP3    H137350   4.354   1.988   8.280 -1.2993  0.3697 -0.9137
 4385TIP3    H237351   4.259   1.870   8.289  0.4024 -0.8800  2.1572
 4386TIP3   OH237352   5.565   1.710   8.423  0.5298 -0.1505 -0.8018
 4386TIP3    H137353   5.501   1.770   8.386  1.2568  2.3070  1.5975
 4386TIP3    H237354   5.513   1.637   8.458 -1.0843  1.8692  1.2843
 4387TIP3   OH237355   0.597   1.719   9.566  0.3748  0.3870 -0.4613
 4387TIP3    H137356   0.652   1.641   9.561  1.2987  0.8707  1.2766
 4387TIP3    H237357   0.517   1.695   9.518  0.9689 -1.3062 -0.6867
 4388TIP3   OH237358   4.614   5.929   8.887 -0.8166 -0.2916  0.1123
 4388TIP3    H137359   4.563   5.969   8.958 -1.5352  0.0169 -0.5643
 4388TIP3    H237360   4.567   5.848   8.868 -2.1720  0.8332 -1.7319
 4389TIP3   OH237361   4.363   6.385   7.847 -0.3729 -0.4626 -0.2760
 4389TIP3    H137362   4.344   6.309   7.792  1.9962  0.6294 -2.8622
 4389TIP3    H237363   4.353   6.460   7.789  0.1157  0.9965  1.4188
 4390TIP3   OH237364   7.550   3.379   9.134 -0.2215  0.0406  0.0846
 4390TIP3    H137365   7.594   3.450   9.089 -0.1728  1.3581  2.0814
 4390TIP3    H237366   7.459   3.385   9.105  0.0427  0.0799 -0.7467
 4391TIP3   OH237367   7.219   5.797   7.646  0.3826 -0.3476 -0.2772
 4391TIP3    H137368   7.299   5.796   7.699  0.1844  0.2466  0.0464
 4391TIP3    H237369   7.245   5.836   7.563  0.7007 -1.3007 -0.6270
 4392TIP3   OH237370   1.614   0.814   6.871 -0.1031  0.1518 -0.3695
 4392TIP3    H137371   1.679   0.794   6.939 -0.2374  0.7768 -0.0505
 4392TIP3    H237372   1.610   0.735   6.818 -2.2151 -1.5762  2.1210
 4393TIP3   OH237373   0.384   4.045   8.400  0.3091  0.2208  0.1569
 4393TIP3    H137374   0.299   4.012   8.430 -0.9884  2.5630 -0.6613
 4393TIP3    H237375   0.438   4.048   8.478 -1.4079  1.5954  1.3791
 4394TIP3   OH237376   3.764   7.621   7.714  0.1479  0.4757 -0.3289
 4394TIP3    H137377   3.800   7.702   7.678 -1.3943  1.2050 -0.3306
 4394TIP3    H237378   3.748   7.565   7.638 -0.9004  1.0891 -0.5858
 4395TIP3   OH237379   5.593   2.090   8.228  0.7357 -0.5802  0.4547
 4395TIP3    H137380   5.567   2.008   8.185  1.5404 -0.7992  0.3612
 4395TIP3    H237381   5.511   2.130   8.256  0.2188 -0.6423 -0.8968
 4396TIP3   OH237382   1.526   7.297   9.541  0.0561  0.0073  0.1198
 4396TIP3    H137383   1.525   7.209   9.578  1.1889 -0.6371 -1.2943
 4396TIP3    H237384   1.437   7.309   9.508 -0.3126 -0.3088  0.9669
 4397TIP3   OH237385   2.147   1.158   6.765 -0.4962 -0.3203 -0.2702
 4397TIP3    H137386   2.240   1.135   6.776  0.4320  2.7420 -0.7853
 4397TIP3    H237387   2.116   1.101   6.695  1.6182  0.0313 -1.5683
 4398TIP3   OH237388   7.083   6.274   8.413  0.2265 -0.3639  0.0634
 4398TIP3    H137389   7.159   6.234   8.370 -0.1653 -0.1184 -0.8706
 4398TIP3    H237390   7.094   6.252   8.506  0.7719 -1.4101 -0.2333
 4399TIP3   OH237391   6.386   3.701   8.042  0.1605 -0.1895  0.0262
 4399TIP3    H137392   6.327   3.775   8.030  0.1770 -0.1221  0.3522
 4399TIP3    H237393   6.468   3.740   8.070  0.3385 -0.2891 -0.3451
 4400TIP3   OH237394   6.946   3.020   8.852  0.1372 -0.1845 -0.0264
 4400TIP3    H137395   6.952   2.932   8.887 -0.5532 -0.8442 -1.4694
 4400TIP3    H237396   6.885   3.013   8.779 -2.1116  2.0636  1.4939
 4401TIP3   OH237397   1.816   2.582   7.473  0.1823  0.1486 -0.2431
 4401TIP3    H137398   1.731   2.542   7.492  0.3010  0.2036  0.4007
 4401TIP3    H237399   1.849   2.612   7.558  1.7882 -1.6982 -0.1456
 4402TIP3   OH237400   0.422   3.421   9.364 -0.1590  0.3860 -0.0435
 4402TIP3    H137401   0.485   3.350   9.366 -0.7459 -0.1384  0.1067
 4402TIP3    H237402   0.342   3.381   9.330 -0.9917  0.5636  1.6043
 4403TIP3   OH237403   4.154   5.258   7.665  0.1891  0.0703  0.2572
 4403TIP3    H137404   4.186   5.278   7.577  2.1084  1.0285  1.1162
 4403TIP3    H237405   4.166   5.339   7.714 -2.2458  0.0148  1.0734
 4404TIP3   OH237406   0.328   5.899   7.504  0.0953  0.3802 -0.3698
 4404TIP3    H137407   0.388   5.948   7.561 -1.1673 -0.8158  2.1416
 4404TIP3    H237408   0.263   5.964   7.477  0.8212  1.0105 -0.6508
 4405TIP3   OH237409   3.164   6.117   7.197 -0.4230  0.2140 -0.0177
 4405TIP3    H137410   3.238   6.062   7.171  1.6233  1.9650  1.7201
 4405TIP3    H237411   3.148   6.093   7.288 -0.1192  1.7691  0.4769
 4406TIP3   OH237412   4.440   7.161   9.368 -0.5859  0.1605 -0.2141
 4406TIP3    H137413   4.354   7.152   9.328  0.0187 -2.1613 -1.1339
 4406TIP3    H237414   4.477   7.073   9.367  1.8156  1.0763  0.1515
 4407TIP3   OH237415   4.155   0.138   9.359  0.0219 -0.3240  0.4017
 4407TIP3    H137416   4.232   0.083   9.342 -0.0098 -0.4211  0.5738
 4407TIP3    H237417   4.082   0.090   9.320  0.2722  0.5227 -1.1831
 4408TIP3   OH237418   5.778   2.089   7.833  0.1407  0.4518  0.1990
 4408TIP3    H137419   5.738   2.175   7.840 -0.9044 -0.1245  1.8200
 4408TIP3    H237420   5.802   2.081   7.740 -1.5667  1.6774 -0.3902
 4409TIP3   OH237421   4.781   1.929   7.954 -0.6040  0.2921  0.3620
 4409TIP3    H137422   4.733   1.983   8.017  0.4293 -0.9452  2.3156
 4409TIP3    H237423   4.865   1.913   7.996 -0.7052 -2.4472 -0.2896
 4410TIP3   OH237424   5.971   2.170   9.178  0.4236  0.0062  0.1480
 4410TIP3    H137425   6.004   2.255   9.149  2.6638 -0.3192  1.5249
 4410TIP3    H237426   5.902   2.148   9.115  1.3362  1.7988 -1.5716
 4411TIP3   OH237427   3.760   5.965   9.170  0.3542 -0.4431  0.6300
 4411TIP3    H137428   3.789   5.961   9.261 -1.8470 -0.7161  1.3562
 4411TIP3    H237429   3.726   5.878   9.152  0.8175 -0.4048 -0.4882
 4412TIP3   OH237430   3.088   0.848   7.015 -0.2499 -0.2588  0.1763
 4412TIP3    H137431   3.096   0.778   7.079  0.4699 -0.0173  0.3605
 4412TIP3    H237432   3.171   0.846   6.966 -0.7337 -0.3526 -0.6586
 4413TIP3   OH237433   1.977   2.477   6.978  0.1851  0.0920  0.2961
 4413TIP3    H137434   1.908   2.445   7.036  0.9929  0.1115  1.2982
 4413TIP3    H237435   2.036   2.526   7.035  2.0018 -1.4074 -0.1605
 4414TIP3   OH237436   0.663   1.124   8.624 -0.5320  0.2317 -0.1282
 4414TIP3    H137437   0.596   1.177   8.668 -1.2757 -0.0929 -0.8354
 4414TIP3    H237438   0.616   1.046   8.595  0.2262 -0.1452 -0.3683
 4415TIP3   OH237439   4.566   6.970   8.770 -0.0374 -0.3206  0.0581
 4415TIP3    H137440   4.613   6.949   8.689 -0.9336 -3.3395  0.2313
 4415TIP3    H237441   4.635   6.996   8.831  0.8346  0.2781 -1.1308
 4416TIP3   OH237442   6.376   5.518   8.093  0.0188  0.3848 -0.2012
 4416TIP3    H137443   6.336   5.519   8.005  2.3271 -1.8579 -1.4118
 4416TIP3    H237444   6.304   5.494   8.151 -1.3095  0.6790 -1.6313
 4417TIP3   OH237445   4.744   5.668   6.717  0.5288 -0.3422  0.0600
 4417TIP3    H137446   4.801   5.612   6.769  0.5141  1.0512  1.7003
 4417TIP3    H237447   4.803   5.737   6.684  0.1749 -0.0619  0.0087
 4418TIP3   OH237448   5.342   1.147   8.610 -0.6485 -0.1773 -0.3240
 4418TIP3    H137449   5.398   1.203   8.664 -1.3272 -0.2605  0.4917
 4418TIP3    H237450   5.267   1.202   8.589 -1.8402 -1.0430  1.3728
 4419TIP3   OH237451   6.601   5.123   7.782  0.0453  0.6536  0.2895
 4419TIP3    H137452   6.611   5.028   7.790 -0.7456  0.4736 -0.6548
 4419TIP3    H237453   6.679   5.151   7.734  0.6227  0.5899  1.1730
 4420TIP3   OH237454   0.977   4.175   7.994 -0.5434  0.5683 -0.3750
 4420TIP3    H137455   0.998   4.091   8.034 -0.5251  0.3880 -0.7550
 4420TIP3    H237456   0.931   4.224   8.062  0.1310  0.5457  0.0983
 4421TIP3   OH237457   0.030   6.699   7.908 -0.0294  0.4343 -0.1885
 4421TIP3    H137458   0.059   6.760   7.975 -1.5009  0.3067  0.6049
 4421TIP3    H237459   0.075   6.617   7.928  0.5380  0.7534 -0.1517
 4422TIP3   OH237460   6.680   5.187   8.886  0.3277 -0.2554  0.3778
 4422TIP3    H137461   6.728   5.194   8.969  1.5001  0.8693 -0.3605
 4422TIP3    H237462   6.588   5.184   8.912  0.6164  1.0509  1.6853
 4423TIP3   OH237463   4.538   7.415   9.434  0.8088 -0.3828  0.1916
 4423TIP3    H137464   4.493   7.330   9.429 -0.6122  0.4094 -2.5520
 4423TIP3    H237465   4.490   7.464   9.501 -1.0926 -0.3406 -1.1356
 4424TIP3   OH237466   6.186   7.009   9.076 -0.9050  0.0157 -0.1665
 4424TIP3    H137467   6.245   6.972   9.010 -2.0355  1.6104 -2.2332
 4424TIP3    H237468   6.235   7.082   9.113  0.5520 -2.1324  2.4485
 4425TIP3   OH237469   3.076   3.306   7.760  0.4426 -0.7463 -0.6125
 4425TIP3    H137470   3.065   3.400   7.746  1.6627  0.0080  2.7798
 4425TIP3    H237471   3.170   3.290   7.749  0.8122 -0.8360  2.1788
 4426TIP3   OH237472   0.204   0.802   8.433  0.1979 -0.6920  0.2324
 4426TIP3    H137473   0.123   0.832   8.473  0.5344  0.1658  0.3003
 4426TIP3    H237474   0.177   0.742   8.364 -0.5583  0.5307 -0.5641
 4427TIP3   OH237475   1.246   0.362   9.424  0.1308  0.0235 -0.0896
 4427TIP3    H137476   1.265   0.389   9.334 -0.9442  2.1956  0.2693
 4427TIP3    H237477   1.313   0.406   9.477 -0.5233  0.5269  0.3431
 4428TIP3   OH237478   4.274   1.322   6.863 -0.5651  0.1668 -0.3587
 4428TIP3    H137479   4.279   1.414   6.887 -2.5299  0.6921 -1.7249
 4428TIP3    H237480   4.347   1.309   6.802 -0.3874  0.8552 -0.3012
 4429TIP3   OH237481   2.033   6.027   7.317 -0.3401  0.2772  0.3071
 4429TIP3    H137482   2.054   5.934   7.311  2.2300  0.8765 -1.5132
 4429TIP3    H237483   2.079   6.058   7.394 -0.3544  0.2309  0.3341
 4430TIP3   OH237484   2.601   0.509   9.287 -0.5145 -0.3462  0.4867
 4430TIP3    H137485   2.646   0.516   9.372  0.6240 -1.6338  0.0277
 4430TIP3    H237486   2.630   0.587   9.239 -2.1526  1.0786  1.6577
 4431TIP3   OH237487   1.827   0.147   8.299  0.2882 -0.1933 -0.0920
 4431TIP3    H137488   1.857   0.208   8.367 -1.3934  0.6185 -0.0328
 4431TIP3    H237489   1.872   0.175   8.219  0.4586  0.3448  0.1912
 4432TIP3   OH237490   4.438   0.208   7.851  0.3731  0.0564 -0.3060
 4432TIP3    H137491   4.393   0.125   7.871 -2.3039  1.3805 -0.3913
 4432TIP3    H237492   4.426   0.261   7.929  1.2380  0.7212 -0.6122
 4433TIP3   OH237493   6.480   2.700   6.661 -0.1059 -0.5867 -0.8578
 4433TIP3    H137494   6.393   2.684   6.625 -1.3513 -2.3060  2.4772
 4433TIP3    H237495   6.505   2.617   6.702  2.6486  0.1817 -0.7921
 4434TIP3   OH237496   0.456   4.563   7.517 -0.1708  0.4155 -0.1805
 4434TIP3    H137497   0.544   4.535   7.541 -0.8244 -0.4468  1.3523
 4434TIP3    H237498   0.469   4.634   7.454  1.6045  0.3873  0.1269
 4435TIP3   OH237499   6.071   5.238   7.074  0.2144 -0.5195 -0.1560
 4435TIP3    H137500   5.996   5.297   7.068 -0.1795 -0.8716  0.9971
 4435TIP3    H237501   6.033   5.151   7.083  0.7632 -0.7399  0.1124
 4436TIP3   OH237502   1.657   3.246   7.171  0.0832 -0.5877  0.2297
 4436TIP3    H137503   1.603   3.255   7.249 -0.6226 -0.1836 -0.2966
 4436TIP3    H237504   1.608   3.186   7.115  0.9775 -1.5278  0.4232
 4437TIP3   OH237505   2.262   7.631   7.381 -0.0919 -0.2194  0.2328
 4437TIP3    H137506   2.234   7.562   7.441  3.0454 -1.9434 -0.0766
 4437TIP3    H237507   2.325   7.683   7.432  0.9842 -0.3995 -0.8531
 4438TIP3   OH237508   4.179   1.784   8.886  0.0600  0.2558  0.4528
 4438TIP3    H137509   4.186   1.850   8.816  1.1999 -1.1675 -0.8407
 4438TIP3    H237510   4.146   1.833   8.961 -0.7622  1.9550 -0.9321
 4439TIP3   OH237511   1.657   5.444   8.338 -0.1259  0.0261  0.1787
 4439TIP3    H137512   1.584   5.389   8.367 -0.4944 -0.5668 -1.6743
 4439TIP3    H237513   1.620   5.496   8.266  0.9388  0.6927  0.0926
 4440TIP3   OH237514   6.546   6.923   8.716 -1.2915  0.7272  0.1639
 4440TIP3    H137515   6.632   6.903   8.753 -1.3131  2.0303  0.9690
 4440TIP3    H237516   6.498   6.840   8.720 -0.1900  0.0574 -0.0216
 4441TIP3   OH237517   2.857   4.537   7.093 -0.2364  0.1168  0.3476
 4441TIP3    H137518   2.787   4.482   7.128 -0.5084 -0.0862 -0.4937
 4441TIP3    H237519   2.922   4.540   7.163 -1.5442  1.2071  1.5952
 4442TIP3   OH237520   5.228   1.165   8.913  0.5078 -0.2953 -0.0767
 4442TIP3    H137521   5.295   1.169   8.844  0.9316 -2.3699  0.1192
 4442TIP3    H237522   5.279   1.163   8.994  0.1492 -0.5985  0.1406
 4443TIP3   OH237523   6.629   0.539   8.732 -0.4945  0.1448  0.3966
 4443TIP3    H137524   6.652   0.473   8.797 -1.1330  0.7702  1.2739
 4443TIP3    H237525   6.589   0.610   8.782  0.8175  1.5215 -0.4387
 4444TIP3   OH237526   7.159   7.316   7.538 -0.7200 -0.6898  0.1605
 4444TIP3    H137527   7.065   7.305   7.551 -1.0111 -0.5390 -1.5811
 4444TIP3    H237528   7.170   7.317   7.443  1.1658 -1.7084  0.3167
 4445TIP3   OH237529   4.598   3.637   7.922  0.0678  0.2258 -0.0660
 4445TIP3    H137530   4.546   3.557   7.928  0.0824  0.2994  1.3117
 4445TIP3    H237531   4.535   3.707   7.936  0.3869  0.3502  0.8170
 4446TIP3   OH237532   7.275   6.795   8.278 -0.3115 -0.2442  0.2357
 4446TIP3    H137533   7.361   6.782   8.317 -0.6229 -0.1381  0.9679
 4446TIP3    H237534   7.213   6.781   8.350 -0.8801  0.3208 -0.1293
 4447TIP3   OH237535   0.830   2.998   8.235 -0.4130  0.1285  0.0423
 4447TIP3    H137536   0.831   3.076   8.180  0.6844  0.2972  0.2878
 4447TIP3    H237537   0.829   3.032   8.325 -0.4922 -0.1424  0.1448
 4448TIP3   OH237538   3.371   1.781   7.604 -0.2554  0.3202 -0.5745
 4448TIP3    H137539   3.308   1.820   7.543 -0.5238 -2.8158 -2.4940
 4448TIP3    H237540   3.454   1.779   7.556  0.3576  0.7827  0.4354
 4449TIP3   OH237541   6.259   0.454   8.526 -0.0133  0.0783  0.1154
 4449TIP3    H137542   6.222   0.398   8.594  0.1986  1.2943  1.2673
 4449TIP3    H237543   6.347   0.419   8.511 -1.0994 -2.1440 -1.8502
 4450TIP3   OH237544   0.225   3.676   8.336  0.4688 -0.1043  0.2409
 4450TIP3    H137545   0.207   3.737   8.407  0.8369  0.7923 -0.4159
 4450TIP3    H237546   0.312   3.701   8.305 -0.2793  0.5129 -1.4863
 4451TIP3   OH237547   2.813   7.210   8.756 -0.2143 -0.1278  0.0968
 4451TIP3    H137548   2.787   7.298   8.784 -0.4111  0.1252 -0.8692
 4451TIP3    H237549   2.868   7.223   8.679  0.2004 -0.8275  0.2607
 4452TIP3   OH237550   3.406   6.793   8.791  0.7869  0.0374 -0.1903
 4452TIP3    H137551   3.479   6.735   8.768 -1.5655 -2.9583 -0.7088
 4452TIP3    H237552   3.375   6.827   8.707 -1.1198 -2.3369 -0.5440
 4453TIP3   OH237553   0.419   1.690   9.036  0.2607  0.0963  0.0137
 4453TIP3    H137554   0.418   1.778   9.075  0.5112 -0.6543  1.8402
 4453TIP3    H237555   0.501   1.652   9.067 -0.3853 -1.1701  0.2268
 4454TIP3   OH237556   3.266   4.502   9.266  0.2559  0.7551  0.3478
 4454TIP3    H137557   3.220   4.585   9.261  1.5129  1.6507  2.6397
 4454TIP3    H237558   3.339   4.511   9.204 -0.6301  0.6220 -0.7506
 4455TIP3   OH237559   4.571   4.912   8.395  0.0248 -0.3740  0.1808
 4455TIP3    H137560   4.613   4.884   8.476 -0.8130  1.4729  1.3082
 4455TIP3    H237561   4.635   4.970   8.354  0.0591 -0.5350  0.0055
 4456TIP3   OH237562   3.766   3.720   9.186  0.1980  0.1707  0.0116
 4456TIP3    H137563   3.769   3.813   9.164  0.4615  0.6145  1.7297
 4456TIP3    H237564   3.855   3.698   9.211 -0.0094 -0.3323  0.3372
 4457TIP3   OH237565   5.700   1.481   8.954  0.1687 -0.1968 -0.2052
 4457TIP3    H137566   5.640   1.469   8.880  0.2229  2.8475 -0.8670
 4457TIP3    H237567   5.780   1.437   8.927  0.4977  1.5990 -2.4752
 4458TIP3   OH237568   5.052   6.386   7.850 -0.0729  0.9520  0.4356
 4458TIP3    H137569   5.048   6.291   7.842  0.6407  0.8366  1.2775
 4458TIP3    H237570   5.087   6.401   7.938 -2.2469  2.0320  1.1917
 4459TIP3   OH237571   7.148   1.704   7.407 -0.5605  0.6125  0.4346
 4459TIP3    H137572   7.193   1.683   7.325 -1.9854  1.7139 -0.6671
 4459TIP3    H237573   7.157   1.625   7.460  0.2833 -0.1659 -0.8306
 4460TIP3   OH237574   7.000   5.904   9.041  0.1777 -0.1472 -0.2320
 4460TIP3    H137575   7.047   5.828   9.008  1.3707 -0.7749  2.5987
 4460TIP3    H237576   6.920   5.867   9.079  0.3600  0.1213  0.4154
 4461TIP3   OH237577   3.928   3.874   8.376  0.3968  0.3445  0.1710
 4461TIP3    H137578   3.975   3.939   8.324  0.4645  0.7463  0.7179
 4461TIP3    H237579   3.943   3.791   8.331  0.0673  0.7478 -0.6985
 4462TIP3   OH237580   7.364   7.308   8.204 -0.6612 -0.4616 -0.6782
 4462TIP3    H137581   7.320   7.228   8.176  0.4821 -1.0718 -0.7558
 4462TIP3    H237582   7.444   7.311   8.153 -0.2566  0.2646 -0.0250
 4463TIP3   OH237583   1.576   6.473   8.393 -0.8267 -0.5596 -0.0724
 4463TIP3    H137584   1.625   6.554   8.404  0.0875 -1.2932  1.6407
 4463TIP3    H237585   1.597   6.445   8.304 -1.0866  1.0015 -0.6593
 4464TIP3   OH237586   2.501   6.022   8.386  0.1613  0.0254  0.1982
 4464TIP3    H137587   2.420   6.068   8.409  0.7860  0.2208  2.2215
 4464TIP3    H237588   2.552   6.022   8.467  3.0157  1.5733 -1.4277
 4465TIP3   OH237589   7.015   1.728   8.267 -0.0514 -1.0906  0.1293
 4465TIP3    H137590   6.945   1.708   8.205  0.9082  1.7702 -2.1106
 4465TIP3    H237591   7.022   1.823   8.266  4.0472 -1.1964 -0.0501
 4466TIP3   OH237592   7.344   6.504   7.078  0.1295  0.4451  0.0652
 4466TIP3    H137593   7.286   6.521   7.004  1.4807  0.1216 -1.1050
 4466TIP3    H237594   7.349   6.587   7.125 -0.2155  0.8452 -0.6008
 4467TIP3   OH237595   4.017   5.756   9.287  0.0288 -0.2968  0.5403
 4467TIP3    H137596   3.941   5.715   9.247  1.2021 -0.7429 -1.3432
 4467TIP3    H237597   4.000   5.850   9.282  0.4806 -0.2792 -1.8739
 4468TIP3   OH237598   5.627   6.052   7.658 -0.5339 -0.7393 -0.0782
 4468TIP3    H137599   5.606   6.123   7.596  0.5735  0.2443  0.6310
 4468TIP3    H237600   5.554   6.052   7.720 -1.4491 -1.4594 -1.1229
 4469TIP3   OH237601   2.559   3.988   8.283 -0.3384  0.6130 -0.3749
 4469TIP3    H137602   2.522   3.934   8.351  2.2941  2.2010  2.6047
 4469TIP3    H237603   2.535   4.078   8.307  2.7817  1.4453  0.1373
 4470TIP3   OH237604   3.898   7.084   9.318 -0.3279  1.0112 -0.2721
 4470TIP3    H137605   3.936   7.044   9.240 -1.0228  1.7063 -0.9832
 4470TIP3    H237606   3.849   7.013   9.359 -0.3236  0.7522 -0.7065
 4471TIP3   OH237607   6.502   4.662   8.503  0.1999 -0.4484 -0.2339
 4471TIP3    H137608   6.502   4.574   8.465 -0.8866 -0.7987  0.5148
 4471TIP3    H237609   6.540   4.717   8.435  1.8109 -1.6236 -0.3584
 4472TIP3   OH237610   6.023   3.464   7.846 -0.2861 -0.1363 -0.2061
 4472TIP3    H137611   5.935   3.439   7.873 -0.1109 -0.0122  0.4970
 4472TIP3    H237612   6.059   3.510   7.921 -0.2240  1.3094 -1.0792
 4473TIP3   OH237613   0.756   1.415   9.586  0.3265  0.0049 -0.1638
 4473TIP3    H137614   0.756   1.395   9.679 -0.0734 -0.9599 -0.3569
 4473TIP3    H237615   0.848   1.420   9.562  0.5155  3.0546  0.8177
 4474TIP3   OH237616   1.810   2.245   8.278 -0.0595  0.0729  0.1932
 4474TIP3    H137617   1.856   2.325   8.304 -0.9048 -0.0593  2.2576
 4474TIP3    H237618   1.728   2.248   8.326 -1.2650 -0.8022 -1.6842
 4475TIP3   OH237619   4.568   6.762   8.047 -0.0989 -0.4020  0.1731
 4475TIP3    H137620   4.660   6.785   8.059  0.4012 -1.8663 -0.5117
 4475TIP3    H237621   4.553   6.772   7.953 -0.2533 -1.3989  0.0781
 4476TIP3   OH237622   7.025   2.073   8.793  0.3680  0.6343 -0.2409
 4476TIP3    H137623   7.105   2.024   8.812 -0.5656 -0.2113  1.8421
 4476TIP3    H237624   7.021   2.139   8.862 -2.1315 -1.1904  1.5098
 4477TIP3   OH237625   2.395   2.486   8.048  0.2139 -0.2623  0.0591
 4477TIP3    H137626   2.310   2.443   8.048 -0.2025  0.5105  1.0542
 4477TIP3    H237627   2.376   2.578   8.068  1.0122  0.6032 -2.7972
 4478TIP3   OH237628   2.215   1.304   8.358 -0.2575  0.2630  0.6580
 4478TIP3    H137629   2.288   1.366   8.365  1.6467 -1.6890 -0.5399
 4478TIP3    H237630   2.204   1.271   8.448  1.0231 -0.1037  0.7041
 4479TIP3   OH237631   4.088   6.448   7.772  0.1907  0.2251  0.0146
 4479TIP3    H137632   4.173   6.477   7.739  0.1186  0.6827  0.2171
 4479TIP3    H237633   4.025   6.483   7.709  0.2398 -1.5402 -1.0843
 4480TIP3   OH237634   5.078   0.120   6.466 -0.4795  0.2699 -0.2890
 4480TIP3    H137635   5.068   0.085   6.377 -1.1671 -0.7021  0.1509
 4480TIP3    H237636   5.103   0.045   6.519  0.6759  0.9917  0.2260
 4481TIP3   OH237637   2.622   6.921   8.337 -0.0512  0.0134  0.1977
 4481TIP3    H137638   2.685   6.850   8.328  0.5156  0.5822 -0.4851
 4481TIP3    H237639   2.674   7.001   8.325 -0.4674  0.6024  2.0705
 4482TIP3   OH237640   4.879   5.903   8.770 -0.0763 -0.3534 -0.1910
 4482TIP3    H137641   4.791   5.907   8.809  1.0463 -0.7439  2.5774
 4482TIP3    H237642   4.879   5.820   8.723 -0.9875 -0.6911  0.3603
 4483TIP3   OH237643   4.183   5.583   9.403 -0.2429 -0.6401  0.0567
 4483TIP3    H137644   4.172   5.614   9.493  2.4326  2.4813 -0.4754
 4483TIP3    H237645   4.142   5.650   9.349  0.8987 -0.8316 -1.0974
 4484TIP3   OH237646   3.649   4.744   8.118  0.0114 -0.0922 -0.3596
 4484TIP3    H137647   3.650   4.649   8.110  0.0782 -0.0913 -0.3653
 4484TIP3    H237648   3.595   4.774   8.045 -0.5701 -0.1610  0.0353
 4485TIP3   OH237649   7.189   1.978   9.616  0.3432  0.3497 -0.3440
 4485TIP3    H137650   7.198   1.890   9.580  0.2374  0.3807 -0.4449
 4485TIP3    H237651   7.246   1.978   9.693 -0.6238 -0.2098  0.3967
 4486TIP3   OH237652   0.429   4.275   9.493 -0.0580  0.1319  0.6246
 4486TIP3    H137653   0.374   4.242   9.564 -0.8994  0.0460 -0.0462
 4486TIP3    H237654   0.492   4.205   9.477 -0.1412 -0.0285  0.9891
 4487TIP3   OH237655   0.656   1.965   9.592 -0.1981  0.2403  0.0613
 4487TIP3    H137656   0.619   1.877   9.597  2.0482 -0.7200  1.4766
 4487TIP3    H237657   0.704   1.966   9.509  0.6055 -0.2616  0.5069
 4488TIP3   OH237658   0.960   4.574   9.187 -0.1006 -0.1000 -0.4228
 4488TIP3    H137659   0.912   4.656   9.199  2.1320  1.2217 -0.0535
 4488TIP3    H237660   0.968   4.538   9.275  0.7929  0.3985 -0.3000
 4489TIP3   OH237661   1.509   5.745   9.224  0.6754 -0.3915 -0.4262
 4489TIP3    H137662   1.414   5.751   9.234  0.8800  1.2329  1.1009
 4489TIP3    H237663   1.525   5.769   9.133 -0.3218  0.5288 -0.3837
 4490TIP3   OH237664   3.748   1.297   7.165  0.1707  0.3063  0.4510
 4490TIP3    H137665   3.792   1.345   7.095  0.1022 -2.2046 -1.4707
 4490TIP3    H237666   3.761   1.351   7.243  4.1561  1.1658 -0.5611
 4491TIP3   OH237667   1.527   4.032   9.350 -0.0384 -0.3302  0.1052
 4491TIP3    H137668   1.576   4.016   9.430 -0.2222  0.5219  0.4000
 4491TIP3    H237669   1.446   3.981   9.360  0.1698 -0.6375  0.2264
 4492TIP3   OH237670   3.175   6.093   8.979  0.2440 -0.0986 -0.2376
 4492TIP3    H137671   3.237   6.052   9.040  1.6391  3.1283  0.7618
 4492TIP3    H237672   3.227   6.108   8.899 -0.2858 -0.3839 -0.6413
 4493TIP3   OH237673   0.101   1.871   8.790 -0.3121  0.7739 -0.5455
 4493TIP3    H137674   0.105   1.864   8.885 -2.4402  1.5068 -0.3612
 4493TIP3    H237675   0.092   1.964   8.772  1.5414  0.8154 -1.5996
 4494TIP3   OH237676   4.537   3.623   7.624  0.0696 -0.1947 -0.2735
 4494TIP3    H137677   4.597   3.632   7.698  0.5568 -1.2571 -0.5281
 4494TIP3    H237678   4.462   3.677   7.649 -0.3185 -1.4735  1.5635
 4495TIP3   OH237679   7.564   6.853   9.384  0.2868  0.1005  0.1008
 4495TIP3    H137680   7.592   6.944   9.391 -1.8651  0.7532  1.0667
 4495TIP3    H237681   7.597   6.811   9.463  1.7574 -0.1509 -0.6066
 4496TIP3   OH237682   2.153   5.055   6.932  0.0406 -0.9880 -0.4449
 4496TIP3    H137683   2.150   5.136   6.983  0.8065 -1.2947  0.1029
 4496TIP3    H237684   2.074   5.058   6.877 -1.9309 -1.5967  2.1621
 4497TIP3   OH237685   1.953   3.184   7.917  0.3387 -0.2091  0.3548
 4497TIP3    H137686   1.894   3.109   7.918  0.4891 -0.6574 -4.1511
 4497TIP3    H237687   2.039   3.148   7.939 -0.0502 -0.7258  1.0611
 4498TIP3   OH237688   5.737   6.010   8.596  0.2239  0.2333 -0.2982
 4498TIP3    H137689   5.748   5.918   8.571  2.2909  0.2944  0.2669
 4498TIP3    H237690   5.802   6.025   8.664 -0.9699  1.7928  0.5603
 4499TIP3   OH237691   5.028   5.530   9.065  0.3826 -0.6927  0.5920
 4499TIP3    H137692   5.034   5.434   9.066  3.4802 -0.6296  2.9609
 4499TIP3    H237693   5.119   5.560   9.060 -0.3969  2.0955  1.2431
 4500TIP3   OH237694   4.302   4.397   8.673  0.7579 -0.3450 -0.2464
 4500TIP3    H137695   4.355   4.431   8.600  0.2184  1.7195  0.2645
 4500TIP3    H237696   4.304   4.467   8.738 -0.3704 -1.3632  0.9212
 4501TIP3   OH237697   6.092   3.003   8.222 -0.0210 -0.7637  0.2208
 4501TIP3    H137698   6.071   3.063   8.150  1.2445 -0.9807 -0.3503
 4501TIP3    H237699   6.088   2.916   8.182 -0.1624 -0.9507  0.6359
 4502TIP3   OH237700   2.940   3.110   9.350  0.0558  0.9313 -0.8677
 4502TIP3    H137701   2.961   3.195   9.312 -2.1682  0.3889 -3.7015
 4502TIP3    H237702   3.003   3.049   9.311 -0.5753  0.7759 -1.6680
 4503TIP3   OH237703   6.322   2.646   8.171  0.2203  0.0386 -0.3053
 4503TIP3    H137704   6.302   2.688   8.088 -1.4813 -1.1504 -0.5414
 4503TIP3    H237705   6.330   2.718   8.234 -2.3576  0.7886 -0.7360
 4504TIP3   OH237706   2.079   1.698   7.714  0.1053 -0.0783 -0.2696
 4504TIP3    H137707   2.061   1.616   7.759 -1.4893 -0.0369 -0.7580
 4504TIP3    H237708   1.996   1.720   7.671  0.3898  1.9731  0.1471
 4505TIP3   OH237709   2.842   4.075   7.465  0.0271  0.1834 -0.0287
 4505TIP3    H137710   2.800   4.112   7.387 -5.1400 -1.1331  1.7288
 4505TIP3    H237711   2.869   3.987   7.437 -0.9566  0.0429 -0.5847
 4506TIP3   OH237712   3.796   1.385   7.746  0.0304  0.6906 -0.8321
 4506TIP3    H137713   3.866   1.412   7.687 -0.7274  1.1144 -1.5651
 4506TIP3    H237714   3.827   1.410   7.833  0.3211  1.9295 -1.2658
 4507TIP3   OH237715   6.035   7.349   8.769  0.0218 -0.9824  0.8443
 4507TIP3    H137716   6.086   7.367   8.848  0.0115 -0.1304  0.6595
 4507TIP3    H237717   6.101   7.336   8.701  0.0120  1.1854  0.3706
 4508TIP3   OH237718   2.533   2.343   8.804 -0.4496  0.1189  0.2955
 4508TIP3    H137719   2.483   2.317   8.727 -0.1091  0.5271 -0.0651
 4508TIP3    H237720   2.467   2.358   8.872 -0.7083 -0.8577  0.2699
 4509TIP3   OH237721   2.390   0.530   6.672 -0.3746 -0.1510 -0.0139
 4509TIP3    H137722   2.457   0.468   6.700 -1.4784 -1.8664 -1.0474
 4509TIP3    H237723   2.312   0.477   6.657 -1.8080  1.7050  0.5148
 4510TIP3   OH237724   3.968   1.635   8.521  0.9603  0.1257  0.0508
 4510TIP3    H137725   3.985   1.640   8.615  1.7242 -0.4228 -0.0453
 4510TIP3    H237726   3.992   1.545   8.498  1.0390  0.3427 -0.7192
 4511TIP3   OH237727   2.774   7.668   9.087  0.0581  0.1780 -0.1406
 4511TIP3    H137728   2.789   7.651   9.180  0.6507  0.7764 -0.1222
 4511TIP3    H237729   2.681   7.690   9.081  0.1884  0.8952  0.4230
 4512TIP3   OH237730   1.593   6.485   7.783  0.5027  0.2932 -0.6536
 4512TIP3    H137731   1.575   6.454   7.872 -0.6117  0.1869 -0.9031
 4512TIP3    H237732   1.523   6.547   7.764  1.5875  1.5111 -0.9076
 4513TIP3   OH237733   4.800   2.984   9.197 -0.5040  0.0395  0.2470
 4513TIP3    H137734   4.752   3.010   9.276 -2.5793 -1.0096 -0.5913
 4513TIP3    H237735   4.801   3.062   9.142 -2.7670 -0.3065 -0.3865
 4514TIP3   OH237736   5.854   4.935   9.201  0.4958  0.0336 -0.3436
 4514TIP3    H137737   5.910   5.003   9.237  0.2943 -0.6792  1.3965
 4514TIP3    H237738   5.765   4.971   9.207  0.2464 -0.7918  1.7407
 4515TIP3   OH237739   3.617   5.130   9.584 -0.1377  0.5443 -0.4699
 4515TIP3    H137740   3.610   5.057   9.645 -0.1395  1.4376  0.6438
 4515TIP3    H237741   3.557   5.110   9.513 -0.9194 -0.0312  0.3510
 4516TIP3   OH237742   7.465   3.043   9.173 -0.2058 -0.0024  0.5011
 4516TIP3    H137743   7.407   3.117   9.153  0.1408  0.0970 -0.1834
 4516TIP3    H237744   7.532   3.079   9.231  0.6636  0.5567 -0.7814
 4517TIP3   OH237745   7.443   7.256   8.618 -0.1977 -0.3691 -0.0734
 4517TIP3    H137746   7.458   7.201   8.541 -0.7138 -1.7385  0.7798
 4517TIP3    H237747   7.439   7.345   8.583 -0.1269 -0.9343 -1.5882
 4518TIP3   OH237748   7.616   2.863   7.664 -0.1647 -0.1035 -0.4779
 4518TIP3    H137749   7.550   2.871   7.595  0.2889  0.5769 -0.8483
 4518TIP3    H237750   7.685   2.925   7.638  0.0912  0.0313  0.4987
 4519TIP3   OH237751   6.234   1.343   8.653  0.2099 -0.2445  0.1464
 4519TIP3    H137752   6.298   1.279   8.622 -0.3747 -1.0694  0.5910
 4519TIP3    H237753   6.170   1.350   8.583 -0.0565 -0.6128  0.3538
 4520TIP3   OH237754   1.640   5.188   7.383  0.0437  0.1394  0.3300
 4520TIP3    H137755   1.700   5.151   7.319  0.7456 -2.5396  2.3700
 4520TIP3    H237756   1.669   5.279   7.394  1.0593  0.1157 -1.6948
 4521TIP3   OH237757   4.967   1.411   9.640 -0.8077  0.5131  0.3620
 4521TIP3    H137758   4.975   1.389   9.733 -0.8554 -0.1589  0.2130
 4521TIP3    H237759   5.055   1.437   9.614 -0.8536  0.9725  0.6623
 4522TIP3   OH237760   1.956   0.906   8.663 -0.2713 -0.0616  0.0581
 4522TIP3    H137761   1.985   0.968   8.730 -0.4964 -0.1129  0.2033
 4522TIP3    H237762   1.863   0.924   8.653 -0.3111 -0.2924  0.0102
 4523TIP3   OH237763   6.652   6.137   6.517  0.1810  0.4754  0.1695
 4523TIP3    H137764   6.735   6.180   6.539  2.4903 -3.3430 -0.3095
 4523TIP3    H237765   6.608   6.127   6.602  1.2369  0.5986  0.7519
 4524TIP3   OH237766   1.554   4.718   8.289 -0.1878  0.3472 -0.2521
 4524TIP3    H137767   1.619   4.772   8.244 -0.6061  0.4984 -0.6811
 4524TIP3    H237768   1.604   4.643   8.321  0.3297  0.7973  0.0229
 4525TIP3   OH237769   5.687   0.136   7.752 -0.3246  0.1222 -0.4503
 4525TIP3    H137770   5.746   0.142   7.676 -0.3372  0.7920 -0.4179
 4525TIP3    H237771   5.650   0.224   7.760 -1.1934 -0.2402 -0.3570
 4526TIP3   OH237772   0.571   5.369   7.330  0.1340  0.4849 -0.4716
 4526TIP3    H137773   0.553   5.293   7.384  1.2891  0.1389 -0.5395
 4526TIP3    H237774   0.667   5.374   7.326  0.0789  1.5148 -1.0584
 4527TIP3   OH237775   3.556   4.777   8.541  0.0228  0.0593  0.2999
 4527TIP3    H137776   3.646   4.800   8.567  0.1566 -0.2506  0.1086
 4527TIP3    H237777   3.506   4.858   8.555  0.4852  0.4589 -0.3265
 4528TIP3   OH237778   3.665   2.057  22.823  0.6793 -0.7653 -0.0389
 4528TIP3    H137779   3.578   2.057  22.783  0.3058  0.1405  0.7335
 4528TIP3    H237780   3.724   2.083  22.752  0.0852  0.4152 -0.1214
 4529TIP3   OH237781   6.412   4.880   8.046  0.6574  0.0266  0.6718
 4529TIP3    H137782   6.353   4.902   8.119 -0.0847 -0.3935  0.2099
 4529TIP3    H237783   6.414   4.960   7.993  0.8569  0.1897  0.9229
 4530TIP3   OH237784   3.025   1.085   7.147  0.3726  0.2983 -0.0296
 4530TIP3    H137785   3.044   1.004   7.099  0.4163 -0.7443  1.6559
 4530TIP3    H237786   2.956   1.128   7.097 -0.4398 -1.3420 -0.3838
 4531TIP3   OH237787   2.294   3.096   7.445 -0.5458 -0.1133 -0.5744
 4531TIP3    H137788   2.293   3.088   7.350 -1.8299  0.4110 -0.6383
 4531TIP3    H237789   2.201   3.094   7.470 -0.4374  2.5346  0.3816
 4532TIP3   OH237790   2.583   6.082   7.409  0.6535  0.3913  0.1078
 4532TIP3    H137791   2.517   6.151   7.406  0.0449 -0.2179 -0.5504
 4532TIP3    H237792   2.556   6.026   7.481 -1.4950 -1.7452 -2.1657
 4533TIP3   OH237793   4.440   1.381   8.263  0.1777 -0.0433  0.1628
 4533TIP3    H137794   4.437   1.329   8.344  1.3012  1.4639  1.2341
 4533TIP3    H237795   4.401   1.465   8.287 -0.9201 -0.0993 -1.3226
 4534TIP3   OH237796   1.588   5.381   7.960 -1.0369 -0.1167  0.5649
 4534TIP3    H137797   1.521   5.314   7.947 -0.6317 -0.4187  0.0070
 4534TIP3    H237798   1.658   5.336   8.008  0.3633 -0.8597 -1.9546
 4535TIP3   OH237799   6.338   4.922   7.747 -0.1610  0.2559  0.0201
 4535TIP3    H137800   6.429   4.907   7.723 -0.3326  0.5551 -0.8416
 4535TIP3    H237801   6.296   4.836   7.742 -0.6281  0.5536 -2.6874
 4536TIP3   OH237802   0.156   5.371   7.496 -0.1763 -0.4344  0.0937
 4536TIP3    H137803   0.117   5.406   7.577  3.1403 -0.5103  1.9026
 4536TIP3    H237804   0.173   5.448   7.442  0.1792 -0.0551  0.7373
 4537TIP3   OH237805   5.035   3.268   7.836 -0.0113  0.2313 -0.1953
 4537TIP3    H137806   5.079   3.303   7.759  0.0272 -0.3690 -0.4534
 4537TIP3    H237807   4.966   3.332   7.856  0.4286  0.7454 -0.2980
 4538TIP3   OH237808   4.469   1.764   8.963 -0.5131 -0.5709  0.4597
 4538TIP3    H137809   4.517   1.681   8.970 -1.2819 -0.8852  2.5972
 4538TIP3    H237810   4.389   1.741   8.916 -0.4838 -0.9144  0.5720
 4539TIP3   OH237811   4.537   2.617   7.458 -0.2784  0.1585  0.4288
 4539TIP3    H137812   4.602   2.604   7.526 -1.0914 -0.6875  1.0657
 4539TIP3    H237813   4.583   2.667   7.390  1.3340 -1.2948  0.3956
 4540TIP3   OH237814   4.959   6.952   9.372 -0.0616  0.0522 -0.3026
 4540TIP3    H137815   4.889   7.016   9.364  0.4144  0.7043  0.5521
 4540TIP3    H237816   5.038   6.999   9.347  0.2436 -0.3130 -0.0468
 4541TIP3   OH237817   4.886   6.400   8.388  0.1190  0.0496  0.2316
 4541TIP3    H137818   4.889   6.418   8.482  0.9212  0.2300  0.1793
 4541TIP3    H237819   4.904   6.306   8.381 -0.4166 -0.0576  0.2853
 4542TIP3   OH237820   5.075   0.280   9.294  0.2404  0.3664  0.0832
 4542TIP3    H137821   5.007   0.233   9.246 -0.1346  1.3935 -0.4232
 4542TIP3    H237822   5.114   0.338   9.228  0.8945  0.5534  0.6244
 4543TIP3   OH237823   6.922   4.613   6.974  0.4721  0.0721 -0.1896
 4543TIP3    H137824   6.844   4.612   6.919  0.4367 -0.1134 -0.1386
 4543TIP3    H237825   6.989   4.656   6.920  0.2975  0.3559 -0.1791
 4544TIP3   OH237826   6.434   7.001   7.998 -0.4861 -0.5822 -0.4854
 4544TIP3    H137827   6.436   7.012   8.093 -0.2399 -0.6306 -0.4837
 4544TIP3    H237828   6.398   7.083   7.965 -0.7023 -0.6187 -0.3422
 4545TIP3   OH237829   5.467   0.100   8.197 -0.2970 -0.1051  0.3381
 4545TIP3    H137830   5.544   0.058   8.158 -0.9038 -0.9761  0.0611
 4545TIP3    H237831   5.400   0.095   8.129 -1.0352 -0.6707  1.0888
 4546TIP3   OH237832   4.884   7.473   8.820  0.0956  0.0045  0.6790
 4546TIP3    H137833   4.870   7.486   8.726  1.2015  1.4978  0.6836
 4546TIP3    H237834   4.827   7.399   8.842 -2.1349  1.2082 -0.6317
 4547TIP3   OH237835   4.176   1.303   9.482  0.3273  0.0378 -0.0527
 4547TIP3    H137836   4.208   1.394   9.484  0.8894 -0.1187 -1.1231
 4547TIP3    H237837   4.116   1.301   9.407  0.3846 -0.4863 -0.0883
 4548TIP3   OH237838   2.978   7.235   8.219  0.2461  0.3687  0.5083
 4548TIP3    H137839   2.908   7.191   8.267  0.4826 -0.6564 -0.0406
 4548TIP3    H237840   2.936   7.271   8.141 -0.4235  3.2902  2.0936
 4549TIP3   OH237841   7.521   6.270   6.884 -0.2315 -0.2079  0.3322
 4549TIP3    H137842   7.443   6.322   6.868  0.7676  1.0692 -0.6312
 4549TIP3    H237843   7.583   6.298   6.817  1.9043  0.5707  2.4549
 4550TIP3   OH237844   6.972   6.456   8.733  0.4495 -0.4629 -0.2496
 4550TIP3    H137845   6.944   6.543   8.704  2.8926  0.8254  0.9452
 4550TIP3    H237846   6.951   6.455   8.827  2.2595 -0.3041  0.1872
 4551TIP3   OH237847   4.537   5.902   9.175 -0.1739  0.0180 -0.6609
 4551TIP3    H137848   4.630   5.922   9.184 -0.3667  1.0566 -0.8288
 4551TIP3    H237849   4.525   5.822   9.226  0.3699  1.1892  1.4373
 4552TIP3   OH237850   7.127   4.854   7.328 -0.6950 -0.1843  0.3267
 4552TIP3    H137851   7.204   4.870   7.273 -1.9394  0.7674 -1.2239
 4552TIP3    H237852   7.088   4.941   7.341 -1.5230 -0.6469  1.0951
 4553TIP3   OH237853   5.055   0.538   7.652  0.2039 -0.0491 -0.5746
 4553TIP3    H137854   5.096   0.520   7.567  1.4072 -0.1614 -0.0001
 4553TIP3    H237855   4.965   0.563   7.631  1.3227  3.2487 -2.1694
 4554TIP3   OH237856   6.031   1.884   7.866  0.6160  0.7353 -0.0436
 4554TIP3    H137857   5.944   1.857   7.897  0.7561  0.1759 -0.1253
 4554TIP3    H237858   6.057   1.954   7.925  2.2456 -2.3393  3.2681
 4555TIP3   OH237859   3.288   0.704   8.704 -0.0152  0.2769 -0.0119
 4555TIP3    H137860   3.272   0.796   8.723  0.2059  0.0570  1.3866
 4555TIP3    H237861   3.344   0.674   8.776  0.8509 -0.6733 -1.0431
 4556TIP3   OH237862   3.065   2.851   9.552  0.6977  0.0605 -0.0926
 4556TIP3    H137863   3.132   2.919   9.558  0.5003  0.1644  1.7542
 4556TIP3    H237864   3.113   2.769   9.564  0.7210 -0.0026 -0.6109
 4557TIP3   OH237865   3.493   0.925   9.482  0.3358  0.5641  0.4033
 4557TIP3    H137866   3.581   0.959   9.499  0.6334  0.8903 -1.5755
 4557TIP3    H237867   3.434   0.991   9.517  0.8086  0.0008  2.4370
 4558TIP3   OH237868   7.444   6.698   8.019 -0.5537  0.1334  0.2062
 4558TIP3    H137869   7.408   6.728   7.935  1.6739  1.4759 -0.3932
 4558TIP3    H237870   7.530   6.661   7.995 -0.9096 -1.7415  1.6527
 4559TIP3   OH237871   0.706   2.081   8.277 -0.2329  0.3546  0.2193
 4559TIP3    H137872   0.755   2.083   8.360 -0.1205 -0.6618  0.1888
 4559TIP3    H237873   0.637   2.016   8.292 -0.3270  0.3000 -0.4296
 4560TIP3   OH237874   0.713   4.146   8.796  0.3444 -0.3615  0.1450
 4560TIP3    H137875   0.764   4.142   8.876  0.8363 -2.3495 -0.2030
 4560TIP3    H237876   0.737   4.229   8.755  1.2054 -0.0121  1.3272
 4561TIP3   OH237877   3.343   3.692   8.986 -0.4817  0.3479 -0.6622
 4561TIP3    H137878   3.295   3.716   8.907  0.1729  0.6778 -0.9655
 4561TIP3    H237879   3.332   3.768   9.044 -1.3828 -0.0976 -0.2259
 4562TIP3   OH237880   2.745   3.369   7.536 -0.0581 -0.8919  0.4319
 4562TIP3    H137881   2.748   3.374   7.632  1.4842 -1.7992  0.4665
 4562TIP3    H237882   2.814   3.429   7.507 -0.9581 -0.1083 -0.1687
 4563TIP3   OH237883   6.173   2.968   9.031  0.0420 -0.3060 -0.2660
 4563TIP3    H137884   6.122   2.889   9.012 -0.3978 -0.1034  0.0486
 4563TIP3    H237885   6.154   2.987   9.123 -1.4979  1.3316 -0.8707
 4564TIP3   OH237886   5.950   5.640   9.333 -0.0573  0.1944 -0.2762
 4564TIP3    H137887   5.868   5.691   9.333  0.6457  1.3635 -0.9541
 4564TIP3    H237888   5.966   5.621   9.426  0.2664  2.2403  0.1255
 4565TIP3   OH237889   7.502   6.179   9.194 -0.0333 -0.1342  0.8014
 4565TIP3    H137890   7.567   6.229   9.244  0.0016  2.1860 -1.3516
 4565TIP3    H237891   7.418   6.213   9.224 -0.0517  0.3302  0.2485
 4566TIP3   OH237892   2.056   5.357   8.178  0.5972  0.1899 -0.1895
 4566TIP3    H137893   2.059   5.407   8.096  0.9560 -0.0310 -0.3145
 4566TIP3    H237894   2.131   5.298   8.172 -0.6427 -1.4157 -0.7173
 4567TIP3   OH237895   2.898   2.248   9.529 -0.0440 -0.4386 -0.0087
 4567TIP3    H137896   2.836   2.210   9.468  0.4363 -3.1199  1.0408
 4567TIP3    H237897   2.858   2.237   9.615  0.9519 -0.2536  0.4987
 4568TIP3   OH237898   5.096   5.827   8.937 -0.1449  0.1914  0.3203
 4568TIP3    H137899   5.025   5.867   8.887  0.3424  0.7482  0.0746
 4568TIP3    H237900   5.121   5.751   8.885  0.6396  0.9963 -0.5145
 4569TIP3   OH237901   0.586   6.613   8.039 -0.5712  0.2014 -0.4424
 4569TIP3    H137902   0.641   6.617   7.961  0.4380  2.6768  0.3018
 4569TIP3    H237903   0.641   6.571   8.105 -0.4878  0.4268 -0.3684
 4570TIP3   OH237904   1.430   2.996   8.266  0.3694 -0.5070  0.3946
 4570TIP3    H137905   1.345   2.960   8.290  0.3014 -0.7770 -0.2337
 4570TIP3    H237906   1.415   3.091   8.264 -0.3291 -0.6080 -1.1532
 4571TIP3   OH237907   7.199   7.484   8.955 -0.1434 -0.1343  0.3599
 4571TIP3    H137908   7.132   7.432   9.000  0.1680 -0.2444  0.6940
 4571TIP3    H237909   7.149   7.552   8.909 -0.4743 -0.1142  0.7436
 4572TIP3   OH237910   1.527   7.179   7.780 -0.2551 -0.0012 -0.3837
 4572TIP3    H137911   1.467   7.110   7.751  0.9618 -0.2479 -2.5369
 4572TIP3    H237912   1.611   7.134   7.793  0.4620  0.9883 -1.4337
 4573TIP3   OH237913   3.480   1.256   7.158  0.0663 -0.1871  0.3729
 4573TIP3    H137914   3.441   1.236   7.073 -1.1880 -2.7464  1.4612
 4573TIP3    H237915   3.574   1.252   7.142 -0.0985  0.9526 -1.1933
 4574TIP3   OH237916   0.095   5.750   8.255  0.3138  0.0013  0.1479
 4574TIP3    H137917   0.120   5.715   8.169 -0.9554  1.4212 -0.8472
 4574TIP3    H237918   0.009   5.710   8.273  0.5926 -0.3264  0.8006
 4575TIP3   OH237919   2.416   2.317   8.567  0.2295 -0.4844  0.7467
 4575TIP3    H137920   2.326   2.300   8.539 -0.1973  1.5868  0.6951
 4575TIP3    H237921   2.470   2.266   8.507 -0.8810 -1.3607  0.4565
 4576TIP3   OH237922   1.632   2.060   7.796 -0.1004  0.2387 -0.2531
 4576TIP3    H137923   1.723   2.068   7.767 -0.2096  2.7991 -0.1799
 4576TIP3    H237924   1.638   2.047   7.891  0.2363  1.1963 -0.1263
 4577TIP3   OH237925   7.068   6.445   6.798 -0.5832 -0.0237  0.2621
 4577TIP3    H137926   7.107   6.532   6.789  1.6987 -0.8803  0.8589
 4577TIP3    H237927   7.052   6.436   6.892 -2.9942  0.5421 -0.0293
 4578TIP3   OH237928   1.678   2.367   9.385 -0.0926  0.0426  0.0893
 4578TIP3    H137929   1.583   2.378   9.379 -0.1298  0.1936  0.8719
 4578TIP3    H237930   1.700   2.399   9.473  1.0867  3.0187 -1.1590
 4579TIP3   OH237931   0.987   0.208   7.172  0.6688  0.4302 -0.2475
 4579TIP3    H137932   0.937   0.166   7.242  1.5697  0.0205  0.1655
 4579TIP3    H237933   0.993   0.141   7.103  1.8814 -0.0508  0.3039
 4580TIP3   OH237934   1.309   2.197   8.731 -0.1525  0.3448 -0.1942
 4580TIP3    H137935   1.376   2.250   8.776 -0.9957  1.7835 -0.5918
 4580TIP3    H237936   1.317   2.221   8.639  3.4105 -4.5384 -1.5434
 4581TIP3   OH237937   2.536   5.917   7.630 -0.5545  0.0557 -0.3037
 4581TIP3    H137938   2.575   5.873   7.705 -0.9271  0.0615 -0.1014
 4581TIP3    H237939   2.480   5.850   7.589  0.2499 -0.1811 -1.0362
 4582TIP3   OH237940   5.435   6.215   7.832  0.4045  0.5484  0.0247
 4582TIP3    H137941   5.398   6.235   7.918  0.3942 -1.4897  0.5520
 4582TIP3    H237942   5.506   6.277   7.821  0.9967  0.2646  1.9371
 4583TIP3   OH237943   3.505   5.465   8.219  0.3088 -0.0144  0.1090
 4583TIP3    H137944   3.521   5.379   8.180  0.3451 -0.1564  0.4303
 4583TIP3    H237945   3.532   5.455   8.310 -2.7573 -0.6508  1.0610
 4584TIP3   OH237946   6.571   3.319   7.967 -0.3741 -0.5101 -0.3903
 4584TIP3    H137947   6.533   3.340   7.881 -0.5934 -0.0664 -0.1872
 4584TIP3    H237948   6.631   3.247   7.949 -1.8085 -1.7099 -0.6180
 4585TIP3   OH237949   6.755   7.357   9.523 -0.5836  0.4237 -0.2354
 4585TIP3    H137950   6.712   7.442   9.512 -1.3720  0.0967  0.2713
 4585TIP3    H237951   6.847   7.379   9.539 -0.8913  1.2095  0.5450
 4586TIP3   OH237952   2.169   6.008   8.659  0.1430 -0.1968  0.1820
 4586TIP3    H137953   2.107   6.016   8.732 -0.2114  0.0294 -0.1387
 4586TIP3    H237954   2.238   5.952   8.692  0.0341 -0.0135  0.7302
 4587TIP3   OH237955   3.408   3.772   6.897  0.2778  0.1401  0.5817
 4587TIP3    H137956   3.379   3.863   6.898 -0.5960 -0.1301  0.8562
 4587TIP3    H237957   3.377   3.736   6.981  1.7658 -0.0645  1.0822
 4588TIP3   OH237958   4.722   5.131   7.213  0.3561  0.1043 -0.1726
 4588TIP3    H137959   4.754   5.046   7.244 -1.5305  0.2740  2.5596
 4588TIP3    H237960   4.630   5.114   7.191  0.7078  0.8496 -2.5245
 4589TIP3   OH237961   3.654   5.954   7.992  0.2538  0.0996 -0.2467
 4589TIP3    H137962   3.585   5.981   8.053  0.9458 -1.5483  1.3867
 4589TIP3    H237963   3.645   5.858   7.988  1.5336  0.0055 -1.1273
 4590TIP3   OH237964   1.298   0.042   8.825 -0.8201 -0.1515  0.0065
 4590TIP3    H137965   1.252   0.065   8.744 -0.3219 -1.4646 -0.6768
 4590TIP3    H237966   1.385   0.016   8.796  0.6727  2.8288  1.3078
 4591TIP3   OH237967   0.496   3.687   8.294 -0.1151 -0.0243 -0.4747
 4591TIP3    H137968   0.559   3.750   8.329  0.8712 -1.0729 -0.2855
 4591TIP3    H237969   0.524   3.603   8.330 -0.8700 -0.6990 -1.4115
 4592TIP3   OH237970   3.187   0.474   9.550 -0.1839 -0.2720 -0.3630
 4592TIP3    H137971   3.225   0.559   9.530 -1.1968  0.4476  0.6196
 4592TIP3    H237972   3.248   0.410   9.514  0.4199  0.8756 -1.4070
 4593TIP3   OH237973   5.681   4.013   6.846  0.6193  0.0465 -0.0830
 4593TIP3    H137974   5.731   3.962   6.783  0.4344 -0.0756 -0.1332
 4593TIP3    H237975   5.633   3.948   6.897 -0.3204  0.2008 -0.7400
 4594TIP3   OH237976   1.313   2.219   7.675  0.3289  0.1340  0.0268
 4594TIP3    H137977   1.357   2.297   7.709 -0.6101  0.4987  0.4390
 4594TIP3    H237978   1.299   2.237   7.582  1.1298 -0.0299 -0.1305
 4595TIP3   OH237979   3.702   4.183   7.485  0.1767 -0.1110  0.8392
 4595TIP3    H137980   3.637   4.234   7.437 -1.5127 -0.2583  2.8063
 4595TIP3    H237981   3.761   4.249   7.523  0.6758  0.0745 -0.2282
 4596TIP3   OH237982   1.981   1.680   8.044  0.1667 -0.2218  0.1122
 4596TIP3    H137983   1.999   1.772   8.026 -2.3473 -0.0752 -2.2000
 4596TIP3    H237984   1.934   1.681   8.128  1.2379  0.4040  0.7374
 4597TIP3   OH237985   0.033   7.630   8.489  0.3022  0.7141 -0.3399
 4597TIP3    H137986   0.110   7.603   8.439  0.1508  0.3890 -0.3940
 4597TIP3    H237987   0.065   7.640   8.578  0.2439 -0.1429 -0.2181
 4598TIP3   OH237988   1.977   1.253   7.908  0.0773  0.5107  0.6700
 4598TIP3    H137989   1.965   1.344   7.880  3.0690  0.9522  0.4228
 4598TIP3    H237990   1.992   1.258   8.002 -3.9676 -0.3128  1.5129
 4599TIP3   OH237991   6.902   3.512   6.829 -0.2137 -0.4423  0.3700
 4599TIP3    H137992   6.982   3.547   6.868  0.4724 -0.9227 -0.5374
 4599TIP3    H237993   6.885   3.432   6.878  0.2201 -0.6530  0.1907
 4600TIP3   OH237994   4.676   2.168   9.077 -0.5957 -0.0806 -0.6157
 4600TIP3    H137995   4.632   2.119   9.007 -1.6516 -0.6346  0.4015
 4600TIP3    H237996   4.613   2.170   9.148  1.4017 -1.9269  1.3618
 4601TIP3   OH237997   6.658   3.658   6.802  0.3889  0.1896  0.2203
 4601TIP3    H137998   6.745   3.636   6.768  0.1327 -1.9404  0.7916
 4601TIP3    H237999   6.599   3.641   6.729  0.0647 -2.4169  0.9759
 4602TIP3   OH238000   4.555   0.994   8.903  0.0450 -0.0889  0.0229
 4602TIP3    H138001   4.633   1.027   8.948  0.8903 -1.8581 -0.0538
 4602TIP3    H238002   4.541   0.907   8.940 -1.0461 -0.3746 -0.9980
 4603TIP3   OH238003   3.911   4.252   8.539  0.5179  0.2239  0.1541
 4603TIP3    H138004   3.950   4.195   8.606  0.4869  0.7383  0.6119
 4603TIP3    H238005   3.925   4.340   8.571  2.3924  0.6223 -1.4935
 4604TIP3   OH238006   1.036   2.816   8.887  0.1890  0.1331  0.3371
 4604TIP3    H138007   1.046   2.802   8.793 -0.0772 -1.6269  0.5252
 4604TIP3    H238008   0.941   2.819   8.901  0.2245  1.7189  0.4125
 4605TIP3   OH238009   5.881   5.135   7.742  0.4614 -0.4954 -0.3950
 4605TIP3    H138010   5.906   5.088   7.663  0.6781  1.0026 -1.2678
 4605TIP3    H238011   5.809   5.192   7.714  1.3339  0.9414  0.1404
 4606TIP3   OH238012   5.021   7.402   7.240  0.2793 -0.2660  0.5477
 4606TIP3    H138013   5.034   7.492   7.268  0.1320 -0.7661  2.3633
 4606TIP3    H238014   5.074   7.393   7.161  1.3928  1.0218  1.1079
 4607TIP3   OH238015   2.487   4.651   9.161  0.4372 -0.2643 -0.2367
 4607TIP3    H138016   2.472   4.743   9.184 -1.4051 -0.5056 -0.3259
 4607TIP3    H238017   2.526   4.612   9.239  0.4244  0.4128  0.1114
 4608TIP3   OH238018   6.093   1.391   7.056  0.0535 -0.1415  0.7752
 4608TIP3    H138019   6.150   1.462   7.086 -0.2174  0.6863 -0.5986
 4608TIP3    H238020   6.120   1.375   6.966 -1.5739 -0.0411  0.2366
 4609TIP3   OH238021   1.681   7.241   9.128  0.0509 -0.9352 -0.3739
 4609TIP3    H138022   1.706   7.225   9.219  0.1493 -1.5444 -0.5042
 4609TIP3    H238023   1.719   7.327   9.107 -0.6538 -0.4103  0.3976
 4610TIP3   OH238024   1.849   7.644   7.441 -0.1282  0.2373  0.3019
 4610TIP3    H138025   1.910   7.701   7.487  0.0224 -0.0922  0.5209
 4610TIP3    H238026   1.812   7.698   7.371  0.7549  0.3200 -0.1216
 4611TIP3   OH238027   4.299   3.252   8.441  0.0979  0.0303 -0.0972
 4611TIP3    H138028   4.316   3.315   8.371 -0.3983  0.1166 -0.1411
 4611TIP3    H238029   4.386   3.220   8.466  0.2182 -1.1251 -1.7849
 4612TIP3   OH238030   7.101   0.595   8.652  0.2018  0.3917 -0.3457
 4612TIP3    H138031   7.143   0.570   8.570 -0.0003 -0.7102 -0.1436
 4612TIP3    H238032   7.011   0.617   8.628 -0.5768 -2.2490 -0.1825
 4613TIP3   OH238033   3.278   0.976   6.532 -0.5004 -0.1196 -0.3080
 4613TIP3    H138034   3.269   1.017   6.618 -0.6630  0.3336 -0.5383
 4613TIP3    H238035   3.337   0.902   6.546  1.2770  1.2657 -0.2539
 4614TIP3   OH238036   2.922   5.826   8.348 -0.1578  0.6395  0.4858
 4614TIP3    H138037   2.923   5.735   8.376  1.3418  0.5822  0.3117
 4614TIP3    H238038   2.833   5.840   8.314 -0.2414 -0.9015  0.0275
 4615TIP3   OH238039   0.414   1.612   9.386 -0.3978  0.1629  0.2843
 4615TIP3    H138040   0.461   1.629   9.305  0.5762  0.4888  0.9041
 4615TIP3    H238041   0.358   1.537   9.366 -1.8067  1.5680 -1.3264
 4616TIP3   OH238042   1.195   6.890   8.090 -0.0162 -0.3358  0.8558
 4616TIP3    H138043   1.163   6.978   8.068 -1.1411 -1.0100 -0.3489
 4616TIP3    H238044   1.158   6.872   8.177  0.4216  0.4564  1.2217
 4617TIP3   OH238045   0.911   7.070   8.457  0.0584  0.1241  1.0730
 4617TIP3    H138046   0.821   7.057   8.485  0.5946 -2.8989  1.7559
 4617TIP3    H238047   0.961   7.078   8.539  0.6147 -0.0556  0.7592
 4618TIP3   OH238048   7.554   4.448   6.821  0.1453  0.0808 -0.4163
 4618TIP3    H138049   7.500   4.475   6.747  0.3532  2.0904  0.0927
 4618TIP3    H238050   7.632   4.410   6.782 -0.1879  0.1851 -1.2090
 4619TIP3   OH238051   6.299   5.607   9.118 -0.2898 -0.0890 -0.0626
 4619TIP3    H138052   6.215   5.623   9.077  0.8539 -0.5810 -2.8549
 4619TIP3    H238053   6.323   5.519   9.090  0.6164 -0.4786  1.7512
 4620TIP3   OH238054   6.482   1.106   6.944 -0.1641  0.1089  0.0048
 4620TIP3    H138055   6.508   1.016   6.963  0.8234  0.5835  1.0243
 4620TIP3    H238056   6.408   1.098   6.884 -0.5237 -1.3931  0.6243
 4621TIP3   OH238057   5.321   5.421   9.207  0.2191 -0.0700 -0.2832
 4621TIP3    H138058   5.336   5.368   9.285  0.6010  0.0374 -0.2844
 4621TIP3    H238059   5.330   5.359   9.134  1.8080  0.2216 -0.3521
 4622TIP3   OH238060   1.584   2.197   7.289 -0.1697  0.0903 -0.4661
 4622TIP3    H138061   1.569   2.148   7.207 -1.9530 -0.3938  0.1095
 4622TIP3    H238062   1.497   2.221   7.319  0.4918  0.7602  1.0156
 4623TIP3   OH238063   7.554   1.617   8.161  0.2302 -0.0951 -0.8291
 4623TIP3    H138064   7.507   1.536   8.181  1.0068 -0.0892  1.3082
 4623TIP3    H238065   7.487   1.686   8.165  0.0141 -0.3441 -0.0491
 4624TIP3   OH238066   3.916   6.193   7.787  0.1799  0.1386  0.0655
 4624TIP3    H138067   3.966   6.143   7.851  0.9606  1.5991  0.6565
 4624TIP3    H238068   3.981   6.217   7.720 -0.2214  0.1677 -0.3157
 4625TIP3   OH238069   7.614   5.437   8.470 -0.8205  0.2654 -0.2715
 4625TIP3    H138070   7.583   5.476   8.388 -2.0507  0.7680  0.4026
 4625TIP3    H238071   7.608   5.508   8.533  0.6613  0.0460  0.1592
 4626TIP3   OH238072   7.600   4.361   7.520  0.0295 -0.3407 -0.0080
 4626TIP3    H138073   7.586   4.297   7.450  0.5983  0.3540 -0.7718
 4626TIP3    H238074   7.517   4.408   7.527 -0.1146 -0.5886 -0.0269
 4627TIP3   OH238075   0.072   5.776   8.921 -0.3324 -0.3153 -0.3433
 4627TIP3    H138076  -0.000   5.810   8.869 -1.5304 -2.2075 -0.0117
 4627TIP3    H238077   0.143   5.839   8.908 -2.2104  1.9931 -0.1398
 4628TIP3   OH238078   0.067   0.674   8.194  0.3371  0.3022  0.0444
 4628TIP3    H138079   0.107   0.593   8.163 -0.2642 -0.1597  0.4532
 4628TIP3    H238080  -0.007   0.646   8.248 -1.3654  1.1397 -1.7379
 4629TIP3   OH238081   2.706   1.409   9.336  0.0110 -0.2785  0.2835
 4629TIP3    H138082   2.738   1.440   9.252  2.7793 -0.1655  1.2802
 4629TIP3    H238083   2.631   1.353   9.314 -0.2794  0.9284 -2.0942
 4630TIP3   OH238084   2.179   1.986   6.249  0.1037  0.2064  0.3113
 4630TIP3    H138085   2.268   1.954   6.257 -0.6695 -1.8665  1.2659
 4630TIP3    H238086   2.188   2.071   6.205  2.3696 -0.7305 -1.2066
 4631TIP3   OH238087   1.068   4.909   9.045 -0.2133 -0.0834 -0.0527
 4631TIP3    H138088   1.002   4.956   8.993  0.5334 -1.0810 -2.0014
 4631TIP3    H238089   1.149   4.959   9.031  0.0656 -0.5578 -0.1748
 4632TIP3   OH238090   1.400   5.533   8.777 -0.8447  0.7794  0.0695
 4632TIP3    H138091   1.456   5.459   8.756  0.1416  1.9599 -1.6892
 4632TIP3    H238092   1.366   5.514   8.864  0.9148 -0.7897  0.4554
 4633TIP3   OH238093   7.666   6.570   7.543 -0.3851 -0.0168 -0.6309
 4633TIP3    H138094   7.723   6.643   7.566  1.3119 -0.0451 -4.0312
 4633TIP3    H238095   7.624   6.598   7.461 -1.0578 -2.1250 -1.0757
 4634TIP3   OH238096   6.232   2.657   7.184 -0.2496  0.8164  0.1571
 4634TIP3    H138097   6.208   2.612   7.265 -0.4876 -1.0507 -0.8915
 4634TIP3    H238098   6.327   2.643   7.176  0.2600  3.0647  1.2596
 4635TIP3   OH238099   1.449   2.923   7.909 -0.3891 -0.5684  0.6761
 4635TIP3    H138100   1.377   2.942   7.848 -0.2858 -0.1653  0.6777
 4635TIP3    H238101   1.505   2.862   7.861  0.1447  0.4053  0.0252
 4636TIP3   OH238102   7.157   0.220   9.004  0.9576  0.1518  0.0682
 4636TIP3    H138103   7.191   0.145   9.054  0.4180  0.2655  0.6150
 4636TIP3    H238104   7.125   0.281   9.071 -0.0226  0.1936 -0.4267
 4637TIP3   OH238105   0.479   6.973   8.358  0.2475 -0.4449 -0.0409
 4637TIP3    H138106   0.532   7.002   8.432  2.0134 -0.3744 -1.2825
 4637TIP3    H238107   0.411   7.039   8.350  0.4912 -0.0454  1.0387
 4638TIP3   OH238108   5.040   6.465   9.549 -0.5879  0.2204 -0.3677
 4638TIP3    H138109   5.132   6.462   9.575 -0.9626  0.6230  1.0814
 4638TIP3    H238110   5.028   6.555   9.517 -0.5393  0.2424 -0.3255
 4639TIP3   OH238111   4.513   7.228   7.851 -0.2197 -0.5455 -0.6225
 4639TIP3    H138112   4.549   7.258   7.768  0.1658 -0.0230 -0.2803
 4639TIP3    H238113   4.586   7.236   7.913 -0.6325 -0.4594 -0.1325
 4640TIP3   OH238114   4.935   6.495   8.906 -0.8151  0.3398 -0.0417
 4640TIP3    H138115   5.015   6.548   8.904 -0.1042 -0.7218 -0.9573
 4640TIP3    H238116   4.896   6.515   8.991  1.6731 -0.8979  1.5221
 4641TIP3   OH238117   4.826   1.251   7.703  0.2015 -0.0127 -0.3607
 4641TIP3    H138118   4.834   1.185   7.772  1.4190  0.0808 -0.3930
 4641TIP3    H238119   4.784   1.204   7.631 -0.6989 -0.2256  0.2801
 4642TIP3   OH238120   2.931   0.223   9.120  0.4524  0.5417  0.0762
 4642TIP3    H138121   2.902   0.216   9.029 -1.8470  0.8238  0.7424
 4642TIP3    H238122   2.927   0.134   9.154  1.3353  0.4329 -0.0619
 4643TIP3   OH238123   1.012   2.255   8.715 -0.0662  0.3794 -0.0938
 4643TIP3    H138124   1.093   2.214   8.686 -1.1514 -1.2729 -1.0183
 4643TIP3    H238125   0.944   2.191   8.692 -1.6703  1.8748  0.2795
 4644TIP3   OH238126   7.564   2.410   7.559 -0.3526 -0.0764 -0.2658
 4644TIP3    H138127   7.554   2.385   7.651  0.6956  0.2062 -0.0605
 4644TIP3    H238128   7.639   2.358   7.528 -0.0973  0.5399 -0.6917
 4645TIP3   OH238129   6.928   7.270   8.300  0.1329 -0.0199 -0.2293
 4645TIP3    H138130   6.999   7.222   8.342 -0.0170 -0.3429 -0.3427
 4645TIP3    H238131   6.860   7.276   8.366 -1.0174 -2.4970 -1.0942
 4646TIP3   OH238132   2.691   7.006   9.212  0.2337  0.5277  0.0571
 4646TIP3    H138133   2.759   7.049   9.160  0.4223 -0.8249 -0.8747
 4646TIP3    H238134   2.718   6.914   9.216 -0.6166  0.3104  1.2172
 4647TIP3   OH238135   3.040   2.156   7.444  0.1513  0.2011 -0.0547
 4647TIP3    H138136   3.049   2.177   7.351  0.1183 -0.0811 -0.1216
 4647TIP3    H238137   3.130   2.152   7.476  0.1578  0.4428 -0.0421
 4648TIP3   OH238138   5.963   7.008   9.462 -0.3891  0.4498  0.4406
 4648TIP3    H138139   5.923   6.973   9.383  1.9971 -1.6199  0.0169
 4648TIP3    H238140   5.997   6.931   9.509  1.7821  1.8737  1.4041
 4649TIP3   OH238141   2.776   2.546   9.031  0.6823  0.4089  0.2392
 4649TIP3    H138142   2.723   2.602   8.974  0.4058 -0.3497 -0.2750
 4649TIP3    H238143   2.805   2.603   9.101 -0.1205  1.0447  0.0716
 4650TIP3   OH238144   3.621   0.894   6.685 -0.6383 -0.1901 -1.0066
 4650TIP3    H138145   3.640   0.947   6.608  0.5668  0.7501 -0.0850
 4650TIP3    H238146   3.555   0.944   6.733 -0.7094 -0.3297 -0.9569
 4651TIP3   OH238147   3.528   0.113   7.399 -0.3453  0.0469 -0.3148
 4651TIP3    H138148   3.572   0.178   7.454  0.0782 -0.1050 -0.4701
 4651TIP3    H238149   3.442   0.151   7.382 -0.4726  0.1093  0.4232
 4652TIP3   OH238150   4.033   4.016   6.853 -0.0876 -0.0044  0.4820
 4652TIP3    H138151   4.125   4.041   6.860  0.3499 -1.6970  1.0370
 4652TIP3    H238152   4.030   3.923   6.874 -2.1841  0.4051  2.4920
 4653TIP3   OH238153   2.572   3.250   7.352  0.0371 -0.1334 -0.0197
 4653TIP3    H138154   2.502   3.308   7.320  1.4415  0.4684 -2.2839
 4653TIP3    H238155   2.623   3.304   7.412 -1.3240 -0.5514  1.5787
 4654TIP3   OH238156   5.777   7.270   8.865 -0.3596 -0.2662  0.2825
 4654TIP3    H138157   5.802   7.299   8.953  0.3080  0.4855 -0.1474
 4654TIP3    H238158   5.856   7.281   8.812 -0.4104 -1.8281 -0.1615
 4655TIP3   OH238159   7.181   2.178   7.619 -0.2784  0.3200 -0.1161
 4655TIP3    H138160   7.187   2.088   7.588  1.5579  0.4161 -0.1596
 4655TIP3    H238161   7.201   2.232   7.543  0.1674  0.7019  0.2629
 4656TIP3   OH238162   7.250   5.009   8.408 -0.4969  0.4109  0.5720
 4656TIP3    H138163   7.301   4.960   8.472  0.0679 -0.6107 -0.6378
 4656TIP3    H238164   7.303   5.087   8.391 -0.8590  0.9155  1.6501
 4657TIP3   OH238165   1.968   5.316   7.190  0.1650 -0.2727 -0.4593
 4657TIP3    H138166   1.911   5.379   7.146  0.3711  0.8589  0.8334
 4657TIP3    H238167   2.049   5.317   7.138 -1.5207 -3.4980 -3.6282
 4658TIP3   OH238168   6.760   3.360   8.650  0.3035  0.5379 -0.0885
 4658TIP3    H138169   6.669   3.387   8.635  0.2222 -0.7682 -2.4747
 4658TIP3    H238170   6.813   3.435   8.625 -0.0463  0.0198 -2.6049
 4659TIP3   OH238171   4.128   1.287   9.185 -0.0006  0.3322  0.1859
 4659TIP3    H138172   4.079   1.347   9.128  1.5918  0.5995 -0.9828
 4659TIP3    H238173   4.219   1.297   9.157  0.3361 -2.6297 -0.0775
 4660TIP3   OH238174   5.661   2.694   7.793  0.1073  0.2585  0.4090
 4660TIP3    H138175   5.576   2.739   7.790 -0.4581 -0.8173 -0.3608
 4660TIP3    H238176   5.647   2.620   7.851  0.9256  0.8321  1.3663
 4661TIP3   OH238177   2.075   7.410   8.388  0.2045 -0.1408  0.0726
 4661TIP3    H138178   2.150   7.354   8.367 -0.8853 -1.8243  0.4774
 4661TIP3    H238179   2.000   7.363   8.352 -0.7644  1.0694  0.4686
 4662TIP3   OH238180   3.977   2.985   7.756  0.4412 -0.3353 -0.6410
 4662TIP3    H138181   4.069   2.962   7.769  0.8588  0.7892 -1.4506
 4662TIP3    H238182   3.951   2.932   7.680  1.2959  1.4421 -2.2669
 4663TIP3   OH238183   1.362   0.709   7.811  0.3451  0.1566 -0.1720
 4663TIP3    H138184   1.287   0.733   7.866  0.4307 -2.4743  1.2595
 4663TIP3    H238185   1.332   0.723   7.721 -0.5148  2.6469  0.4290
 4664TIP3   OH238186   7.598   1.995   7.805 -0.1346  0.0482 -0.4061
 4664TIP3    H138187   7.613   2.069   7.745  1.4111 -0.9530 -1.3233
 4664TIP3    H238188   7.677   1.991   7.859 -0.3595 -0.7072 -0.1189
 4665TIP3   OH238189   6.831   1.359   7.642 -0.2277 -0.5443  0.1076
 4665TIP3    H138190   6.858   1.395   7.557  0.8830  0.2855  0.7858
 4665TIP3    H238191   6.752   1.409   7.664  0.9760  1.1830  0.7700
 4666TIP3   OH238192   3.772   6.769   8.835 -0.2847 -0.4515  0.7618
 4666TIP3    H138193   3.719   6.704   8.790  2.2198 -2.0704 -0.0583
 4666TIP3    H238194   3.773   6.740   8.926  0.8508 -1.6683  0.3956
 4667TIP3   OH238195   1.473   1.431   7.939  0.1197 -0.2954  0.3871
 4667TIP3    H138196   1.388   1.463   7.910  0.6418  0.8159  0.0337
 4667TIP3    H238197   1.487   1.350   7.889 -0.6888 -0.4598  0.4107
 4668TIP3   OH238198   1.295   1.645   6.970 -0.6327 -0.2166  0.6502
 4668TIP3    H138199   1.306   1.551   6.954 -0.0407 -0.4098  2.1078
 4668TIP3    H238200   1.244   1.676   6.894  2.0124 -1.0271 -1.6250
 4669TIP3   OH238201   6.528   4.661   7.516  0.1948  0.1769  0.1744
 4669TIP3    H138202   6.509   4.616   7.598 -2.4013  0.5354 -0.1634
 4669TIP3    H238203   6.519   4.593   7.449 -0.2225  0.4295 -0.0275
 4670TIP3   OH238204   1.068   4.931   8.501 -0.2127  0.1891  0.5461
 4670TIP3    H138205   1.110   5.009   8.538 -0.2331 -0.4354  1.9562
 4670TIP3    H238206   1.140   4.871   8.485 -0.0630  0.8520 -1.5806
 4671TIP3   OH238207   4.811   0.971   7.285  0.1888  0.5611  0.6208
 4671TIP3    H138208   4.832   0.898   7.227 -0.4267  0.6365  0.2866
 4671TIP3    H238209   4.822   1.049   7.229  0.9875  0.7351  1.0147
 4672TIP3   OH238210   3.774   5.037   7.415 -0.1370  0.1563 -0.0292
 4672TIP3    H138211   3.805   4.996   7.496  2.2836  1.3697 -0.2372
 4672TIP3    H238212   3.842   5.017   7.351 -1.1155  0.7518 -1.3019
 4673TIP3   OH238213   4.340   1.491   8.539  0.6103  0.3412  0.3067
 4673TIP3    H138214   4.279   1.428   8.577  2.7811 -2.0772  0.0843
 4673TIP3    H238215   4.401   1.512   8.609  0.2059  1.8677  0.2313
 4674TIP3   OH238216   0.024   5.525   7.226  0.2597  0.0448 -0.7334
 4674TIP3    H138217   0.112   5.543   7.192  0.8403  1.3290  1.2936
 4674TIP3    H238218  -0.035   5.554   7.156  1.4287 -0.4384 -1.9523
 4675TIP3   OH238219   5.361   5.678   9.117 -0.0086 -0.0929  0.0090
 4675TIP3    H138220   5.333   5.761   9.155 -0.1089  0.0609 -0.4035
 4675TIP3    H238221   5.328   5.612   9.178 -0.2810  0.1472  0.1239
 4676TIP3   OH238222   1.933   4.288   8.420 -0.4355  0.1297  0.1991
 4676TIP3    H138223   1.948   4.379   8.392 -0.3888  0.1530  0.3008
 4676TIP3    H238224   1.914   4.241   8.339  1.3463 -0.1413 -0.1061
 4677TIP3   OH238225   0.364   4.638   7.806 -0.1649 -0.4735  0.1998
 4677TIP3    H138226   0.359   4.565   7.744  2.0124 -0.7130  0.2378
 4677TIP3    H238227   0.378   4.715   7.751 -0.7507 -0.3165  0.2635
 4678TIP3   OH238228   7.575   0.414   9.545 -0.2320  0.0725  0.1709
 4678TIP3    H138229   7.670   0.411   9.536 -0.1644  0.1323  0.8278
 4678TIP3    H238230   7.553   0.506   9.526  0.0382  0.4882  1.7042
 4679TIP3   OH238231   4.620   6.997   7.179  0.3571 -0.0458 -0.6383
 4679TIP3    H138232   4.658   6.993   7.091  1.7555  2.4176 -0.2442
 4679TIP3    H238233   4.694   7.017   7.236 -0.7201 -0.4345  0.9627
 4680TIP3   OH238234   0.242   4.124   7.456  0.1373  0.0614  0.4655
 4680TIP3    H138235   0.271   4.207   7.419 -0.9126 -0.4931 -1.8006
 4680TIP3    H238236   0.320   4.089   7.501  1.5110  0.8842 -1.1515
 4681TIP3   OH238237   0.688   7.159   9.339  0.2156  0.9316 -0.4921
 4681TIP3    H138238   0.649   7.218   9.404 -1.0861  0.0448 -0.4297
 4681TIP3    H238239   0.649   7.187   9.256  0.0882  0.5621 -0.5551
 4682TIP3   OH238240   0.613   1.384   7.283  0.1491  0.8539  0.2827
 4682TIP3    H138241   0.528   1.406   7.245 -0.9605  0.6862  2.5127
 4682TIP3    H238242   0.620   1.289   7.274 -0.1266  0.8124  0.4818
 4683TIP3   OH238243   5.117   0.772   8.030 -0.3655  0.2674  0.1494
 4683TIP3    H138244   5.151   0.733   7.949 -1.8930 -2.0485  0.5282
 4683TIP3    H238245   5.189   0.824   8.064  1.5123 -1.4763 -0.9295
 4684TIP3   OH238246   4.404   7.139   7.538 -0.2092 -0.1255  0.5378
 4684TIP3    H138247   4.497   7.149   7.557  0.0388  0.3631 -0.8424
 4684TIP3    H238248   4.373   7.074   7.601  1.1316 -0.5466  0.7839
 4685TIP3   OH238249   0.370   1.138   9.447  0.2212  0.0187 -0.1080
 4685TIP3    H138250   0.458   1.171   9.464  0.0855 -0.3033  1.3477
 4685TIP3    H238251   0.384   1.064   9.387  1.0047 -0.3664  0.5255
 4686TIP3   OH238252   7.300   0.060   9.193 -0.3905  0.6859  0.2828
 4686TIP3    H138253   7.345   0.136   9.228 -1.4654  1.8306 -0.7350
 4686TIP3    H238254   7.260   0.018   9.269  1.2164  0.4091  1.0117
 4687TIP3   OH238255   3.058   6.429   8.282 -0.1494 -0.1911  0.8158
 4687TIP3    H138256   3.072   6.369   8.355 -1.3414  0.1480  1.3395
 4687TIP3    H238257   3.146   6.444   8.246  0.2674 -1.5872  1.1852
 4688TIP3   OH238258   2.884   2.472   7.321  0.1349  0.1540  0.3076
 4688TIP3    H138259   2.956   2.528   7.349  0.1077  0.1030  0.4851
 4688TIP3    H238260   2.923   2.412   7.257  0.0607  0.6708 -0.2223
 4689TIP3   OH238261   4.937   2.023   8.873  0.2139 -0.0898  0.2952
 4689TIP3    H138262   4.902   2.056   8.956  0.6925  0.5862  0.2331
 4689TIP3    H238263   4.978   2.099   8.832  1.9857 -0.8912  0.4844
 4690TIP3   OH238264   6.552   6.481   8.757  0.2154  0.6658 -0.1307
 4690TIP3    H138265   6.561   6.570   8.790  1.3028  0.6772 -0.4295
 4690TIP3    H238266   6.639   6.457   8.727  0.4497 -1.1977  1.7339
 4691TIP3   OH238267   5.645   2.416   8.302 -0.2664  0.1925 -0.2863
 4691TIP3    H138268   5.560   2.376   8.283 -1.4938  2.4538 -0.0173
 4691TIP3    H238269   5.628   2.472   8.379  2.3811 -2.0011  2.1016
 4692TIP3   OH238270   1.384   0.764   8.145  0.2334 -0.3834 -0.5858
 4692TIP3    H138271   1.479   0.759   8.156  0.1199 -0.7996  0.2897
 4692TIP3    H238272   1.366   0.858   8.139  0.8897 -0.3609 -2.7470
 4693TIP3   OH238273   2.379   0.681   7.177 -0.7896 -0.3142 -0.1257
 4693TIP3    H138274   2.423   0.631   7.246 -0.6533 -2.0550 -1.3824
 4693TIP3    H238275   2.361   0.616   7.109 -1.8150  1.1353 -1.3097
 4694TIP3   OH238276   7.254   0.628   8.168 -0.1935  0.6792 -0.8289
 4694TIP3    H138277   7.233   0.550   8.218  1.9739  0.6801  0.1999
 4694TIP3    H238278   7.212   0.700   8.215  0.2101  0.4519 -0.1140
 4695TIP3   OH238279   6.593   7.412   8.265  0.0645 -0.0645  0.2100
 4695TIP3    H138280   6.523   7.439   8.323  0.1242 -0.5954  0.5380
 4695TIP3    H238281   6.557   7.422   8.177 -0.6615 -0.9514  0.3899
 4696TIP3   OH238282   3.259   1.550   8.990  0.0660 -0.0912 -0.1898
 4696TIP3    H138283   3.313   1.494   8.934  0.7746 -0.2053  0.5946
 4696TIP3    H238284   3.276   1.639   8.960  0.7584 -0.1206  0.0974
 4697TIP3   OH238285   3.169   6.252   6.330  0.0579  0.0627  0.0707
 4697TIP3    H138286   3.111   6.277   6.257 -1.1037 -0.0896  0.9079
 4697TIP3    H238287   3.168   6.328   6.388  0.6800  0.0440  0.1076
 4698TIP3   OH238288   3.901   5.371   7.718 -0.0673  0.5496 -0.0296
 4698TIP3    H138289   3.976   5.320   7.686 -0.6524 -0.0847 -0.4032
 4698TIP3    H238290   3.859   5.314   7.783 -0.9034  0.4184 -0.6697
 4699TIP3   OH238291   7.250   2.360   7.025 -0.0233 -0.3577  0.2567
 4699TIP3    H138292   7.227   2.452   7.038  0.1644 -0.2776  0.0327
 4699TIP3    H238293   7.204   2.336   6.944 -1.3170 -0.8923  1.1213
 4700TIP3   OH238294   4.259   4.582   8.131  0.2603  0.8354 -0.4258
 4700TIP3    H138295   4.203   4.522   8.080 -0.7174  2.2479 -1.0798
 4700TIP3    H238296   4.200   4.653   8.156  0.7187  0.2396  2.7063
 4701TIP3   OH238297   1.323   5.517   9.031  0.4627 -0.0026 -0.7019
 4701TIP3    H138298   1.232   5.491   9.019  0.4202 -0.9590  1.2448
 4701TIP3    H238299   1.318   5.600   9.078  0.5823 -0.0613 -0.5822
 4702TIP3   OH238300   6.205   5.393   8.337  0.3801  0.1566 -0.0177
 4702TIP3    H138301   6.164   5.449   8.404  0.8853  0.4182  0.0720
 4702TIP3    H238302   6.262   5.334   8.387  0.2466 -0.0943 -0.1595
 4703TIP3   OH238303   7.369   0.248   8.523  0.2122 -0.0438  0.0993
 4703TIP3    H138304   7.386   0.256   8.617  0.3062  0.8178  0.0190
 4703TIP3    H238305   7.452   0.218   8.486 -0.5917 -3.3747  0.6129
 4704TIP3   OH238306   3.993   3.298   9.220 -0.1423  0.3331  0.2185
 4704TIP3    H138307   3.902   3.269   9.222 -0.2331  0.5473 -0.4815
 4704TIP3    H238308   4.044   3.218   9.210 -0.3966  0.3567 -1.8574
 4705TIP3   OH238309   3.167   1.957   8.207  0.2161 -0.4348  0.3406
 4705TIP3    H138310   3.075   1.959   8.232  0.2818  0.7381  0.5237
 4705TIP3    H238311   3.210   2.018   8.267  0.4801  2.1210 -2.2477
 4706TIP3   OH238312   6.761   1.081   7.679 -0.0241  0.1720 -0.2770
 4706TIP3    H138313   6.797   1.169   7.665 -1.0251  0.4409 -1.2946
 4706TIP3    H238314   6.721   1.058   7.596  1.4691 -1.8856 -0.5030
 4707TIP3   OH238315   3.710   7.619   7.297  0.2387  0.0403 -0.0741
 4707TIP3    H138316   3.640   7.668   7.339  0.4245 -0.1770  0.5100
 4707TIP3    H238317   3.733   7.552   7.362  1.5782  0.6556  0.1182
 4708TIP3   OH238318   3.865   2.596   9.339  0.9058  0.2699 -0.4099
 4708TIP3    H138319   3.949   2.639   9.323  1.1369 -0.5314 -1.4531
 4708TIP3    H238320   3.803   2.643   9.283  1.3912 -1.4577 -2.5208
 4709TIP3   OH238321   1.162   0.871   7.071 -0.4282  0.4033 -0.4763
 4709TIP3    H138322   1.148   0.894   6.979  0.4022  0.4453 -0.5971
 4709TIP3    H238323   1.153   0.776   7.074  1.0789  0.2229 -0.9031
 4710TIP3   OH238324   5.564   7.535   7.718  0.0797  0.2045  0.3135
 4710TIP3    H138325   5.561   7.566   7.628  0.8477 -0.3850  0.0708
 4710TIP3    H238326   5.614   7.602   7.765 -0.6419  0.6977  0.3863
 4711TIP3   OH238327   3.055   4.413   7.535 -0.1645  0.0961 -0.2745
 4711TIP3    H138328   3.120   4.360   7.580 -0.5736 -0.8832 -0.8256
 4711TIP3    H238329   3.034   4.483   7.598  0.5010 -0.2848  0.3844
 4712TIP3   OH238330   6.045   7.152   8.358 -0.3120  0.0121  0.1654
 4712TIP3    H138331   5.993   7.232   8.351 -0.6231 -0.0982  1.1378
 4712TIP3    H238332   6.055   7.122   8.267 -1.6596  0.2155 -0.0677
 4713TIP3   OH238333   7.421   7.248   8.979  0.2156  0.0067 -0.0943
 4713TIP3    H138334   7.437   7.205   9.063  0.6496  1.2976  0.5214
 4713TIP3    H238335   7.454   7.187   8.914  2.2870  0.0519  0.8242
 4714TIP3   OH238336   6.584   5.608   7.630  0.3451  0.1067 -0.4121
 4714TIP3    H138337   6.624   5.581   7.712  1.5621  2.3464 -0.1908
 4714TIP3    H238338   6.555   5.527   7.590  1.0653 -1.1835  1.5396
 4715TIP3   OH238339   4.915   2.043   9.152 -0.4238  0.2546  0.1184
 4715TIP3    H138340   4.880   1.971   9.206 -1.9113 -0.6057 -1.8460
 4715TIP3    H238341   4.841   2.104   9.144  0.3252  1.2222  0.4310
 4716TIP3   OH238342   3.063   7.157   9.236  0.8399  0.2967 -0.2844
 4716TIP3    H138343   3.014   7.136   9.157 -2.0771  0.6870  1.2755
 4716TIP3    H238344   3.120   7.229   9.211  1.9266 -1.2213 -2.5883
 4717TIP3   OH238345   6.311   2.308   9.599  0.5620 -0.0619 -0.1073
 4717TIP3    H138346   6.337   2.272   9.514 -0.5586  0.2843 -0.6181
 4717TIP3    H238347   6.362   2.258   9.663  1.2475 -0.4930 -0.9611
 4718TIP3   OH238348   2.838   4.303   7.802 -0.0541 -0.0742  0.6563
 4718TIP3    H138349   2.757   4.281   7.849  0.9629 -0.2832  2.4313
 4718TIP3    H238350   2.826   4.394   7.774 -0.3257  0.4247  2.2890
 4719TIP3   OH238351   0.278   2.111   8.964 -0.1528  0.0943  0.7113
 4719TIP3    H138352   0.187   2.139   8.954  0.0973  0.3694 -1.0630
 4719TIP3    H238353   0.329   2.189   8.945  0.4810 -0.3379  0.6179
 4720TIP3   OH238354   0.933   7.577   8.746  0.0284 -0.6883  0.4053
 4720TIP3    H138355   0.947   7.531   8.663 -0.4516 -0.8571  0.4198
 4720TIP3    H238356   0.903   7.509   8.806  2.0316 -0.9422  1.2095
 4721TIP3   OH238357   7.266   2.681   7.947  0.3236 -0.0862 -0.4368
 4721TIP3    H138358   7.283   2.773   7.965 -0.1396  0.3128 -1.8811
 4721TIP3    H238359   7.331   2.657   7.882  2.3090 -1.6216  1.9399
 4722TIP3   OH238360   2.345   5.138   7.893 -0.1307 -0.2215  0.4278
 4722TIP3    H138361   2.391   5.168   7.815 -1.5225 -0.9157 -0.7028
 4722TIP3    H238362   2.414   5.122   7.957  1.1286 -0.4351 -0.9391
 4723TIP3   OH238363   3.467   2.577   7.636  0.0421  0.1637 -0.2208
 4723TIP3    H138364   3.448   2.525   7.558  1.3508  0.0674 -0.5042
 4723TIP3    H238365   3.545   2.627   7.614  2.1505 -1.9207  1.8838
 4724TIP3   OH238366   1.990   6.056   8.197 -0.0673  0.6440 -0.5883
 4724TIP3    H138367   2.030   6.142   8.215 -2.1817  1.4056  0.8835
 4724TIP3    H238368   2.020   6.001   8.269 -0.3187  0.7384 -0.4091
 4725TIP3   OH238369   1.997   6.757   8.990  0.0506 -0.0698  0.0557
 4725TIP3    H138370   2.029   6.715   9.070 -0.0432  1.6164  1.0293
 4725TIP3    H238371   1.941   6.828   9.021 -2.3111 -1.0868 -1.5568
 4726TIP3   OH238372   4.792   7.334   9.372  0.2964 -0.1152  0.9847
 4726TIP3    H138373   4.724   7.384   9.415  0.3828 -0.1540  1.1684
 4726TIP3    H238374   4.781   7.245   9.405  0.4250 -0.1256  1.0019
 4727TIP3   OH238375   3.277   5.684   7.354  0.0270 -0.8603  0.0229
 4727TIP3    H138376   3.191   5.673   7.313  1.6671 -2.5134 -3.3255
 4727TIP3    H238377   3.284   5.611   7.415 -2.5106  1.7269  3.8923
 4728TIP3   OH238378   4.427   1.189   8.091  0.0020 -0.0573  0.4594
 4728TIP3    H138379   4.414   1.103   8.130 -1.6040 -0.1588 -0.2347
 4728TIP3    H238380   4.412   1.251   8.163  0.1674 -0.3325  0.7283
 4729TIP3   OH238381   7.185   4.030   9.146  0.1334 -0.4995  0.1114
 4729TIP3    H138382   7.237   3.998   9.220 -0.8119 -1.9247  0.2016
 4729TIP3    H238383   7.104   3.979   9.150 -0.0728 -0.3724 -1.7089
 4730TIP3   OH238384   4.658   6.965   9.024 -0.3159  0.0195 -0.7099
 4730TIP3    H138385   4.747   6.932   9.034 -0.3990 -0.1495 -0.5178
 4730TIP3    H238386   4.603   6.887   9.023 -0.3355  0.0337 -2.3704
 4731TIP3   OH238387   5.882   5.052   9.527 -0.0420 -0.6004 -0.4631
 4731TIP3    H138388   5.951   4.988   9.508  0.5557 -0.2390  0.4182
 4731TIP3    H238389   5.929   5.134   9.539 -0.7199 -0.1764 -0.6884
 4732TIP3   OH238390   1.732   4.171   7.810  0.3805 -0.6664  0.1154
 4732TIP3    H138391   1.750   4.096   7.867  1.4068 -0.3414  0.2382
 4732TIP3    H238392   1.723   4.133   7.723  0.4604 -0.9830  0.2434
 4733TIP3   OH238393   7.446   4.159   9.212  0.2521  0.2140  0.4560
 4733TIP3    H138394   7.364   4.198   9.181  1.3411  3.4980  1.3412
 4733TIP3    H238395   7.418   4.083   9.264 -2.2483  1.3070  0.8487
 4734TIP3   OH238396   1.219   1.973   9.431 -0.3648  0.3135  0.2011
 4734TIP3    H138397   1.196   1.903   9.492  0.0858  0.7116  0.8475
 4734TIP3    H238398   1.300   2.010   9.467  1.3969 -1.1088 -2.0163
 4735TIP3   OH238399   1.075   6.806   7.857  0.4134  0.4834  0.5056
 4735TIP3    H138400   1.102   6.838   7.943  0.8637  2.2889 -0.2620
 4735TIP3    H238401   0.982   6.826   7.852  0.0340 -0.9804  1.1124
 4736TIP3   OH238402   7.391   0.892   8.124  0.0256 -0.3624 -0.0606
 4736TIP3    H138403   7.375   0.808   8.167 -0.6978 -0.8152 -1.1656
 4736TIP3    H238404   7.306   0.915   8.084  1.0651 -0.9118 -2.8137
 4737TIP3   OH238405   1.320   2.218   7.067  0.4229  0.4451 -0.4986
 4737TIP3    H138406   1.375   2.152   7.024  0.5752  0.8941 -1.0061
 4737TIP3    H238407   1.263   2.250   6.998  0.3705  0.8652 -0.2657
 4738TIP3   OH238408   5.810   2.887   8.187  0.7015  0.3552 -0.0137
 4738TIP3    H138409   5.766   2.803   8.192 -0.7305  0.8922 -2.2904
 4738TIP3    H238410   5.896   2.868   8.150  0.8162 -0.2059  0.5248
 4739TIP3   OH238411   4.621   4.092   7.348 -0.4097 -0.2346 -0.3905
 4739TIP3    H138412   4.590   4.183   7.357 -0.6649 -0.2745 -0.8534
 4739TIP3    H238413   4.621   4.076   7.254  2.0926  0.1141 -0.5203
 4740TIP3   OH238414   4.984   6.912   7.139 -0.3505 -0.2220  0.5177
 4740TIP3    H138415   5.019   6.830   7.174 -2.6860 -1.5855 -0.1346
 4740TIP3    H238416   4.939   6.952   7.213 -2.2470 -1.3444  0.0235
 4741TIP3   OH238417   1.842   3.497   9.401  0.3394 -0.5645 -0.3499
 4741TIP3    H138418   1.922   3.466   9.443  0.8936 -1.7257 -2.1246
 4741TIP3    H238419   1.805   3.418   9.361 -1.1317  0.1569 -0.4614
 4742TIP3   OH238420   5.197   2.066   9.090  0.2629  0.2626 -0.2483
 4742TIP3    H138421   5.108   2.097   9.109  0.4243  0.4293  0.2277
 4742TIP3    H238422   5.183   1.982   9.046 -0.1067 -0.3813  1.0450
 4743TIP3   OH238423   4.125   6.805   9.095  0.1013  0.3482 -0.2266
 4743TIP3    H138424   4.030   6.819   9.100 -0.2890 -1.8903 -0.4091
 4743TIP3    H238425   4.141   6.728   9.149  1.7464  0.3690 -0.6337
 4744TIP3   OH238426   7.017   4.138   7.603 -0.5334 -0.0577  0.2965
 4744TIP3    H138427   6.985   4.226   7.584 -1.2057 -0.3012  0.2625
 4744TIP3    H238428   6.942   4.081   7.587 -0.0039 -0.6831 -0.0532
 4745TIP3   OH238429   1.919   3.609   8.173  0.0593 -0.3574  0.1427
 4745TIP3    H138430   1.963   3.672   8.116  0.2258  0.2726  0.9568
 4745TIP3    H238431   1.961   3.620   8.258 -0.5434 -0.9261  0.5239
 4746TIP3   OH238432   5.748   2.623   8.746 -0.4917 -0.4364  0.1641
 4746TIP3    H138433   5.776   2.690   8.808 -0.1687 -0.3605 -0.0643
 4746TIP3    H238434   5.757   2.663   8.660 -1.0115 -0.5173  0.0669
 4747TIP3   OH238435   7.521   2.828   9.640 -0.0056 -0.2959  0.0369
 4747TIP3    H138436   7.597   2.784   9.602  0.9696  0.9755  0.4792
 4747TIP3    H238437   7.461   2.839   9.566  0.0287 -1.6950 -0.2251
 4748TIP3   OH238438   5.842   6.888   7.798 -0.5244  0.4491  0.6841
 4748TIP3    H138439   5.753   6.886   7.763 -0.2418  0.1522 -0.0373
 4748TIP3    H238440   5.847   6.971   7.845 -1.4934  0.0273  1.6035
 4749TIP3   OH238441   0.720   6.334   8.610 -0.5116  0.0634 -0.7493
 4749TIP3    H138442   0.634   6.311   8.645  1.4432 -1.7351  3.6122
 4749TIP3    H238443   0.762   6.250   8.590  1.7710  0.4149  1.8640
 4750TIP3   OH238444   7.584   0.179   8.719 -0.0962 -0.0164 -0.0750
 4750TIP3    H138445   7.571   0.086   8.703  0.0455 -0.0218 -0.1564
 4750TIP3    H238446   7.679   0.190   8.724 -0.0168  0.4132 -1.7882
 4751TIP3   OH238447   2.613   0.651   8.658 -0.5136 -0.3263  0.4245
 4751TIP3    H138448   2.539   0.706   8.684 -0.0163  0.5689 -0.0247
 4751TIP3    H238449   2.614   0.581   8.723 -1.8352 -0.4364  0.3626
 4752TIP3   OH238450   3.695   1.727   7.032 -0.0483 -0.2582  0.3793
 4752TIP3    H138451   3.747   1.807   7.024  0.6413 -0.8208 -1.5117
 4752TIP3    H238452   3.606   1.757   7.049  0.0961  0.9637 -0.8297
 4753TIP3   OH238453   0.144   3.727   7.886  0.4358 -0.2684  0.4804
 4753TIP3    H138454   0.165   3.676   7.808 -1.3566  1.6216 -1.3697
 4753TIP3    H238455   0.188   3.811   7.872  1.0404 -0.2891  2.0966
 4754TIP3   OH238456   6.687   4.125   8.140 -0.2409 -0.2910 -0.3675
 4754TIP3    H138457   6.746   4.096   8.070 -0.9897 -1.1727 -0.6568
 4754TIP3    H238458   6.670   4.217   8.120 -1.3866 -0.8181 -2.0743
 4755TIP3   OH238459   6.402   2.397   7.094  1.1530 -0.4836 -0.0288
 4755TIP3    H138460   6.373   2.370   7.007  1.7347 -0.3953 -0.2510
 4755TIP3    H238461   6.422   2.490   7.085 -0.7976  0.0654  0.7181
 4756TIP3   OH238462   4.211   2.732   8.704  0.1870 -0.6356  0.4370
 4756TIP3    H138463   4.191   2.709   8.614 -1.2686  0.2812  0.4969
 4756TIP3    H238464   4.259   2.656   8.738  0.9201 -0.9193 -1.1381
 4757TIP3   OH238465   5.881   1.766   8.655 -0.6238  0.4966 -0.5638
 4757TIP3    H138466   5.954   1.791   8.598 -0.9420  0.5553 -0.9510
 4757TIP3    H238467   5.819   1.723   8.596 -1.2158  1.0754 -0.3737
 4758TIP3   OH238468   6.783   6.371   9.252  1.0091  0.5956 -0.4860
 4758TIP3    H138469   6.833   6.309   9.199  0.8527 -0.6214  0.7429
 4758TIP3    H238470   6.850   6.431   9.287  1.5249 -0.4969  0.4509
 4759TIP3   OH238471   0.339   4.846   7.578  0.3979 -0.1519 -0.3025
 4759TIP3    H138472   0.246   4.851   7.558 -0.1014 -1.3310  1.4687
 4759TIP3    H238473   0.377   4.799   7.504 -0.0784  1.7702 -1.8537
 4760TIP3   OH238474   1.550   0.448   9.037  0.0911 -0.5528  0.3747
 4760TIP3    H138475   1.596   0.416   8.960 -0.0904  0.5323 -0.2006
 4760TIP3    H238476   1.619   0.459   9.103  0.4900 -0.0212 -0.1225
 4761TIP3   OH238477   3.901   2.357   8.944  0.4323  0.0736  0.5260
 4761TIP3    H138478   3.806   2.353   8.952  0.5303 -2.3335  1.3784
 4761TIP3    H238479   3.919   2.444   8.909 -2.1010  0.3973 -0.1442
 4762TIP3   OH238480   6.017   2.712   7.039  0.0143 -0.4920 -0.1025
 4762TIP3    H138481   6.107   2.688   7.060 -0.3078 -1.3416  0.3657
 4762TIP3    H238482   5.970   2.628   7.039 -0.8233 -0.0261 -0.0880
 4763TIP3   OH238483   3.214   7.178   8.011 -0.4078  0.1041  0.0576
 4763TIP3    H138484   3.196   7.231   7.933  1.8144  1.8919  0.6527
 4763TIP3    H238485   3.132   7.179   8.060 -0.7984  2.0332 -0.5515
 4764TIP3   OH238486   5.666   3.086   8.000 -0.0940 -0.3131  0.0816
 4764TIP3    H138487   5.572   3.072   8.015 -0.1372 -2.0325 -1.5330
 4764TIP3    H238488   5.709   3.017   8.050  0.3217  0.3382  0.6418
 4765TIP3   OH238489   0.820   2.942   9.182  0.4916 -0.2319  0.1940
 4765TIP3    H138490   0.739   2.909   9.143  0.0931 -0.9062  1.5356
 4765TIP3    H238491   0.795   3.026   9.221  0.3407 -0.6285  0.9527
 4766TIP3   OH238492   6.594   1.903   9.259 -0.1268 -0.4036  0.3011
 4766TIP3    H138493   6.510   1.874   9.221  0.2532 -1.3582  0.1645
 4766TIP3    H238494   6.636   1.951   9.188 -0.4938 -0.0320  0.3267
 4767TIP3   OH238495   6.568   1.844   7.589 -0.7594  0.2287  0.2201
 4767TIP3    H138496   6.584   1.761   7.544  0.8737  1.1347 -0.9843
 4767TIP3    H238497   6.647   1.895   7.573 -0.9122  1.3248  2.5750
 4768TIP3   OH238498   2.134   1.942   7.645 -0.0720  0.3483 -0.0262
 4768TIP3    H138499   2.121   1.943   7.551  0.2425 -0.8187 -0.1010
 4768TIP3    H238500   2.112   1.852   7.671 -1.1534  0.9181  1.1627
 4769TIP3   OH238501   0.230   5.527   7.015 -0.1037  0.6716 -0.6263
 4769TIP3    H138502   0.294   5.509   7.083  0.2083  1.5064 -0.6937
 4769TIP3    H238503   0.247   5.617   6.989 -1.5590  1.0491 -0.3583
 4770TIP3   OH238504   5.965   6.046   8.785 -0.1776 -0.5492  0.5903
 4770TIP3    H138505   5.992   5.958   8.762  1.4970  0.3148 -1.0370
 4770TIP3    H238506   6.045   6.090   8.813  0.4273  1.9920 -4.0215
 4771TIP3   OH238507   4.776   3.473   8.740 -0.2120  0.0391 -0.1872
 4771TIP3    H138508   4.818   3.430   8.666 -0.3371  0.5294 -0.5531
 4771TIP3    H238509   4.746   3.557   8.705 -1.9954 -0.5075 -0.1025
 4772TIP3   OH238510   5.114   3.791   7.819 -0.3754  0.3259 -0.1407
 4772TIP3    H138511   5.140   3.838   7.898  0.1646  0.5052 -0.4211
 4772TIP3    H238512   5.120   3.699   7.843  0.2413  0.3687 -0.1061
 4773TIP3   OH238513   0.851   6.018   7.545 -0.4969  0.0590 -0.2472
 4773TIP3    H138514   0.932   5.968   7.534 -1.2360 -0.9117 -1.5045
 4773TIP3    H238515   0.796   5.992   7.471 -0.6094  3.3482 -1.5258
 4774TIP3   OH238516   3.322   7.533   8.426  0.5297  0.4181 -0.0820
 4774TIP3    H138517   3.335   7.484   8.345  2.0459 -0.6099  0.7206
 4774TIP3    H238518   3.362   7.618   8.410  0.3988  0.3907 -0.5662
 4775TIP3   OH238519   4.535   0.732   9.007  0.7901 -0.5516 -0.0268
 4775TIP3    H138520   4.512   0.662   9.068 -3.0598  0.3373 -0.1826
 4775TIP3    H238521   4.548   0.687   8.924 -1.4927 -1.2081 -0.1002
 4776TIP3   OH238522   3.037   6.825   8.862 -0.1258 -0.0616 -0.4457
 4776TIP3    H138523   2.993   6.861   8.785 -1.6190  1.1778  0.9009
 4776TIP3    H238524   3.079   6.901   8.903  0.6295 -0.6992  0.0041
 4777TIP3   OH238525   1.198   1.001   8.377 -0.3680 -0.1067  0.1089
 4777TIP3    H138526   1.161   1.088   8.376  1.2522  0.6258 -0.0074
 4777TIP3    H238527   1.179   0.966   8.464 -2.6037 -0.3921 -0.4430
 4778TIP3   OH238528   4.721   0.788   9.277  0.0056  0.0024  0.1314
 4778TIP3    H138529   4.694   0.868   9.232 -0.3507  0.0019  0.3435
 4778TIP3    H238530   4.640   0.748   9.307  0.2971  0.7186  1.9911
 4779TIP3   OH238531   4.927   4.745   8.594  0.1616 -0.3811 -1.1485
 4779TIP3    H138532   4.942   4.666   8.645  0.4035  0.0541 -0.5261
 4779TIP3    H238533   4.833   4.762   8.603  0.3635  0.2817  0.0789
 4780TIP3   OH238534   3.391   3.936   7.239  0.2217 -0.4827 -0.3334
 4780TIP3    H138535   3.343   3.858   7.213  0.5827 -0.4834 -1.0387
 4780TIP3    H238536   3.326   4.006   7.237 -0.4110 -0.9692  1.6028
 4781TIP3   OH238537   0.149   6.195   7.918 -0.1293  0.9794 -0.3049
 4781TIP3    H138538   0.074   6.207   7.859  0.6102 -0.2422 -1.5702
 4781TIP3    H238539   0.111   6.152   7.995 -1.0592  2.3103  0.0188
 4782TIP3   OH238540   2.367   2.752   7.627  0.1677  0.4576  0.6694
 4782TIP3    H138541   2.395   2.839   7.600  1.8309  0.2136  1.4897
 4782TIP3    H238542   2.447   2.710   7.659 -0.4623 -1.5938 -0.2926
 4783TIP3   OH238543   2.869   5.225   7.280  0.0234 -0.4522 -0.0839
 4783TIP3    H138544   2.901   5.231   7.190  0.4649 -0.0280  0.0939
 4783TIP3    H238545   2.853   5.316   7.305  0.8766 -0.4883  0.6065
 4784TIP3   OH238546   4.587   2.779   8.162 -0.3554 -0.0438  0.3727
 4784TIP3    H138547   4.668   2.728   8.163 -0.5732 -0.4353 -0.7392
 4784TIP3    H238548   4.569   2.796   8.255  0.1671 -1.2827  0.7241
 4785TIP3   OH238549   4.878   6.187   9.003  0.2014  0.0011 -0.0505
 4785TIP3    H138550   4.961   6.230   9.024  0.2354  0.4240 -0.9931
 4785TIP3    H238551   4.868   6.199   8.908  0.7535 -3.0524 -0.6036
 4786TIP3   OH238552   5.176   1.486   7.284 -0.5198  0.1534 -0.1290
 4786TIP3    H138553   5.111   1.494   7.354 -1.0531 -0.6903 -0.5164
 4786TIP3    H238554   5.170   1.570   7.238 -1.4898  0.0093 -0.2866
 4787TIP3   OH238555   3.610   5.177   9.228 -0.2011  0.2214 -0.8450
 4787TIP3    H138556   3.529   5.145   9.267  0.1776 -0.0239 -0.2524
 4787TIP3    H238557   3.587   5.193   9.136 -0.9899  0.4214 -0.6227
 4788TIP3   OH238558   2.182   0.704   7.424  0.2293 -0.2130  0.2451
 4788TIP3    H138559   2.236   0.705   7.345 -0.3717  2.0349 -0.2220
 4788TIP3    H238560   2.203   0.621   7.468  1.4648 -0.9507 -1.6477
 4789TIP3   OH238561   6.688   6.086   7.357  0.2402 -0.3415 -0.2667
 4789TIP3    H138562   6.615   6.140   7.386 -1.2453 -2.0619 -0.5858
 4789TIP3    H238563   6.748   6.147   7.315 -1.3363  1.0678 -0.5898
 4790TIP3   OH238564   2.471   4.785   8.596  0.2845 -0.7138  0.3187
 4790TIP3    H138565   2.516   4.706   8.627 -0.1774 -0.1810  2.5385
 4790TIP3    H238566   2.380   4.757   8.582  0.4765 -0.9364 -0.5501
 4791TIP3   OH238567   5.494   7.360   7.922  0.4915 -0.1547 -0.1935
 4791TIP3    H138568   5.493   7.411   7.841  1.5819  1.1555  0.5844
 4791TIP3    H238569   5.571   7.304   7.914 -0.4869 -1.4522 -0.8761
 4792TIP3   OH238570   4.827   2.319   8.540 -0.1959 -0.0671  0.3960
 4792TIP3    H138571   4.732   2.325   8.533 -0.0624  0.7166 -1.2252
 4792TIP3    H238572   4.856   2.408   8.557  0.1986 -0.4873  2.0520
 4793TIP3   OH238573   0.097   4.715   7.429  0.1925  0.2693 -0.1564
 4793TIP3    H138574   0.075   4.722   7.336 -1.6083  0.1971  0.2221
 4793TIP3    H238575   0.144   4.632   7.437 -0.9451 -0.4624 -0.8006
 4794TIP3   OH238576   0.561   4.602   9.106  0.4848 -0.0933 -0.2095
 4794TIP3    H138577   0.629   4.654   9.062  0.7937  0.8090  1.2699
 4794TIP3    H238578   0.483   4.657   9.103  0.6239  0.1779  0.7228
 4795TIP3   OH238579   1.728   2.345   9.688  0.6694  0.0753 -0.4916
 4795TIP3    H138580   1.672   2.421   9.671 -0.1819 -0.6265 -0.9248
 4795TIP3    H238581   1.783   2.371   9.762 -1.4136  0.2013  1.0919
 4796TIP3   OH238582   1.436   2.411   8.852 -0.8631 -0.0518  0.2282
 4796TIP3    H138583   1.365   2.472   8.836 -0.4374  0.4582  0.2418
 4796TIP3    H238584   1.502   2.463   8.898  0.5730  0.1902 -1.9331
 4797TIP3   OH238585   5.964   4.410   7.917  0.1098 -0.0617  0.7414
 4797TIP3    H138586   6.048   4.385   7.955 -0.2248 -1.8723  0.3477
 4797TIP3    H238587   5.986   4.475   7.850  1.3434 -1.3465 -0.1618
 4798TIP3   OH238588   3.396   6.084   8.013  0.3684  0.3618  0.3765
 4798TIP3    H138589   3.395   6.153   7.947 -2.3690  0.8031  0.7837
 4798TIP3    H238590   3.429   6.127   8.092  1.8374  0.3111 -0.1816
 4799TIP3   OH238591   3.959   6.003   8.039  0.4604  0.1340 -0.2554
 4799TIP3    H138592   3.925   6.007   8.129  1.7536  0.6273  0.2395
 4799TIP3    H238593   3.887   5.965   7.988 -0.9370  1.3877  0.6646
 4800TIP3   OH238594   4.507   4.168   6.368 -0.2386 -0.1105  0.5709
 4800TIP3    H138595   4.491   4.173   6.274  1.8020  1.6881  0.2551
 4800TIP3    H238596   4.575   4.102   6.377  2.3573  2.3442  0.2634
 4801TIP3   OH238597   4.603   0.907   7.982 -0.2349 -0.3091  0.0731
 4801TIP3    H138598   4.521   0.905   8.032  0.4742 -1.3439  1.2785
 4801TIP3    H238599   4.668   0.940   8.044  0.4114 -0.2683 -0.6109
 4802TIP3   OH238600   3.772   4.609   7.329 -0.0992  0.2376  0.5286
 4802TIP3    H138601   3.859   4.644   7.353  0.3616  0.0962 -0.8363
 4802TIP3    H238602   3.711   4.657   7.384  0.4948  3.3856 -1.3006
 4803TIP3   OH238603   1.110   6.438   8.838 -0.6762  0.0122  0.4582
 4803TIP3    H138604   1.062   6.469   8.915 -2.0413 -2.5279  0.7318
 4803TIP3    H238605   1.076   6.491   8.766  0.2670  2.0934  1.4468
 4804TIP3   OH238606   1.245   3.406   7.353 -0.2463 -0.0777  0.9427
 4804TIP3    H138607   1.285   3.493   7.345  2.7248 -1.4305 -0.7187
 4804TIP3    H238608   1.187   3.399   7.277 -0.1973  0.3162  0.8689
 4805TIP3   OH238609   1.305   6.464   8.398 -0.0758 -0.5806 -0.2644
 4805TIP3    H138610   1.401   6.467   8.392 -0.0709  0.6009  0.0846
 4805TIP3    H238611   1.286   6.502   8.484 -0.8862 -0.1124 -0.6493
 4806TIP3   OH238612   7.097   7.109   8.729 -0.3001  0.3087 -0.0795
 4806TIP3    H138613   7.133   7.140   8.812  0.0082  0.7834 -0.3842
 4806TIP3    H238614   7.068   7.188   8.685  1.4701  0.3176 -1.3307
 4807TIP3   OH238615   0.544   4.021   8.633  0.1613  0.9052 -0.3873
 4807TIP3    H138616   0.602   4.068   8.693 -1.6575  0.6108  1.6885
 4807TIP3    H238617   0.577   3.931   8.632  0.3470  0.9678  0.0014
 4808TIP3   OH238618   1.661   1.898   8.088 -0.3202  0.5715  0.3069
 4808TIP3    H138619   1.648   1.805   8.109 -0.6319  0.5377 -0.0265
 4808TIP3    H238620   1.755   1.912   8.100 -0.2117  0.1270  0.0117
 4809TIP3   OH238621   0.757   1.039   7.751  0.3725  0.3501 -0.3705
 4809TIP3    H138622   0.819   1.009   7.817  0.3640 -0.7097 -0.8305
 4809TIP3    H238623   0.678   0.988   7.768  0.4649 -0.1554 -1.3742
 4810TIP3   OH238624   2.804   5.951   7.570  0.0934  0.1314 -0.0799
 4810TIP3    H138625   2.717   5.915   7.590 -0.2220  1.1947  0.5223
 4810TIP3    H238626   2.857   5.928   7.646  0.2532 -0.2234 -0.2971
 4811TIP3   OH238627   2.973   2.837   6.760 -0.3622 -0.2442 -0.3751
 4811TIP3    H138628   3.018   2.859   6.678 -1.1822 -0.3313 -0.8535
 4811TIP3    H238629   2.939   2.749   6.745 -0.2941 -0.3606  0.1556
 4812TIP3   OH238630   0.141   6.195   9.625  0.0221 -0.5035 -0.4741
 4812TIP3    H138631   0.168   6.115   9.670  1.1203  0.4338  0.6007
 4812TIP3    H238632   0.209   6.210   9.559  0.6577  0.3523  0.3543
 4813TIP3   OH238633   0.045   6.949   8.110  0.3078 -0.2373 -0.4107
 4813TIP3    H138634   0.094   6.893   8.170 -0.8488  0.1130  0.9216
 4813TIP3    H238635  -0.047   6.931   8.130 -0.1043  0.3965 -1.6149
 4814TIP3   OH238636   2.797   3.739   8.567  0.1144  0.1290  0.1424
 4814TIP3    H138637   2.812   3.821   8.612  0.0933  0.6734 -0.8086
 4814TIP3    H238638   2.857   3.741   8.492 -1.2173  0.1732 -0.9710
 4815TIP3   OH238639   5.871   1.260   7.669 -0.5570 -0.7656 -0.2586
 4815TIP3    H138640   5.929   1.328   7.703  0.4816 -1.0813 -1.3191
 4815TIP3    H238641   5.828   1.224   7.746 -1.0579  1.0208  0.3302
 4816TIP3   OH238642   4.840   4.887   7.280 -0.3115 -0.2853  0.6560
 4816TIP3    H138643   4.897   4.923   7.348 -0.4707  1.4778 -0.1084
 4816TIP3    H238644   4.783   4.825   7.327  1.2772 -1.0539  1.6592
 4817TIP3   OH238645   0.807   4.430   8.728  0.2687  0.5081 -0.3688
 4817TIP3    H138646   0.738   4.439   8.795 -0.2940  0.2284 -0.8973
 4817TIP3    H238647   0.866   4.363   8.764  0.3593  0.8664  0.1636
 4818TIP3   OH238648   6.010   5.399   7.754 -0.3873 -0.4951 -0.5003
 4818TIP3    H138649   6.013   5.409   7.849  0.7793  0.1922 -0.5913
 4818TIP3    H238650   5.970   5.313   7.740 -0.2565 -0.7489  0.6184
 4819TIP3   OH238651   0.989   6.155   8.401 -0.2509 -0.7190 -0.0276
 4819TIP3    H138652   0.957   6.105   8.477  0.0805 -1.2375 -0.2233
 4819TIP3    H238653   0.957   6.106   8.325  1.3407 -1.4983 -0.2367
 4820TIP3   OH238654   3.633   2.981   8.287  0.1724 -0.5910  0.3936
 4820TIP3    H138655   3.630   2.918   8.214  2.7281 -1.8870  1.2795
 4820TIP3    H238656   3.556   2.959   8.341  0.7091 -2.6537  0.3951
 4821TIP3   OH238657   4.618   6.153   8.228 -0.0136  0.2944 -0.2986
 4821TIP3    H138658   4.600   6.136   8.135 -1.0268 -0.0230 -0.0499
 4821TIP3    H238659   4.599   6.246   8.240  0.9716  0.5495 -0.5932
 4822TIP3   OH238660   0.216   5.268   9.086 -0.7758 -0.6375 -0.5629
 4822TIP3    H138661   0.309   5.267   9.060 -1.0308  1.1224 -1.7323
 4822TIP3    H238662   0.218   5.271   9.181  0.4101  0.2862 -0.5950
 4823TIP3   OH238663   5.504   3.042   7.115  0.2449  0.2429  0.0520
 4823TIP3    H138664   5.493   2.958   7.160  1.5675  0.4048  0.7219
 4823TIP3    H238665   5.560   3.022   7.041 -2.3139 -0.1234 -1.9476
 4824TIP3   OH238666   2.976   7.234   8.530 -0.2661  0.2395  0.3371
 4824TIP3    H138667   3.045   7.168   8.527 -2.0405 -1.6795 -1.0429
 4824TIP3    H238668   3.006   7.303   8.471 -0.1854 -1.3386 -1.5782
 4825TIP3   OH238669   1.635   3.185   7.625  0.1568 -0.8151  0.1098
 4825TIP3    H138670   1.621   3.201   7.531 -2.4155  1.0998  0.6882
 4825TIP3    H238671   1.567   3.121   7.648  2.1242 -2.9307  0.3450
 4826TIP3   OH238672   3.091   7.535   8.926 -0.0949  0.0077 -0.3039
 4826TIP3    H138673   3.005   7.576   8.937 -0.4315 -0.4391 -1.1400
 4826TIP3    H238674   3.127   7.578   8.848  0.7857  0.7472  0.4815
 4827TIP3   OH238675   4.313   3.816   8.342  0.2844 -0.1275  0.1956
 4827TIP3    H138676   4.285   3.771   8.262  1.3761 -0.9483  0.2515
 4827TIP3    H238677   4.265   3.899   8.341 -1.7858 -1.2633  0.0859
 4828TIP3   OH238678   6.934   1.235   9.562 -0.1950  0.2785 -0.3384
 4828TIP3    H138679   6.857   1.220   9.508 -0.7331  0.8418  0.2608
 4828TIP3    H238680   6.909   1.203   9.649  0.7662 -0.8988 -0.4634
 4829TIP3   OH238681   3.217   2.954   8.139 -0.0105 -0.4135 -0.0785
 4829TIP3    H138682   3.143   2.915   8.186  1.1891 -0.5613  1.7897
 4829TIP3    H238683   3.210   3.048   8.157 -1.8040  0.1496 -3.0072
 4830TIP3   OH238684   6.339   6.573   9.507 -0.4891 -0.1620  0.0864
 4830TIP3    H138685   6.429   6.547   9.530 -0.8131 -1.6869 -0.2533
 4830TIP3    H238686   6.347   6.612   9.420 -0.2446 -0.9791 -0.2653
 4831TIP3   OH238687   0.682   0.034   8.729  0.2466 -0.8785  0.2108
 4831TIP3    H138688   0.775   0.019   8.748  0.7115  0.5345 -0.7921
 4831TIP3    H238689   0.661  -0.030   8.661 -0.0475 -2.4232  1.6621
 4832TIP3   OH238690   2.352   0.787   9.214  0.7285  0.5546  0.0623
 4832TIP3    H138691   2.408   0.805   9.289  0.8821  0.0168  0.0863
 4832TIP3    H238692   2.405   0.731   9.157 -0.5649 -2.0877  1.2465
 4833TIP3   OH238693   3.060   5.219   8.748  0.0590  0.3010  0.3563
 4833TIP3    H138694   3.140   5.250   8.792 -0.1027  0.9117  0.2345
 4833TIP3    H238695   3.091   5.182   8.665  0.1763  0.9683  0.0946
 4834TIP3   OH238696   5.326   0.386   7.788 -0.1977  0.0619 -0.2719
 4834TIP3    H138697   5.303   0.306   7.835 -0.7818 -0.7029 -1.8026
 4834TIP3    H238698   5.421   0.378   7.774 -0.3046 -0.5652 -0.7246
 4835TIP3   OH238699   6.078   3.306   9.236 -0.4670  0.8763  0.0895
 4835TIP3    H138700   6.075   3.216   9.268 -0.1936  0.2687 -1.4841
 4835TIP3    H238701   6.000   3.314   9.181 -0.7927  1.7940  0.6605
 4836TIP3   OH238702   5.224   6.162   9.315  0.7498 -0.8554 -0.7125
 4836TIP3    H138703   5.227   6.090   9.251 -1.0413  0.6566 -2.6522
 4836TIP3    H238704   5.315   6.172   9.343  1.1058 -3.6714 -0.5263
 4837TIP3   OH238705   1.202   0.206   9.027 -0.8644  0.6343 -0.1113
 4837TIP3    H138706   1.262   0.154   8.974  0.0129  0.4651  1.0074
 4837TIP3    H238707   1.115   0.182   8.995 -0.6446 -2.8103  1.3714
 4838TIP3   OH238708   4.077   7.274   7.636  0.8573 -0.0605  0.4641
 4838TIP3    H138709   4.006   7.324   7.676  1.8054  1.0105  0.8492
 4838TIP3    H238710   4.125   7.238   7.710  1.0138 -0.3617  0.2153
 4839TIP3   OH238711   0.246   1.511   7.613 -0.2723 -0.1287 -0.6169
 4839TIP3    H138712   0.165   1.553   7.584  0.6401  1.4519 -1.0125
 4839TIP3    H238713   0.255   1.434   7.557 -0.1985  1.1102 -2.4064
 4840TIP3   OH238714   4.746   7.593   7.470  0.3261  0.5995 -0.0555
 4840TIP3    H138715   4.693   7.528   7.423  1.7257  0.1820 -1.1422
 4840TIP3    H238716   4.832   7.552   7.476  1.2141  2.2925 -0.6478
 4841TIP3   OH238717   1.736   3.172   6.571  0.9336  0.3253 -0.1714
 4841TIP3    H138718   1.752   3.160   6.664  2.1221  0.4470 -0.3506
 4841TIP3    H238719   1.677   3.100   6.547  1.1630 -0.1057  0.5337
 4842TIP3   OH238720   7.394   0.005   8.043  0.4430  0.7651  0.9690
 4842TIP3    H138721   7.397   0.094   8.008  1.9788  0.1961 -0.5002
 4842TIP3    H238722   7.483  -0.028   8.032 -0.2260 -1.1665  0.9336
 4843TIP3   OH238723   6.709   1.157   9.026  0.3622 -0.1821  0.1145
 4843TIP3    H138724   6.764   1.185   8.952 -0.7674  0.0827 -0.6485
 4843TIP3    H238725   6.767   1.165   9.102  1.4836 -0.2273 -0.6948
 4844TIP3   OH238726   3.498   5.514   9.093 -0.2240  0.0244  0.5533
 4844TIP3    H138727   3.476   5.597   9.134  1.2086  0.3496  0.6948
 4844TIP3    H238728   3.590   5.521   9.071 -0.2120 -1.3231  0.0658
 4845TIP3   OH238729   0.004   3.463   7.002 -0.1441 -0.5931 -0.1159
 4845TIP3    H138730   0.031   3.408   6.928  0.8998 -0.5648  0.2221
 4845TIP3    H238731   0.020   3.408   7.079  0.8105  0.1300  0.2207
 4846TIP3   OH238732   3.131   3.552   7.631  0.6448  0.1401  0.1129
 4846TIP3    H138733   3.187   3.575   7.705  0.7638 -1.7178  0.6579
 4846TIP3    H238734   3.045   3.586   7.655  0.4868 -1.1465  1.5405
 4847TIP3   OH238735   5.225   2.456   7.798 -0.2167 -0.0834  0.0378
 4847TIP3    H138736   5.262   2.525   7.853  2.8111 -0.8105 -0.8697
 4847TIP3    H238737   5.253   2.478   7.709  1.7865 -2.8623 -0.1765
 4848TIP3   OH238738   0.588   3.974   6.679 -0.4048 -0.6535  0.2882
 4848TIP3    H138739   0.663   3.928   6.642 -0.5929 -0.7588  0.0370
 4848TIP3    H238740   0.583   4.056   6.629  0.6061  0.1669  1.4680
 4849TIP3   OH238741   1.722   7.496   6.824 -0.1781  0.3900  0.1552
 4849TIP3    H138742   1.714   7.566   6.760  2.1552  2.4493  1.9533
 4849TIP3    H238743   1.672   7.526   6.900 -0.2203 -0.5057  0.5016
 4850TIP3   OH238744   5.325   6.983   9.061  0.2586  0.1689 -0.4452
 4850TIP3    H138745   5.402   7.031   9.029 -0.5877  0.4268 -2.2351
 4850TIP3    H238746   5.337   6.894   9.027  0.1106  0.0302 -0.1317
 4851TIP3   OH238747   4.787   6.330   7.928  0.0202 -0.1065 -0.3352
 4851TIP3    H138748   4.785   6.360   8.019  0.0975  1.0298 -0.7013
 4851TIP3    H238749   4.879   6.337   7.902  0.1313 -1.1331 -0.2937
 4852TIP3   OH238750   5.756   5.624   7.627  0.3276  0.4115 -0.5324
 4852TIP3    H138751   5.746   5.686   7.554 -0.3487  0.7215 -0.1794
 4852TIP3    H238752   5.742   5.677   7.705 -0.4017 -0.2204 -0.2288
 4853TIP3   OH238753   5.556   4.083   9.108  0.6468 -0.0587  0.2182
 4853TIP3    H138754   5.593   4.134   9.181  0.2097  0.4106  0.1146
 4853TIP3    H238755   5.487   4.139   9.072  1.8632  0.4183 -1.5457
 4854TIP3   OH238756   4.671   1.266   7.976  0.1183  0.2573 -0.7087
 4854TIP3    H138757   4.590   1.241   8.020  2.0438 -0.4391  2.7983
 4854TIP3    H238758   4.669   1.362   7.973 -0.7978  0.2447 -0.6770
 4855TIP3   OH238759   0.174   6.472   7.965  0.0363 -0.0552 -0.7485
 4855TIP3    H138760   0.185   6.383   7.934  3.3446  0.5201 -1.6325
 4855TIP3    H238761   0.217   6.472   8.051  1.2894  0.8984 -1.3335
 4856TIP3   OH238762   1.750   3.227   6.892 -0.0385  0.5745 -0.2901
 4856TIP3    H138763   1.778   3.277   6.968 -1.1033  1.5693 -0.5328
 4856TIP3    H238764   1.659   3.203   6.910 -0.5582  1.4886 -1.5557
 4857TIP3   OH238765   0.290   0.214   7.657  0.1117  0.4655  0.0368
 4857TIP3    H138766   0.377   0.175   7.649 -0.5544 -1.0705  0.0319
 4857TIP3    H238767   0.267   0.240   7.568  0.8259  1.5049  0.1379
 4858TIP3   OH238768   7.146   1.410   8.242  0.0180  0.5392  0.3552
 4858TIP3    H138769   7.233   1.371   8.242 -0.1635  0.1066 -0.1274
 4858TIP3    H238770   7.143   1.465   8.320  0.3467 -0.2967  0.9790
 4859TIP3   OH238771   7.277   2.315   8.778 -0.0535 -0.2273  0.1257
 4859TIP3    H138772   7.307   2.228   8.805 -1.2635 -0.6190  0.2509
 4859TIP3    H238773   7.266   2.309   8.683  2.3835  0.5986 -0.2875
 4860TIP3   OH238774   7.323   4.087   8.081 -0.3954 -0.0240  0.2384
 4860TIP3    H138775   7.374   4.017   8.122 -0.3010 -0.2276 -0.2222
 4860TIP3    H238776   7.388   4.150   8.052 -0.4370 -0.0479  0.0916
 4861TIP3   OH238777   4.812   1.770   8.445 -0.4104  0.2842  0.0393
 4861TIP3    H138778   4.806   1.801   8.535 -0.8936 -0.3899  0.2499
 4861TIP3    H238779   4.723   1.776   8.411 -0.3777 -0.1790 -0.1423
 4862TIP3   OH238780   0.120   6.080   6.890 -0.0180 -0.0741  0.3581
 4862TIP3    H138781   0.087   6.160   6.849 -3.1857 -1.3544  0.0828
 4862TIP3    H238782   0.135   6.020   6.817 -1.0676 -0.8120  0.7196
 4863TIP3   OH238783   1.219   3.000   6.610 -0.6731  0.2445 -0.2934
 4863TIP3    H138784   1.219   3.053   6.530 -1.8725  1.8508  0.7296
 4863TIP3    H238785   1.177   2.918   6.584 -2.5301  1.3541 -0.9664
 4864TIP3   OH238786   1.623   4.843   7.779  0.3265  0.0787  0.1710
 4864TIP3    H138787   1.630   4.829   7.684  1.3032  2.7884 -0.2328
 4864TIP3    H238788   1.710   4.825   7.813  0.7555  1.8369  0.0881
 4865TIP3   OH238789   6.475   5.740   9.265 -0.6263 -0.0873 -0.8134
 4865TIP3    H138790   6.402   5.697   9.220 -0.5011 -1.3186  0.1132
 4865TIP3    H238791   6.478   5.828   9.227 -1.6828 -0.4859 -1.8771
 4866TIP3   OH238792   5.486   0.293   9.251 -0.7629  0.2762 -0.4611
 4866TIP3    H138793   5.429   0.254   9.184  0.0480 -0.5475 -0.6805
 4866TIP3    H238794   5.554   0.338   9.201 -0.1485 -0.3490 -0.1952
 4867TIP3   OH238795   7.342   1.158   9.106  0.0718 -0.3820 -0.1466
 4867TIP3    H138796   7.370   1.078   9.060 -2.4681 -1.6140  0.2793
 4867TIP3    H238797   7.252   1.172   9.077  0.9607  3.4890 -1.6380
 4868TIP3   OH238798   3.891   3.519   8.413 -0.0952  0.5179  0.3079
 4868TIP3    H138799   3.948   3.473   8.475 -0.1793 -2.7902 -1.7842
 4868TIP3    H238800   3.811   3.467   8.411 -0.0758  0.4339 -2.5175
 4869TIP3   OH238801   0.882   2.125   9.675 -0.0944 -0.3589 -0.4375
 4869TIP3    H138802   0.824   2.079   9.614  0.2206 -0.4328 -0.6858
 4869TIP3    H238803   0.829   2.197   9.709 -1.5027 -2.3435  1.9323
 4870TIP3   OH238804   2.367   1.110   8.862  0.3677  0.2118  0.1406
 4870TIP3    H138805   2.402   1.197   8.883  0.7291  0.0263  0.3346
 4870TIP3    H238806   2.439   1.050   8.882  0.5252 -0.0355 -1.1050
 4871TIP3   OH238807   1.422   5.087   7.064 -0.1366 -0.1794 -0.3065
 4871TIP3    H138808   1.361   5.015   7.048  0.3199 -0.6392 -0.0365
 4871TIP3    H238809   1.371   5.166   7.051 -1.3369 -0.5335  1.8300
 4872TIP3   OH238810   0.855   0.943   8.008  0.1927  0.0447 -0.1376
 4872TIP3    H138811   0.816   1.018   8.054  1.2767  0.1785  0.6010
 4872TIP3    H238812   0.950   0.956   8.017  0.4043 -1.4901  0.1486
 4873TIP3   OH238813   6.935   5.272   7.002 -0.1593  0.4444  0.1070
 4873TIP3    H138814   6.852   5.309   7.031 -0.2242  0.6752 -0.3611
 4873TIP3    H238815   6.932   5.279   6.906  1.0829  1.9636  0.1550
 4874TIP3   OH238816   3.187   6.329   7.429 -0.2430 -0.2090 -0.4179
 4874TIP3    H138817   3.258   6.330   7.366  0.4797  0.1494  0.3740
 4874TIP3    H238818   3.110   6.303   7.379  0.2669  0.2803 -1.4794
 4875TIP3   OH238819   1.311   3.717   8.554 -0.2994 -0.0713 -0.4007
 4875TIP3    H138820   1.329   3.749   8.466  1.0081  1.2591  0.3038
 4875TIP3    H238821   1.240   3.771   8.586  0.7773  1.0431  0.1744
 4876TIP3   OH238822   4.804   0.411   9.130  0.7453  0.4218  0.4210
 4876TIP3    H138823   4.865   0.410   9.056  0.4355 -0.1283  0.1654
 4876TIP3    H238824   4.799   0.319   9.157  1.0719  0.6551  1.3092
 4877TIP3   OH238825   7.203   3.019   7.752 -0.0901 -0.6257 -0.5193
 4877TIP3    H138826   7.164   3.022   7.839  1.9504  0.6436  0.4069
 4877TIP3    H238827   7.164   3.093   7.706 -0.3229 -0.6265 -0.3284
 4878TIP3   OH238828   3.489   2.262   7.940  0.1461  0.1653 -0.2139
 4878TIP3    H138829   3.570   2.220   7.970  0.3973  0.5628 -0.3354
 4878TIP3    H238830   3.502   2.355   7.956 -1.4600  0.0129  2.5686
 4879TIP3   OH238831   3.991   7.384   7.310  0.1982  0.0776 -0.0373
 4879TIP3    H138832   4.025   7.468   7.342 -0.1824  0.7959 -1.4211
 4879TIP3    H238833   4.048   7.363   7.236 -0.9697  0.1679 -0.9834
 4880TIP3   OH238834   1.177   3.646   9.336 -0.3497  0.2113  0.6614
 4880TIP3    H138835   1.183   3.634   9.241 -1.6218  2.4208  0.2278
 4880TIP3    H238836   1.170   3.558   9.371  1.1390 -0.7342 -1.1862
 4881TIP3   OH238837   3.215   3.583   9.471  0.0802  0.4586  0.2770
 4881TIP3    H138838   3.216   3.673   9.506  0.3038  0.4884  0.1953
 4881TIP3    H238839   3.169   3.590   9.388  0.1964  0.5184  0.2171
 4882TIP3   OH238840   6.434   4.292   9.014  0.1084  0.6319  0.0485
 4882TIP3    H138841   6.359   4.243   8.979  0.4605 -0.3328  0.6253
 4882TIP3    H238842   6.407   4.384   9.006 -0.6140  0.3602 -0.9280
 4883TIP3   OH238843   5.902   2.444   7.416 -0.5867 -0.7193  0.1860
 4883TIP3    H138844   5.901   2.357   7.456  0.2582 -0.0846  1.6576
 4883TIP3    H238845   5.842   2.496   7.470  0.9347  0.2768  0.9757
 4884TIP3   OH238846   6.070   1.753   9.404  0.3976 -0.8702  0.9729
 4884TIP3    H138847   6.034   1.761   9.493  0.0227  2.2852  0.6564
 4884TIP3    H238848   6.003   1.791   9.348  2.6738  1.9670 -0.0407
 4885TIP3   OH238849   3.850   1.821   9.341  0.1955 -0.2607  0.5059
 4885TIP3    H138850   3.886   1.833   9.429  0.9510  0.9172  0.0715
 4885TIP3    H238851   3.763   1.861   9.345  1.2439  2.2412  0.0702
 4886TIP3   OH238852   5.313   7.597   7.556 -0.2293 -0.5236 -0.2876
 4886TIP3    H138853   5.267   7.647   7.489 -1.2452 -1.3795 -0.2512
 4886TIP3    H238854   5.405   7.614   7.540 -0.5375  1.3715 -0.2661
 4887TIP3   OH238855   0.376   1.947   9.159  0.2841 -0.2966  0.6075
 4887TIP3    H138856   0.361   2.005   9.084  1.4883 -0.8494 -0.0806
 4887TIP3    H238857   0.436   1.995   9.215  0.4390 -0.4352  0.5609
 4888TIP3   OH238858   3.190   4.403   7.063 -0.3165 -0.5275 -0.2388
 4888TIP3    H138859   3.136   4.371   7.135  1.6691  0.8161  2.0045
 4888TIP3    H238860   3.171   4.497   7.059  1.2133 -0.1721  0.1155
 4889TIP3   OH238861   2.010   2.848   7.455  0.2584  0.3306 -0.1098
 4889TIP3    H138862   2.022   2.861   7.549  0.1619  1.0290 -0.1855
 4889TIP3    H238863   2.070   2.777   7.432 -0.3080 -0.4094  0.6235
 4890TIP3   OH238864   6.660   0.732   8.150 -0.0947  0.4869 -0.2160
 4890TIP3    H138865   6.591   0.796   8.133 -0.3759  0.0346 -0.8001
 4890TIP3    H238866   6.646   0.663   8.085  0.2199 -0.1616  0.3952
 4891TIP3   OH238867   4.501   4.857   8.964  0.1891  0.5978  0.3054
 4891TIP3    H138868   4.494   4.783   9.024 -0.7140 -0.3158 -0.8857
 4891TIP3    H238869   4.595   4.877   8.962  0.5289 -0.8967  0.1910
 4892TIP3   OH238870   5.468   4.548   8.737 -0.4686 -0.0468 -0.3043
 4892TIP3    H138871   5.478   4.610   8.665 -1.6119  1.3942  0.7434
 4892TIP3    H238872   5.393   4.495   8.712  0.3988 -0.9525 -1.1135
 4893TIP3   OH238873   4.165   7.173   8.435 -0.6607  0.2683 -0.3824
 4893TIP3    H138874   4.248   7.184   8.480  0.0713 -1.4246 -1.2303
 4893TIP3    H238875   4.158   7.249   8.377 -0.7113  1.4702  1.1523
 4894TIP3   OH238876   3.583   2.355   9.263  0.4132 -0.3960  0.1065
 4894TIP3    H138877   3.634   2.326   9.339  0.5144  1.7592  0.9499
 4894TIP3    H238878   3.646   2.358   9.191  0.5307 -1.5627  0.1450
 4895TIP3   OH238879   2.746   6.555   9.399 -0.0758  0.1761 -0.1550
 4895TIP3    H138880   2.837   6.584   9.400  0.0734 -0.2242  1.5413
 4895TIP3    H238881   2.696   6.634   9.379  0.4916  1.0478  1.6087
 4896TIP3   OH238882   0.486   0.940   9.260  0.3556  0.0871 -0.1818
 4896TIP3    H138883   0.501   0.850   9.232  0.9178  0.5038 -1.2834
 4896TIP3    H238884   0.547   0.953   9.333  0.0109 -0.5202  0.2244
 4897TIP3   OH238885   7.066   2.017   8.255  0.0146  0.0691 -0.2365
 4897TIP3    H138886   7.058   2.027   8.350  0.8742  0.5229 -0.1997
 4897TIP3    H238887   7.159   2.027   8.238  0.1717 -2.0695 -0.9057
 4898TIP3   OH238888   7.180   3.516   8.815 -1.0069 -0.4235 -0.0359
 4898TIP3    H138889   7.134   3.595   8.789  0.0252  1.0070  2.1645
 4898TIP3    H238890   7.114   3.447   8.814 -2.2665  0.7593 -0.5769
 4899TIP3   OH238891   5.216   6.655   7.989 -0.1531 -0.1991 -0.1105
 4899TIP3    H138892   5.285   6.696   8.042 -0.0971 -0.6675  0.1846
 4899TIP3    H238893   5.167   6.602   8.050  0.0139 -0.8813 -0.5584
 4900TIP3   OH238894   6.992   1.360   8.003  0.2920 -0.4946  0.0051
 4900TIP3    H138895   7.066   1.383   8.060  1.0621 -0.7529 -0.8539
 4900TIP3    H238896   6.946   1.443   7.989 -1.0438 -0.7355  2.4954
 4901TIP3   OH238897   4.884   1.590   9.281  0.1301  0.2851 -0.0221
 4901TIP3    H138898   4.840   1.563   9.362  2.8602  0.1442  1.5214
 4901TIP3    H238899   4.924   1.510   9.248  0.1369  0.6131 -0.8108
 4902TIP3   OH238900   4.132   0.889   8.604  0.4003  0.7965  0.2582
 4902TIP3    H138901   4.183   0.852   8.531  1.5311  0.7974  1.0227
 4902TIP3    H238902   4.172   0.852   8.682 -1.6913 -0.3044  0.8620
 4903TIP3   OH238903   1.545   2.414   7.484 -0.5520 -0.1567 -0.0773
 4903TIP3    H138904   1.548   2.479   7.414  2.2459  0.0505  0.1062
 4903TIP3    H238905   1.593   2.338   7.449 -1.2409 -0.9927  0.7502
 4904TIP3   OH238906   0.616   3.163   9.248 -0.2725  0.8614 -0.2686
 4904TIP3    H138907   0.651   3.250   9.230 -0.3699  0.5665 -1.9724
 4904TIP3    H238908   0.544   3.153   9.187 -0.2168 -0.4519 -0.1358
 4905TIP3   OH238909   2.580   1.184   7.754  0.2082  0.3179 -0.6997
 4905TIP3    H138910   2.646   1.251   7.737  0.6228 -0.0640 -0.6110
 4905TIP3    H238911   2.518   1.226   7.814  1.4134  0.0613  0.7668
 4906TIP3   OH238912   0.518   0.782   8.818  0.1280  0.1197 -0.7534
 4906TIP3    H138913   0.508   0.877   8.817  1.6759  0.3037 -0.9888
 4906TIP3    H238914   0.612   0.767   8.824 -0.1230 -1.4061  0.0636
 4907TIP3   OH238915   3.539   7.297   7.302 -0.5834 -0.4540  0.2431
 4907TIP3    H138916   3.461   7.257   7.341 -2.1772  0.2448 -2.0148
 4907TIP3    H238917   3.609   7.235   7.321 -2.4457 -3.1299 -0.9096
 4908TIP3   OH238918   3.908   5.448   8.565  0.0152  0.2593 -0.3148
 4908TIP3    H138919   3.953   5.476   8.644  0.6131 -1.9066  0.1872
 4908TIP3    H238920   3.965   5.477   8.493  0.9150 -0.1914  0.1943
 4909TIP3   OH238921   4.720   6.656   8.564  0.1169  0.0896 -0.1676
 4909TIP3    H138922   4.671   6.722   8.614 -1.9975 -0.3469 -1.5055
 4909TIP3    H238923   4.811   6.685   8.568 -0.0880  0.6667  2.9199
 4910TIP3   OH238924   6.232   3.721   7.702 -0.7636 -0.1927 -0.1763
 4910TIP3    H138925   6.191   3.741   7.786  0.6967 -1.4075  0.8817
 4910TIP3    H238926   6.314   3.771   7.703 -0.1804 -1.1321 -0.3541
 4911TIP3   OH238927   6.905   5.353   7.722 -0.2091  0.6025 -0.3032
 4911TIP3    H138928   6.953   5.431   7.692 -0.1811  0.7184  0.0340
 4911TIP3    H238929   6.833   5.389   7.774 -0.6602  0.4278 -0.7952
 4912TIP3   OH238930   3.829   4.835   8.613  0.3116 -0.0251  0.1954
 4912TIP3    H138931   3.869   4.794   8.536 -0.4101 -0.1006 -0.1531
 4912TIP3    H238932   3.899   4.887   8.652  0.9732 -0.8070  0.0823
 4913TIP3   OH238933   5.161   5.646   8.771  0.8046  0.3437 -0.0012
 4913TIP3    H138934   5.079   5.649   8.721 -0.8408  0.7418  2.5232
 4913TIP3    H238935   5.197   5.560   8.753 -0.0375  0.2474 -1.3522
 4914TIP3   OH238936   5.530   7.121   8.889 -0.5643 -0.7411 -0.1009
 4914TIP3    H138937   5.481   7.198   8.919  0.0473 -0.6168  0.5957
 4914TIP3    H238938   5.618   7.155   8.869 -0.7257 -0.9677 -1.3089
 4915TIP3   OH238939   4.027   5.251   6.919  0.2797  0.5616  0.2605
 4915TIP3    H138940   4.086   5.210   6.982 -0.4025 -2.1205 -0.6933
 4915TIP3    H238941   4.084   5.298   6.858  1.0090  2.2470  2.1297
 4916TIP3   OH238942   4.177   4.049   8.288  0.0565  0.5003  0.3299
 4916TIP3    H138943   4.142   4.107   8.355 -0.7881 -0.5675  0.8435
 4916TIP3    H238944   4.220   4.108   8.225 -0.6282  1.6504  0.9060
 4917TIP3   OH238945   6.442   0.582   8.316 -0.7038  0.6582  0.4109
 4917TIP3    H138946   6.513   0.583   8.251 -1.6517  1.4180 -0.6682
 4917TIP3    H238947   6.459   0.505   8.369 -1.3378 -1.6324 -2.4342
 4918TIP3   OH238948   4.937   4.512   8.777  0.2105 -0.7732  0.1421
 4918TIP3    H138949   4.887   4.469   8.708 -1.3318 -0.1661  0.8430
 4918TIP3    H238950   4.989   4.441   8.816 -1.9066 -1.9850  0.9512
 4919TIP3   OH238951   3.264   6.463   9.498 -0.3580 -0.0960 -0.7272
 4919TIP3    H138952   3.199   6.532   9.488  1.3111  1.6990  0.2457
 4919TIP3    H238953   3.285   6.435   9.409 -1.7646 -0.0802 -1.0810
 4920TIP3   OH238954   0.679   0.115   7.051  0.1150  0.4057  0.3291
 4920TIP3    H138955   0.595   0.113   7.005  0.4590 -2.1816 -0.3640
 4920TIP3    H238956   0.694   0.024   7.077  1.5039  1.2499  2.7564
 4921TIP3   OH238957   0.446   3.970   7.571 -0.4386  0.4972 -0.1146
 4921TIP3    H138958   0.442   3.986   7.665 -2.0489  1.0033 -0.2342
 4921TIP3    H238959   0.423   3.878   7.561  1.9351 -0.1816  0.0975
 4922TIP3   OH238960   0.993   7.278   9.251 -0.2329 -0.0269  0.0609
 4922TIP3    H138961   1.030   7.281   9.163 -0.6098  1.3508 -0.0703
 4922TIP3    H238962   0.898   7.271   9.237 -0.2356 -0.6293  0.3641
 4923TIP3   OH238963   6.079   3.184   8.824  0.0978  0.4241 -0.0799
 4923TIP3    H138964   6.088   3.276   8.847  0.1153  0.5510 -0.5832
 4923TIP3    H238965   6.132   3.138   8.889  0.7129  0.8261 -0.2884
 4924TIP3   OH238966   7.585   0.127   9.587  0.3092  0.4804 -0.2977
 4924TIP3    H138967   7.627   0.071   9.523  3.4630  2.8485 -0.5344
 4924TIP3    H238968   7.561   0.206   9.537 -0.6758  0.8361  0.7001
 4925TIP3   OH238969   5.579   0.596   7.970  0.3223  0.2568 -0.8723
 4925TIP3    H138970   5.626   0.662   8.021 -2.2786  1.1848  0.5584
 4925TIP3    H238971   5.511   0.564   8.030  0.0266 -2.0275 -2.3136
 4926TIP3   OH238972   2.490   1.333   8.552  0.2284  0.4549  0.7895
 4926TIP3    H138973   2.461   1.392   8.482  0.7940  0.1730  0.3076
 4926TIP3    H238974   2.585   1.330   8.543  0.1278 -2.1022 -0.5249
 4927TIP3   OH238975   3.200   0.978   8.741 -0.4220  0.2686 -0.0690
 4927TIP3    H138976   3.139   0.944   8.807  0.3961  1.2981  1.2816
 4927TIP3    H238977   3.144   1.015   8.673 -1.3023  0.6541  0.8439
 4928TIP3   OH238978   1.478   4.781   8.764  0.6623 -0.2328 -0.4337
 4928TIP3    H138979   1.386   4.795   8.741  0.8695 -0.7653 -1.6960
 4928TIP3    H238980   1.527   4.818   8.690  1.4989  0.6063  0.5051
 4929TIP3   OH238981   0.297   7.502   9.234  0.0229  1.1176  0.1345
 4929TIP3    H138982   0.304   7.593   9.204  1.5136  1.2078  0.6766
 4929TIP3    H238983   0.203   7.487   9.243 -0.2923  2.2771 -0.9325
 4930TIP3   OH238984   6.564   2.225   7.798 -0.1223  0.0316  0.0184
 4930TIP3    H138985   6.498   2.158   7.781  0.5729 -0.7465  0.2998
 4930TIP3    H238986   6.576   2.268   7.714 -1.0271  0.2298 -0.0195
 4931TIP3   OH238987   0.453   4.767   7.325  0.0838 -0.0915  0.2225
 4931TIP3    H138988   0.496   4.846   7.291 -1.0082  0.1824 -0.6275
 4931TIP3    H238989   0.417   4.725   7.247 -1.2001 -0.2739  0.8864
 4932TIP3   OH238990   0.225   2.017   9.417  0.1009  0.9920 -0.2299
 4932TIP3    H138991   0.198   1.935   9.459 -0.3401  0.9535 -0.5679
 4932TIP3    H238992   0.258   1.990   9.331 -0.8539  1.2379 -0.6871
 4933TIP3   OH238993   0.343   3.029   8.796 -0.7984 -0.0904 -0.2462
 4933TIP3    H138994   0.290   3.109   8.796  0.6172  0.9141  0.8985
 4933TIP3    H238995   0.341   2.998   8.705 -0.2532  2.0569 -1.0571
 4934TIP3   OH238996   5.935   4.655   8.583 -0.6262 -0.1850 -0.0058
 4934TIP3    H138997   5.916   4.568   8.547 -1.6491  0.8539 -2.1657
 4934TIP3    H238998   6.030   4.655   8.596 -0.6737 -1.8033  0.5991
 4935TIP3   OH238999   7.451   6.954   8.134 -0.1473 -0.2704  0.4543
 4935TIP3    H139000   7.363   6.978   8.162  0.0148  1.4525 -0.3985
 4935TIP3    H239001   7.448   6.859   8.127 -2.4591 -0.1610 -1.1620
 4936TIP3   OH239002   3.552   0.727   8.846  0.6901  0.9121  0.1150
 4936TIP3    H139003   3.604   0.654   8.814 -1.4573  0.8712 -3.9055
 4936TIP3    H239004   3.601   0.805   8.819  1.5240  1.0105  1.7785
 4937TIP3   OH239005   1.521   1.276   9.052 -0.3518  0.0400  0.3208
 4937TIP3    H139006   1.568   1.268   9.136  2.4767 -0.1758 -1.1501
 4937TIP3    H239007   1.573   1.339   9.002 -1.3375 -0.6344 -1.6518
 4938TIP3   OH239008   3.770   3.552   7.494 -0.1758  0.6199  0.0827
 4938TIP3    H139009   3.785   3.647   7.493  0.6117  0.5166  0.7973
 4938TIP3    H239010   3.726   3.536   7.578 -0.4219  0.3642 -0.0940
 4939TIP3   OH239011   7.520   4.248   8.404  0.1651 -0.3699 -0.2027
 4939TIP3    H139012   7.531   4.218   8.494 -0.9143  1.7328  0.6980
 4939TIP3    H239013   7.440   4.205   8.375 -0.2634  0.0227  0.3619
 4940TIP3   OH239014   2.384   1.306   7.920 -0.3466 -0.8148  1.1149
 4940TIP3    H139015   2.438   1.258   7.982 -1.1089 -1.6272  1.1694
 4940TIP3    H239016   2.321   1.355   7.974  0.0406 -0.2146  1.0362
 4941TIP3   OH239017   4.184   0.636   9.437  0.1618  0.3290 -0.1300
 4941TIP3    H139018   4.124   0.666   9.369 -1.0864  0.4239  0.9933
 4941TIP3    H239019   4.130   0.583   9.496  0.6647  2.0804  2.0413
 4942TIP3   OH239020   1.131   0.935   8.884  0.2302  0.2587 -0.0503
 4942TIP3    H139021   1.190   0.920   8.958 -0.3013  0.2273  0.3743
 4942TIP3    H239022   1.071   1.004   8.915  1.3689  1.8619 -1.2316
 4943TIP3   OH239023   3.982   0.725   9.275 -0.6256  0.1824  0.2962
 4943TIP3    H139024   3.925   0.649   9.267  0.9196 -1.2603  2.0003
 4943TIP3    H239025   3.992   0.758   9.186 -1.2709 -1.6780 -0.5089
 4944TIP3   OH239026   1.072   6.818   8.786  0.3022  0.5361 -0.5398
 4944TIP3    H139027   0.992   6.801   8.836 -1.5884  4.6946 -1.6834
 4944TIP3    H239028   1.140   6.826   8.853 -0.6150 -1.0275  0.6601
 4945TIP3   OH239029   6.751   2.741   8.304 -0.4821  0.2833 -0.9034
 4945TIP3    H139030   6.720   2.716   8.391  0.4745  0.7243 -0.4177
 4945TIP3    H239031   6.687   2.806   8.274 -0.5100  0.5555 -0.2809
 4946TIP3   OH239032   3.948   7.331   9.476 -0.0729  0.3353  0.6299
 4946TIP3    H139033   3.872   7.378   9.442 -1.2271 -1.6180  0.3151
 4946TIP3    H239034   3.933   7.240   9.451  1.7371 -0.3326  1.7281
 4947TIP3   OH239035   5.182   7.101   7.140 -0.5051 -0.1332 -0.2268
 4947TIP3    H139036   5.133   7.019   7.144 -0.6218 -0.0545 -0.0259
 4947TIP3    H239037   5.124   7.161   7.094 -0.6203 -0.0266  0.0530
 4948TIP3   OH239038   6.675   1.583   8.250  0.0686  0.3883 -0.0979
 4948TIP3    H139039   6.593   1.631   8.236 -0.0073  0.2057 -0.2911
 4948TIP3    H239040   6.731   1.612   8.178 -0.1796 -0.2487 -0.5587
 4949TIP3   OH239041   4.580   3.819   8.236  0.1097  0.0001  0.2135
 4949TIP3    H139042   4.550   3.744   8.288 -0.0684 -0.9681 -1.2531
 4949TIP3    H239043   4.533   3.812   8.153 -1.0205  2.5691  0.5416
 4950TIP3   OH239044   0.983   2.224   7.732 -0.2278 -0.0083 -0.5421
 4950TIP3    H139045   0.994   2.202   7.824 -1.5118 -0.8154 -0.5589
 4950TIP3    H239046   1.019   2.312   7.724  0.1237 -0.0263  0.6695
 4951TIP3   OH239047   4.891   5.301   7.072  0.1491  0.2964 -0.2806
 4951TIP3    H139048   4.889   5.375   7.132  0.9291  0.4406 -0.4239
 4951TIP3    H239049   4.817   5.246   7.099  1.9528 -0.9773  2.5154
 4952TIP3   OH239050   2.394   1.895   7.415 -0.3936  0.1349 -0.4424
 4952TIP3    H139051   2.387   1.934   7.502  0.8259 -1.6655  0.5365
 4952TIP3    H239052   2.467   1.833   7.422 -0.7867 -0.6673 -2.5272
 4953TIP3   OH239053   3.554   6.157   9.425  0.0410 -0.8327 -0.4056
 4953TIP3    H139054   3.544   6.229   9.488 -0.1709 -1.2126 -0.0031
 4953TIP3    H239055   3.540   6.078   9.476 -0.0018 -1.1535 -0.9044
 4954TIP3   OH239056   5.579   5.734   8.078 -0.1589 -0.1695  0.4934
 4954TIP3    H139057   5.590   5.797   8.149 -0.9390  0.9780 -0.3766
 4954TIP3    H239058   5.503   5.765   8.029  1.3118  0.0500 -1.8162
 4955TIP3   OH239059   1.863   4.898   8.881 -0.2336  0.5868  0.1297
 4955TIP3    H139060   1.812   4.825   8.918  0.1813 -0.9195 -2.1270
 4955TIP3    H239061   1.899   4.943   8.958 -1.4939 -0.8349  1.6256
 4956TIP3   OH239062   3.340   3.169   7.727  0.3465  0.4388  0.3293
 4956TIP3    H139063   3.362   3.114   7.651 -0.0867  0.4940  0.1624
 4956TIP3    H239064   3.377   3.123   7.802  3.4905  1.8447 -0.1810
 4957TIP3   OH239065   0.021   7.554   7.149 -0.2205  0.0575 -0.2564
 4957TIP3    H139066  -0.007   7.478   7.098 -0.2230  0.0965 -0.3144
 4957TIP3    H239067  -0.002   7.629   7.093  0.2073  0.0803 -0.4059
 4958TIP3   OH239068   3.475   0.033   9.009 -0.9079  0.4051 -0.0629
 4958TIP3    H139069   3.473   0.127   8.989  2.7660  0.5802 -0.3458
 4958TIP3    H239070   3.525  -0.006   8.938 -2.6032 -1.9233 -0.1207
 4959TIP3   OH239071   0.099   5.731   7.675  0.3827  0.3634 -0.0860
 4959TIP3    H139072   0.173   5.695   7.724  0.6052  1.6903  0.5710
 4959TIP3    H239073   0.065   5.656   7.625  0.3335 -0.9632  1.8457
 4960TIP3   OH239074   2.948   5.573   8.494  0.1447  0.5526  0.5990
 4960TIP3    H139075   2.940   5.481   8.468  1.8643  0.2944  0.8734
 4960TIP3    H239076   2.862   5.595   8.529  0.1017 -1.3660  1.8553
 4961TIP3   OH239077   3.068   2.140   8.511  0.4868 -0.6396 -0.0862
 4961TIP3    H139078   3.043   2.212   8.454  0.3656  0.3849  1.1942
 4961TIP3    H239079   2.986   2.107   8.547  0.6752  0.0751  1.0397
 4962TIP3   OH239080   4.178   1.878   7.158  0.3679 -0.2939 -0.2707
 4962TIP3    H139081   4.150   1.962   7.194 -0.2979 -1.0662  1.1022
 4962TIP3    H239082   4.262   1.861   7.201  0.4418 -0.3897 -0.4524
 4963TIP3   OH239083   0.394   0.657   8.144 -0.4300 -1.2572  0.2229
 4963TIP3    H139084   0.397   0.751   8.132 -1.2570 -1.0575  1.3628
 4963TIP3    H239085   0.452   0.640   8.219  0.5370 -1.7916 -0.6269
 4964TIP3   OH239086   5.944   0.487   7.977  0.5174  0.1715  0.2034
 4964TIP3    H139087   5.880   0.513   7.911 -1.1081 -1.9289  0.8649
 4964TIP3    H239088   6.027   0.523   7.945 -0.3582 -0.0350 -2.5184
 4965TIP3   OH239089   5.588   0.646   9.231 -0.1302  0.4219 -0.7169
 4965TIP3    H139090   5.527   0.626   9.302  0.4819 -1.8556 -0.7666
 4965TIP3    H239091   5.636   0.723   9.261 -0.6500  0.1680  0.8420
 4966TIP3   OH239092   1.400   5.799   7.987 -0.1168 -0.1776 -0.1147
 4966TIP3    H139093   1.451   5.878   7.972 -0.4544  0.4389  1.7129
 4966TIP3    H239094   1.322   5.810   7.932  1.0417 -0.5272 -1.9160
 4967TIP3   OH239095   2.175   3.321   8.775  0.2965  0.4075  0.2128
 4967TIP3    H139096   2.212   3.381   8.710 -0.3631 -0.5608 -1.0810
 4967TIP3    H239097   2.249   3.302   8.834  2.0768 -1.7228 -2.4597
 4968TIP3   OH239098   6.126   6.406   7.434  0.3258 -0.1012  0.4553
 4968TIP3    H139099   6.160   6.344   7.369  0.1980 -0.7948  1.0379
 4968TIP3    H239100   6.196   6.471   7.444  0.6098 -0.3462  0.1026
 4969TIP3   OH239101   6.889   7.243   7.531 -0.3567  0.0074 -0.0672
 4969TIP3    H139102   6.848   7.279   7.452  2.0058  0.0443 -1.3708
 4969TIP3    H239103   6.936   7.165   7.500 -0.8451 -1.0181  1.6675
 4970TIP3   OH239104   5.459   6.729   6.534  0.4163  0.0600 -1.0234
 4970TIP3    H139105   5.542   6.733   6.582  0.6608  1.4446 -1.5143
 4970TIP3    H239106   5.458   6.642   6.494  1.6266  0.0145 -0.9858
 4971TIP3   OH239107   7.289   3.446   7.189  0.4272  0.0439  0.0219
 4971TIP3    H139108   7.270   3.363   7.146  1.3896 -0.7337  1.0351
 4971TIP3    H239109   7.338   3.497   7.124 -0.2521 -0.1230 -0.6367
 4972TIP3   OH239110   2.281   4.198   8.992  0.6939  0.1405  0.0876
 4972TIP3    H139111   2.207   4.169   8.939  1.7327  0.9168 -1.8741
 4972TIP3    H239112   2.260   4.170   9.081 -2.0351  0.5255 -0.3743
 4973TIP3   OH239113   1.031   6.992   9.002  0.1734  0.2677  0.5490
 4973TIP3    H139114   1.031   6.948   9.087  2.0380 -1.8718 -0.4635
 4973TIP3    H239115   0.941   6.984   8.971  0.4075 -3.0812  0.3862
 4974TIP3   OH239116   5.322   3.257   8.485 -0.3984  0.0677  0.2097
 4974TIP3    H139117   5.235   3.219   8.501 -0.0999 -0.3820  0.7849
 4974TIP3    H239118   5.378   3.219   8.552  0.6792 -1.1272 -1.2802
 4975TIP3   OH239119   0.459   3.765   8.867  0.3831  0.0220 -0.2839
 4975TIP3    H139120   0.490   3.726   8.785  0.0966 -2.1040  0.5503
 4975TIP3    H239121   0.391   3.828   8.840  0.8603 -0.0322 -1.7020
 4976TIP3   OH239122   4.291   5.703   9.057 -0.2487  0.1920  1.0787
 4976TIP3    H139123   4.239   5.717   9.135  1.9158 -0.2548  2.7070
 4976TIP3    H239124   4.376   5.672   9.089  0.4779 -0.8142 -1.4918
 4977TIP3   OH239125   5.346   0.473   8.120  0.5063 -0.3864  0.3190
 4977TIP3    H139126   5.295   0.440   8.045 -0.7403  1.1147  0.4752
 4977TIP3    H239127   5.296   0.447   8.197  1.2012 -0.9241  0.6074
 4978TIP3   OH239128   7.182   3.242   7.626 -0.1856 -0.7734  0.5149
 4978TIP3    H139129   7.216   3.303   7.691 -1.0598 -0.9560  1.1633
 4978TIP3    H239130   7.168   3.295   7.548 -1.6404  0.0423  1.2890
 4979TIP3   OH239131   0.578   1.475   8.274 -0.4434  0.1743  0.2416
 4979TIP3    H139132   0.515   1.539   8.308 -1.0498  0.5939 -1.5755
 4979TIP3    H239133   0.525   1.414   8.223  0.5859  0.5208 -1.3113
 4980TIP3   OH239134   2.966   7.252   7.878  0.4989  0.1784  0.0854
 4980TIP3    H139135   2.950   7.337   7.917  0.2214  0.1662 -0.0032
 4980TIP3    H239136   2.901   7.244   7.809  1.3913  0.4704 -0.8131
 4981TIP3   OH239137   5.803   2.997   9.043 -0.3881  0.2854  0.5098
 4981TIP3    H139138   5.854   2.988   8.963 -1.9804  0.7855 -0.6070
 4981TIP3    H239139   5.747   2.920   9.045 -1.7360  1.2159  0.0777
 4982TIP3   OH239140   4.666   5.036   7.929 -0.0110  0.0804  0.0074
 4982TIP3    H139141   4.665   5.090   7.850  0.8085 -1.8085 -1.3773
 4982TIP3    H239142   4.712   4.956   7.903  0.0918 -0.7036  2.3530
 4983TIP3   OH239143   2.079   3.300   6.991 -0.3979  0.4765  0.4254
 4983TIP3    H139144   2.021   3.366   7.028  2.0882  1.6683  2.5237
 4983TIP3    H239145   2.109   3.338   6.908 -1.2645  0.6002  0.1576
 4984TIP3   OH239146   2.450   0.198   7.939  0.2032 -0.4177 -0.1225
 4984TIP3    H139147   2.501   0.158   8.009 -2.6553 -1.7752  1.3640
 4984TIP3    H239148   2.413   0.277   7.978 -2.3106 -1.7554  0.4397
 4985TIP3   OH239149   5.722   0.285   9.057  0.2798 -0.4737  0.1054
 4985TIP3    H139150   5.693   0.344   8.989  1.0994  1.1784  1.1311
 4985TIP3    H239151   5.676   0.203   9.039  0.0937  0.0606 -2.0939
 4986TIP3   OH239152   6.869   5.790   8.449 -0.2658  0.1410  0.0185
 4986TIP3    H139153   6.779   5.793   8.480 -0.1581  2.4470  0.2652
 4986TIP3    H239154   6.920   5.762   8.525 -0.7449 -1.3202 -0.1629
 4987TIP3   OH239155   0.969   2.702   7.162 -0.0368  0.3160 -0.5444
 4987TIP3    H139156   0.958   2.688   7.068  0.7562  0.1431 -0.6249
 4987TIP3    H239157   1.044   2.647   7.185  0.5178  1.2518 -0.0507
 4988TIP3   OH239158   3.076   2.804   8.346  0.5743 -0.0049  0.7586
 4988TIP3    H139159   2.980   2.803   8.352  0.5334  0.3229  0.1672
 4988TIP3    H239160   3.105   2.839   8.431  0.0962  1.8926  0.1811
 4989TIP3   OH239161   0.836   5.459   7.188 -0.2763  0.2564  0.5567
 4989TIP3    H139162   0.754   5.501   7.213 -1.9099 -2.4559  0.1052
 4989TIP3    H239163   0.837   5.464   7.092 -0.4049 -0.5586  0.5111
 4990TIP3   OH239164   0.976   0.825   9.263  0.0599 -0.1589 -0.3711
 4990TIP3    H139165   0.926   0.846   9.184 -0.3676 -0.1323 -0.0949
 4990TIP3    H239166   0.926   0.757   9.306 -0.0180  0.2420  0.1788
 4991TIP3   OH239167   7.450   7.332   9.311 -0.3734  0.3611 -0.3005
 4991TIP3    H139168   7.428   7.255   9.260 -0.1134 -0.5836  0.9723
 4991TIP3    H239169   7.466   7.299   9.399  4.3590  1.0989 -0.5880
 4992TIP3   OH239170   4.792   0.396   8.413  0.2765 -0.2827 -0.0479
 4992TIP3    H139171   4.835   0.451   8.478  0.1064 -0.0751 -0.1113
 4992TIP3    H239172   4.704   0.381   8.447  0.0827  0.0836 -0.3741
 4993TIP3   OH239173   3.824   7.116   8.400 -0.0148 -0.8037  0.0178
 4993TIP3    H139174   3.753   7.080   8.347 -0.7050 -0.4746  0.7056
 4993TIP3    H239175   3.829   7.208   8.375  0.5943 -0.9697 -0.4858
 4994TIP3   OH239176   1.976   0.482   7.998  0.0858 -0.1965  0.2447
 4994TIP3    H139177   2.036   0.553   7.977 -0.1255  0.3637  1.4008
 4994TIP3    H239178   1.890   0.524   8.002  0.1867 -0.0757  2.7592
 4995TIP3   OH239179   4.066   2.431   8.597 -0.0954 -0.7200 -0.0568
 4995TIP3    H139180   4.046   2.507   8.543 -0.3732 -0.7803 -0.0445
 4995TIP3    H239181   4.046   2.459   8.686 -0.0670 -0.7631 -0.0366
 4996TIP3   OH239182   5.026   0.500   6.907  0.3841  0.0819  0.4630
 4996TIP3    H139183   5.075   0.528   6.984 -0.8348 -0.0378  1.3033
 4996TIP3    H239184   4.942   0.544   6.914 -1.0974 -2.6011  1.1152
 4997TIP3   OH239185   7.366   1.401   8.832 -0.0291  0.2913 -0.5316
 4997TIP3    H139186   7.410   1.383   8.749  0.0128  1.5156 -0.8029
 4997TIP3    H239187   7.359   1.316   8.875  1.9043 -0.0760 -0.8333
 4998TIP3   OH239188   5.017   5.025   8.151 -0.3487  0.4284 -0.3855
 4998TIP3    H139189   5.097   5.058   8.111 -0.5529  1.8746  0.3177
 4998TIP3    H239190   4.993   4.949   8.099  1.6161 -0.1969 -0.4566
 4999TIP3   OH239191   6.758   5.816   7.981 -0.9339  0.1116  0.4859
 4999TIP3    H139192   6.758   5.739   8.038  1.0702  0.0399  0.4744
 4999TIP3    H239193   6.830   5.800   7.919 -0.8713  1.7181  0.0944
 5000TIP3   OH239194   5.463   6.319   8.487 -0.1266  0.0542  0.0361
 5000TIP3    H139195   5.532   6.322   8.421  0.9827  2.4145  1.1816
 5000TIP3    H239196   5.501   6.268   8.560 -0.3202 -0.2214 -0.0515
 5001TIP3   OH239197   4.481   2.587   9.165 -0.7434  0.3063  0.6849
 5001TIP3    H139198   4.450   2.559   9.080 -1.4824  1.0109  0.7025
 5001TIP3    H239199   4.572   2.559   9.169 -1.1813 -1.2504  0.3672
 5002TIP3   OH239200   4.882   3.398   8.484  0.5474 -0.1082 -0.0474
 5002TIP3    H139201   4.922   3.312   8.494  1.6062  0.1116 -1.8603
 5002TIP3    H239202   4.955   3.459   8.497  0.0669  0.4616  0.0145
 5003TIP3   OH239203   5.577   7.642   7.462  0.2061 -0.6610  0.1783
 5003TIP3    H139204   5.552   7.724   7.419  0.8620 -0.5462 -0.0057
 5003TIP3    H239205   5.588   7.579   7.391  0.0087 -0.8255  0.2923
 5004TIP3   OH239206   5.751   1.004   9.224 -0.5550 -0.1415 -0.3751
 5004TIP3    H139207   5.720   1.035   9.309 -2.2681 -0.9484 -0.6632
 5004TIP3    H239208   5.703   1.056   9.160  0.2386  0.0091 -0.8577
 5005TIP3   OH239209   2.021   0.187   7.230  0.2411 -0.5415  0.0258
 5005TIP3    H139210   1.932   0.155   7.219 -0.3053  0.3680  1.5329
 5005TIP3    H239211   2.061   0.178   7.143 -2.2048  1.7627 -1.4827
 5006TIP3   OH239212   2.543   3.567   7.471  0.2554  0.3628  0.0359
 5006TIP3    H139213   2.589   3.496   7.516  0.4946  0.9996  0.8147
 5006TIP3    H239214   2.600   3.589   7.397  0.6316  0.3415  0.3142
 5007TIP3   OH239215   2.696   0.974   7.434  0.1836  0.6365  0.7232
 5007TIP3    H139216   2.617   0.979   7.380  0.4304  0.8087  0.3764
 5007TIP3    H239217   2.752   1.044   7.402  1.2854 -0.6576 -0.3247
 5008TIP3   OH239218   7.425   6.658   6.602  0.2740 -0.1844  0.1718
 5008TIP3    H139219   7.344   6.695   6.567 -0.3927 -0.3860  1.4570
 5008TIP3    H239220   7.464   6.728   6.653  0.2284 -0.4898  0.6372
 5009TIP3   OH239221   2.183   3.039   8.351 -0.0260  0.1650  0.4287
 5009TIP3    H139222   2.221   3.006   8.433 -1.4831 -0.6609  0.8073
 5009TIP3    H239223   2.217   3.129   8.343 -2.0413  1.3536  3.4654
 5010TIP3   OH239224   7.115   5.493   8.112 -0.0571  0.1730  0.3686
 5010TIP3    H139225   7.128   5.582   8.144 -0.8927  0.0074  1.2326
 5010TIP3    H239226   7.184   5.480   8.048  0.0468  1.4597  0.1908
 5011TIP3   OH239227   5.907   1.231   8.661  0.0491  0.1083  0.5523
 5011TIP3    H139228   5.981   1.173   8.676 -0.5439 -0.2096  2.4701
 5011TIP3    H239229   5.829   1.175   8.670 -0.5181  1.0710  2.0934
 5012TIP3   OH239230   4.898   4.551   9.235  0.4631 -0.0713 -0.5936
 5012TIP3    H139231   4.902   4.467   9.191  0.0969 -0.2613 -0.2695
 5012TIP3    H239232   4.904   4.530   9.328 -0.3946  0.1909 -0.4631
 5013TIP3   OH239233   1.897   2.791   7.738  0.5251 -0.0378  0.1863
 5013TIP3    H139234   1.973   2.851   7.745 -0.1971  0.8794  0.4212
 5013TIP3    H239235   1.910   2.730   7.811  0.5199  0.7489  0.8760
 5014TIP3   OH239236   4.699   3.153   7.892  0.1152 -0.6789  0.8154
 5014TIP3    H139237   4.700   3.194   7.805 -0.9516  0.7489  1.4457
 5014TIP3    H239238   4.662   3.066   7.877 -0.1115 -0.4286 -0.1560
 5015TIP3   OH239239   4.629   7.656   7.796 -0.4896  0.0856  0.6371
 5015TIP3    H139240   4.633   7.570   7.837 -2.4971 -0.3794 -0.0102
 5015TIP3    H239241   4.559   7.647   7.730 -0.1362  1.9580 -0.0396
 5016TIP3   OH239242   2.067   3.164   9.009  0.6909  0.0454  0.0907
 5016TIP3    H139243   1.985   3.200   9.044  0.8547  0.7110 -0.1857
 5016TIP3    H239244   2.048   3.149   8.916  1.4379  1.9811 -0.4119
 5017TIP3   OH239245   5.180   0.499   7.117  0.6987 -0.0324  0.0024
 5017TIP3    H139246   5.179   0.425   7.177 -0.4230 -0.6503 -0.7431
 5017TIP3    H239247   5.203   0.574   7.172  0.1671 -0.6519  1.1068
 5018TIP3   OH239248   5.538   7.460   9.216  0.3414  0.3562 -0.3929
 5018TIP3    H139249   5.598   7.391   9.244 -2.1808 -0.6681  3.3129
 5018TIP3    H239250   5.581   7.541   9.242  0.8955 -0.2336  0.6017
 5019TIP3   OH239251   2.693   3.168   9.784 -0.5548  0.2365 -0.2691
 5019TIP3    H139252   2.750   3.211   9.848 -1.8602  1.0807  0.3560
 5019TIP3    H239253   2.754   3.129   9.720  0.8015 -0.9415  1.6488
 5020TIP3   OH239254   0.840   3.328   7.390 -0.3528  0.5533  0.4776
 5020TIP3    H139255   0.861   3.336   7.297 -0.0628 -0.3282  0.4587
 5020TIP3    H239256   0.784   3.250   7.395 -0.5781  0.7483  1.0107
 5021TIP3   OH239257   0.785   5.105   7.132 -0.1353 -0.5068 -0.8844
 5021TIP3    H139258   0.874   5.069   7.136  0.0988  0.0661 -0.7799
 5021TIP3    H239259   0.798   5.200   7.131 -0.6936 -0.4189 -2.2272
 5022TIP3   OH239260   3.946   0.028   9.217  0.0959 -0.6554 -0.1673
 5022TIP3    H139261   3.962   0.046   9.124  0.5127 -1.0423 -0.1712
 5022TIP3    H239262   3.852   0.012   9.222  0.2230 -1.6164 -0.6918
 5023TIP3   OH239263   0.988   5.492   8.526 -0.1160  0.3448  0.0956
 5023TIP3    H139264   0.949   5.409   8.553  0.0827  0.1923 -0.0805
 5023TIP3    H239265   1.035   5.523   8.603  1.9730 -0.9814 -0.5449
 5024TIP3   OH239266   3.545   7.511   7.854 -0.2076 -0.3891  0.3953
 5024TIP3    H139267   3.527   7.550   7.768 -1.7443  0.1259  0.9231
 5024TIP3    H239268   3.640   7.521   7.865 -0.2408  1.1998 -0.4549
 5025TIP3   OH239269   0.081   2.315   7.066 -0.1444  0.4414 -0.0345
 5025TIP3    H139270   0.131   2.287   6.990  2.2569 -0.1680  1.6654
 5025TIP3    H239271   0.045   2.400   7.041 -0.1483 -0.1154 -2.1117
 5026TIP3   OH239272   2.046   2.810   7.136 -0.3050  0.2784  0.0603
 5026TIP3    H139273   2.041   2.878   7.203 -0.7406  1.1082 -0.7808
 5026TIP3    H239274   1.985   2.743   7.166  0.3470  0.1107  1.0500
 5027TIP3   OH239275   1.999   0.126   8.880  0.4551  0.2885 -0.2705
 5027TIP3    H139276   2.015   0.220   8.870 -0.0069  0.4541  0.5355
 5027TIP3    H239277   1.949   0.102   8.802 -2.9259  1.5345  1.3559
 5028TIP3   OH239278   6.213   4.483   7.481  0.1175 -0.1082 -0.9753
 5028TIP3    H139279   6.159   4.444   7.549 -0.7127  0.1377 -1.4794
 5028TIP3    H239280   6.151   4.529   7.424  0.9648  1.0584 -0.9799
 5029TIP3   OH239281   6.306   7.048   8.813 -0.1162 -0.6053 -0.1257
 5029TIP3    H139282   6.395   7.055   8.779 -0.0986 -1.8758 -0.3627
 5029TIP3    H239283   6.256   7.007   8.742 -0.7636 -0.4604  0.2337
 5030TIP3   OH239284   0.310   7.211   8.346 -0.5813 -0.5060  0.6133
 5030TIP3    H139285   0.393   7.251   8.369 -0.4560 -0.7324  0.5573
 5030TIP3    H239286   0.270   7.272   8.284 -0.5978 -0.2466  0.8831
 5031TIP3   OH239287   7.533   2.323   6.817  0.0800 -0.2513 -0.0595
 5031TIP3    H139288   7.571   2.264   6.753 -0.2074 -0.3652 -0.1287
 5031TIP3    H239289   7.481   2.384   6.765 -2.0205 -1.7143  0.1834
 5032TIP3   OH239290   2.198   5.150   8.275 -0.1050 -0.1763 -0.1063
 5032TIP3    H139291   2.282   5.105   8.281  0.0438  0.0618 -0.3890
 5032TIP3    H239292   2.173   5.165   8.366  1.3899  1.9984  0.0348
 5033TIP3   OH239293   4.994   3.364   7.282 -0.0574 -0.2582  1.0306
 5033TIP3    H139294   4.958   3.450   7.305 -0.0984 -0.5317  2.0163
 5033TIP3    H239295   5.084   3.366   7.314  0.8004  0.3549 -1.2646
 5034TIP3   OH239296   5.348   1.324   7.823  0.0178  0.9919 -0.4627
 5034TIP3    H139297   5.385   1.268   7.754 -3.4891 -2.4366  0.0735
 5034TIP3    H239298   5.320   1.403   7.778 -0.8411 -0.5232 -2.7991
 5035TIP3   OH239299   0.273   5.128   8.787 -0.4735  0.0089  0.2346
 5035TIP3    H139300   0.197   5.173   8.825  0.7199  0.0704  2.7408
 5035TIP3    H239301   0.263   5.037   8.815 -0.8039 -0.4992 -1.4427
 5036TIP3   OH239302   2.992   5.774   7.382  0.0292 -0.1475 -0.3598
 5036TIP3    H139303   2.967   5.751   7.471 -0.3523  0.6246 -0.2627
 5036TIP3    H239304   2.955   5.704   7.328  1.0423 -1.1196  0.1543
 5037TIP3   OH239305   4.598   1.726   7.519 -0.2491 -0.1474 -0.1095
 5037TIP3    H139306   4.671   1.751   7.576 -1.0854  1.7288  0.2247
 5037TIP3    H239307   4.633   1.654   7.466  1.3579 -0.2769  1.0254
 5038TIP3   OH239308   2.800   3.707   7.005  0.3979  0.9149  0.5098
 5038TIP3    H139309   2.798   3.799   6.981  0.9081  1.4943  2.4450
 5038TIP3    H239310   2.887   3.694   7.043 -0.8046  0.6385  3.5311
 5039TIP3   OH239311   4.667   5.853   7.788  0.0699 -0.0668 -0.4475
 5039TIP3    H139312   4.762   5.847   7.789  0.1171  0.6406  0.8155
 5039TIP3    H239313   4.647   5.935   7.743  0.0963  0.2489  0.1093
 5040TIP3   OH239314   4.379   0.294   7.454  0.1271 -0.8967 -0.0879
 5040TIP3    H139315   4.350   0.357   7.521 -1.1003 -0.1198 -1.2848
 5040TIP3    H239316   4.464   0.264   7.484  0.9038  1.5586  0.4145
 5041TIP3   OH239317   4.354   1.584   6.551  0.3866 -0.1824 -0.1838
 5041TIP3    H139318   4.388   1.657   6.602 -0.7465  1.3331 -1.4837
 5041TIP3    H239319   4.364   1.507   6.608  0.1734  1.2323  1.8589
 5042TIP3   OH239320   5.620   0.543   8.388 -0.4009 -0.8762  0.8519
 5042TIP3    H139321   5.618   0.449   8.405 -2.5339 -1.1383 -0.4565
 5042TIP3    H239322   5.537   0.575   8.424 -0.2829  0.2800  0.1381
 5043TIP3   OH239323   1.703   5.492   7.270  0.3927  0.0679  0.5626
 5043TIP3    H139324   1.766   5.515   7.202  0.7756  0.1139  0.9241
 5043TIP3    H239325   1.622   5.473   7.223  0.7608 -0.2923  0.0665
 5044TIP3   OH239326   5.735   2.595   8.106  0.2958 -0.0918  0.3405
 5044TIP3    H139327   5.790   2.550   8.042  0.9240  1.4021 -0.2153
 5044TIP3    H239328   5.698   2.524   8.159  0.5245 -1.3089 -1.0473
 5045TIP3   OH239329   3.779   3.189   8.205 -0.1498  0.0361  0.2129
 5045TIP3    H139330   3.867   3.153   8.213  0.6657  1.2618 -2.2703
 5045TIP3    H239331   3.724   3.112   8.186  0.8005 -0.4932 -0.5477
 5046TIP3   OH239332   1.302   4.762   8.419  0.3243  0.0213  0.0022
 5046TIP3    H139333   1.389   4.743   8.384  0.8568  0.6455  0.9596
 5046TIP3    H239334   1.270   4.678   8.451  0.6939 -0.1539 -0.0843
 5047TIP3   OH239335   3.441   1.172   9.170 -0.2396  0.0001  0.6384
 5047TIP3    H139336   3.504   1.125   9.225  0.0993  0.4561  0.6362
 5047TIP3    H239337   3.483   1.256   9.150 -0.5565  0.0269  0.0637
 5048TIP3   OH239338   7.331   6.437   6.786  0.7630 -0.1196 -0.3266
 5048TIP3    H139339   7.363   6.513   6.737  0.6172  2.2137  2.8752
 5048TIP3    H239340   7.240   6.428   6.760  1.1963 -0.2778 -1.9104
 5049TIP3   OH239341   4.459   0.500   7.030 -0.0753 -0.3675  0.0056
 5049TIP3    H139342   4.458   0.446   6.951 -2.5100  1.6556 -1.5308
 5049TIP3    H239343   4.494   0.585   7.001  0.0438  0.0756  1.3807
 5050TIP3   OH239344   1.430   5.961   6.859 -0.2619  0.0933  0.0959
 5050TIP3    H139345   1.452   6.036   6.803 -0.8370  0.1441 -0.0699
 5050TIP3    H239346   1.335   5.954   6.853 -0.2364 -0.4917  0.3187
 5051TIP3   OH239347   3.930   4.018   8.758  0.7893  0.5353  0.3967
 5051TIP3    H139348   3.859   4.056   8.810  1.6604  0.3689  1.7584
 5051TIP3    H239349   3.897   3.931   8.735  0.8489  0.1160  1.7636
 5052TIP3   OH239350   3.376   1.795   6.994 -0.2715  0.2500 -0.7221
 5052TIP3    H139351   3.408   1.844   7.069 -0.8449 -0.1788 -0.1905
 5052TIP3    H239352   3.287   1.827   6.980 -1.5792 -2.2028  1.1046
 5053TIP3   OH239353   1.479   3.443   6.865 -0.5054 -0.4943  0.0190
 5053TIP3    H139354   1.544   3.421   6.799 -0.5444  1.3721 -0.7010
 5053TIP3    H239355   1.407   3.382   6.849  1.2233 -3.0926  1.2824
 5054TIP3   OH239356   6.963   7.324   8.617 -0.0408 -0.1111  0.2975
 5054TIP3    H139357   6.869   7.331   8.636 -0.1268 -1.1210  0.3165
 5054TIP3    H239358   6.983   7.403   8.567 -0.7816  0.3861  0.7657
 5055TIP3   OH239359   0.618   4.600   6.778  0.0562  0.4615  0.4526
 5055TIP3    H139360   0.669   4.618   6.699  0.8013  1.3086  1.1138
 5055TIP3    H239361   0.654   4.518   6.812 -0.1549  0.1815  0.0107
 5056TIP3   OH239362   2.445   6.941   9.109  0.1160 -0.3594  0.4335
 5056TIP3    H139363   2.475   6.872   9.050 -1.0277 -2.0778  1.7570
 5056TIP3    H239364   2.520   6.959   9.166  1.4839  1.8371 -1.8617
 5057TIP3   OH239365   5.243   7.065   8.549 -0.4742  0.1732  0.1340
 5057TIP3    H139366   5.215   7.074   8.641  0.0998  0.5764  0.2779
 5057TIP3    H239367   5.333   7.033   8.555 -0.9351 -1.2575 -0.3258
 5058TIP3   OH239368   0.129   3.875   7.600 -0.2923  0.2249 -0.5660
 5058TIP3    H139369   0.045   3.840   7.632  1.8188 -2.0703  3.2490
 5058TIP3    H239370   0.123   3.969   7.615 -1.3337 -0.1849  2.3627
 5059TIP3   OH239371   1.729   1.788   8.688 -0.3950 -0.0249 -0.3861
 5059TIP3    H139372   1.755   1.832   8.769  1.2889  0.0439 -0.9292
 5059TIP3    H239373   1.746   1.852   8.619 -1.8456 -0.0686 -0.8100
 5060TIP3   OH239374   0.588   6.215   7.391 -0.0006 -0.3212 -0.0294
 5060TIP3    H139375   0.512   6.202   7.334  0.3640 -1.6525 -0.2489
 5060TIP3    H239376   0.633   6.131   7.390  0.4937 -0.0985  1.5480
 5061TIP3   OH239377   2.979   4.190   8.304  0.4575 -0.1087  0.5510
 5061TIP3    H139378   3.032   4.122   8.263 -0.7017  0.0125 -1.2442
 5061TIP3    H239379   2.997   4.269   8.252 -0.8691  0.1068  0.3848
 5062TIP3   OH239380   2.933   7.316   9.430 -0.0947  0.1145  0.1775
 5062TIP3    H139381   2.973   7.240   9.388 -0.1582  0.1355  0.0806
 5062TIP3    H239382   2.856   7.282   9.475 -1.0810  0.3951 -1.2543
 5063TIP3   OH239383   4.116   0.187   7.463  0.0389 -0.2410  0.3244
 5063TIP3    H139384   4.077   0.272   7.439  2.7202  0.4258 -2.2334
 5063TIP3    H239385   4.202   0.209   7.498 -0.2092 -1.8581  2.1240
 5064TIP3   OH239386   1.585   3.849   7.068 -0.4072 -0.7932  0.0427
 5064TIP3    H139387   1.667   3.862   7.022 -1.3131 -0.1646 -1.4776
 5064TIP3    H239388   1.600   3.884   7.155  0.5660  0.4617 -0.6035
 5065TIP3   OH239389   2.283   4.431   7.611  0.0069 -0.2087  0.2133
 5065TIP3    H139390   2.223   4.411   7.683  0.4615 -1.2257  0.3285
 5065TIP3    H239391   2.352   4.483   7.651 -0.2737  0.1040  0.2936
 5066TIP3   OH239392   2.700   1.572   9.037 -0.7338 -0.7704  0.1327
 5066TIP3    H139393   2.701   1.667   9.027 -0.8225 -0.7528  0.2793
 5066TIP3    H239394   2.663   1.539   8.956 -1.1992 -0.6504  0.2944
 5067TIP3   OH239395   4.267   3.601   7.227 -0.0030 -0.6961  1.0222
 5067TIP3    H139396   4.277   3.574   7.318  0.6920  0.9410  1.4674
 5067TIP3    H239397   4.174   3.621   7.217 -0.2914 -1.9437  1.0296
 5068TIP3   OH239398   6.154   1.079   9.156  0.4113 -0.4564  0.7716
 5068TIP3    H139399   6.212   1.155   9.147 -0.1436 -0.1483 -0.5070
 5068TIP3    H239400   6.068   1.117   9.175  0.3237 -0.8195  1.1042
 5069TIP3   OH239401   6.923   3.233   7.913  0.1444  0.0077 -0.2868
 5069TIP3    H139402   6.975   3.313   7.923  1.7986 -0.9300 -0.9777
 5069TIP3    H239403   6.975   3.166   7.957 -1.0307 -0.7738 -0.0638
 5070TIP3   OH239404   1.257   0.299   8.388  0.1528  0.1550 -0.0078
 5070TIP3    H139405   1.342   0.341   8.374  0.0835 -0.1776 -1.5873
 5070TIP3    H239406   1.262   0.265   8.477  1.1142  1.3987  0.4469
 5071TIP3   OH239407   2.359   4.588   7.334 -0.1000 -0.2103  0.3991
 5071TIP3    H139408   2.451   4.579   7.357  0.1426  1.4191  0.2164
 5071TIP3    H239409   2.311   4.552   7.408  0.6752 -1.2268  0.4204
 5072TIP3   OH239410   3.341   6.551   8.551 -0.2637 -0.3859  0.0959
 5072TIP3    H139411   3.298   6.579   8.470 -0.7473 -0.3603  0.3627
 5072TIP3    H239412   3.381   6.467   8.529 -1.8355 -1.2218  0.2981
 5073TIP3   OH239413   4.203   1.449   8.152  0.1491 -0.3189 -0.4751
 5073TIP3    H139414   4.281   1.400   8.177  0.8407  0.9241 -0.1401
 5073TIP3    H239415   4.226   1.492   8.069 -0.4423 -0.5370 -0.7608
 5074TIP3   OH239416   0.537   6.344   8.110  0.4156 -0.1805  0.9398
 5074TIP3    H139417   0.558   6.257   8.074  0.3876  0.4687 -0.7373
 5074TIP3    H239418   0.581   6.346   8.195  2.1874 -1.0404  0.0926
 5075TIP3   OH239419   6.159   4.860   8.213 -0.6693  0.2664  0.1166
 5075TIP3    H139420   6.194   4.946   8.233 -0.4053  0.1485  0.1559
 5075TIP3    H239421   6.071   4.860   8.253 -0.3720  0.2368  0.7886
 5076TIP3   OH239422   0.410   6.381   7.581 -0.0380  0.1964  0.2816
 5076TIP3    H139423   0.478   6.351   7.521 -0.8331 -1.2116  0.0342
 5076TIP3    H239424   0.445   6.362   7.668  0.3024  0.4234  0.1951
 5077TIP3   OH239425   3.569   5.683   7.250  0.4655  0.2330 -0.1023
 5077TIP3    H139426   3.481   5.682   7.288  0.0359  0.4988 -1.0667
 5077TIP3    H239427   3.627   5.700   7.324 -0.3998  1.3996  0.3383
 5078TIP3   OH239428   4.469   4.564   7.239  0.3940  0.1569 -0.4479
 5078TIP3    H139429   4.373   4.571   7.232  0.1939 -2.5371 -1.5198
 5078TIP3    H239430   4.501   4.633   7.180 -0.8315  1.4336  0.3045
 5079TIP3   OH239431   5.660   2.747   9.021  0.1178  0.0819  0.1747
 5079TIP3    H139432   5.615   2.674   8.979  1.6919 -0.3846 -0.7933
 5079TIP3    H239433   5.681   2.716   9.109 -0.1249 -0.2405  0.1193
 5080TIP3   OH239434   0.323   5.441   7.264 -0.5750 -0.3780 -0.3426
 5080TIP3    H139435   0.319   5.499   7.340 -0.7878 -1.4473  0.4903
 5080TIP3    H239436   0.402   5.389   7.277 -0.4130 -0.3236 -1.0486
 5081TIP3   OH239437   3.197   1.515   9.438  0.9147  0.1692  0.4530
 5081TIP3    H139438   3.253   1.567   9.495  1.3467 -0.4010  0.5635
 5081TIP3    H239439   3.173   1.574   9.367  1.4258  0.5090  0.5581
 5082TIP3   OH239440   0.761   1.215   7.993  0.0826 -0.3418  0.1834
 5082TIP3    H139441   0.833   1.277   8.004 -0.8067  0.6463  0.6050
 5082TIP3    H239442   0.771   1.182   7.904  0.3049  0.7863 -0.2306
 5083TIP3   OH239443   3.379   6.001   9.187  0.3285 -0.5211 -0.0931
 5083TIP3    H139444   3.416   6.049   9.261 -1.8128 -0.1423  0.7988
 5083TIP3    H239445   3.417   5.913   9.195  0.8256 -0.2314  0.9060
 5084TIP3   OH239446   4.250   7.037   9.192  0.4110  0.1472  0.0170
 5084TIP3    H139447   4.223   6.978   9.121  0.2698  0.5047 -0.2258
 5084TIP3    H239448   4.291   6.979   9.257 -1.1299 -0.4401  0.4970
 5085TIP3   OH239449   3.771   2.850   8.934  0.2395 -0.4195  0.7431
 5085TIP3    H139450   3.739   2.808   8.854  1.1457 -0.4615  0.3933
 5085TIP3    H239451   3.851   2.895   8.907  0.1850  0.1314  1.4825
 5086TIP3   OH239452   7.377   6.566   8.740  0.2698  0.2107  0.2997
 5086TIP3    H139453   7.361   6.639   8.800 -1.6868  0.1570 -0.0934
 5086TIP3    H239454   7.347   6.488   8.788  0.7751 -0.1293  0.0783
 5087TIP3   OH239455   5.174   6.358   9.057  0.0396  0.5148 -0.3531
 5087TIP3    H139456   5.189   6.374   9.150 -2.2281  0.6548  0.0508
 5087TIP3    H239457   5.234   6.288   9.035  0.3208  0.1733  1.3347
 5088TIP3   OH239458   4.279   7.363   6.924 -0.3752 -0.1407 -0.3702
 5088TIP3    H139459   4.233   7.378   6.841 -1.1980  1.6759  0.3661
 5088TIP3    H239460   4.369   7.342   6.898 -0.2082  1.9459 -1.7199
 5089TIP3   OH239461   2.010   0.302   8.478  0.4079  0.2179  0.5675
 5089TIP3    H139462   2.090   0.251   8.466 -0.7681 -1.3541 -1.3278
 5089TIP3    H239463   1.960   0.254   8.543 -0.9376 -1.5504 -1.6051
 5090TIP3   OH239464   2.332   0.422   8.042  0.2977  0.0355 -0.2990
 5090TIP3    H139465   2.313   0.516   8.046 -0.8459 -0.2116  0.5072
 5090TIP3    H239466   2.394   0.408   8.114 -0.3791 -0.0028  0.2876
 5091TIP3   OH239467   0.506   3.952   9.156  0.4428 -0.6685  0.3717
 5091TIP3    H139468   0.445   3.887   9.121  1.7951 -0.9637 -1.5876
 5091TIP3    H239469   0.591   3.927   9.120  1.3972  0.8667  1.4364
 5092TIP3   OH239470   4.491   1.386   7.720 -0.1176 -0.4462  0.1727
 5092TIP3    H139471   4.551   1.446   7.765 -1.1511  0.7121  0.0600
 5092TIP3    H239472   4.512   1.397   7.627  0.9767 -1.7005  0.2463
 5093TIP3   OH239473   1.414   1.807   7.151  0.1489 -0.1225  0.5009
 5093TIP3    H139474   1.348   1.772   7.091 -0.0989  1.4778 -0.1909
 5093TIP3    H239475   1.478   1.736   7.159 -0.9694 -1.2129  0.1549
 5094TIP3   OH239476   3.179   7.541   9.428 -0.3480  0.5958  0.0289
 5094TIP3    H139477   3.125   7.463   9.419 -1.7130  1.2060  2.1677
 5094TIP3    H239478   3.119   7.614   9.415  1.0215  1.3892 -2.5910
 5095TIP3   OH239479   4.161   2.497   9.090  0.1089 -0.6411 -0.1273
 5095TIP3    H139480   4.113   2.580   9.096 -0.3135 -0.6832 -2.0937
 5095TIP3    H239481   4.113   2.437   9.147 -1.2448 -0.2487 -0.8123
 5096TIP3   OH239482   1.323   0.371   7.268 -0.1035 -0.4582  0.1926
 5096TIP3    H139483   1.269   0.445   7.241 -1.1121 -1.0803  0.4419
 5096TIP3    H239484   1.370   0.403   7.345  0.2367  0.2355 -0.2923
 5097TIP3   OH239485   2.857   5.663   7.632  0.1757 -0.3262 -0.2822
 5097TIP3    H139486   2.765   5.635   7.625 -0.3470  1.0471  0.8428
 5097TIP3    H239487   2.864   5.702   7.718  1.6835  0.1491 -0.5994
 5098TIP3   OH239488   3.540   3.311   9.135  0.2365 -0.1537 -0.0503
 5098TIP3    H139489   3.619   3.266   9.107 -0.0407 -0.4226 -0.4035
 5098TIP3    H239490   3.570   3.374   9.201  0.6950 -0.4873  0.0618
 5099TIP3   OH239491   6.350   1.266   7.198  0.3572  0.2610 -0.5894
 5099TIP3    H139492   6.384   1.197   7.141  0.7052  0.0347 -0.1178
 5099TIP3    H239493   6.266   1.232   7.229  1.1816 -0.6333  0.8069
 5100TIP3   OH239494   3.350   6.574   7.878 -0.2905 -0.3712  0.2494
 5100TIP3    H139495   3.369   6.660   7.842  0.9560 -0.8921 -0.3985
 5100TIP3    H239496   3.417   6.561   7.946  0.0289 -1.1268 -0.1880
 5101TIP3   OH239497   5.972   2.329   7.792  0.3219 -0.1896 -0.7140
 5101TIP3    H139498   6.061   2.363   7.782 -0.0196  0.4177 -1.9364
 5101TIP3    H239499   5.963   2.266   7.720  0.0051 -0.7901 -0.1545
 5102TIP3   OH239500   6.176   0.621   7.831  0.8052  0.3779  0.0478
 5102TIP3    H139501   6.232   0.607   7.755  0.2377  1.2461 -0.5447
 5102TIP3    H239502   6.230   0.592   7.906  1.3252 -0.5867 -0.6723
 5103TIP3   OH239503   7.596   2.518   6.977  0.2751  0.3604  0.1122
 5103TIP3    H139504   7.579   2.433   6.937 -1.0971 -0.5353  2.4375
 5103TIP3    H239505   7.581   2.581   6.906 -2.6448 -1.0952 -0.6954
 5104TIP3   OH239506   7.456   7.507   7.680  0.6288  0.8251  0.0627
 5104TIP3    H139507   7.530   7.452   7.658  0.6782 -0.0490  2.2391
 5104TIP3    H239508   7.456   7.512   7.776 -3.5033 -1.3019  0.4251
 5105TIP3   OH239509   1.983   2.590   7.273  0.3337 -0.5941  0.4069
 5105TIP3    H139510   2.068   2.606   7.313 -0.6185  4.5169  1.0346
 5105TIP3    H239511   1.923   2.581   7.347 -0.1666 -0.7786 -0.0120
 5106TIP3   OH239512   3.805   3.946   7.902  0.7292 -0.4347 -0.2820
 5106TIP3    H139513   3.851   3.994   7.971  0.7013  1.5624 -1.5888
 5106TIP3    H239514   3.767   4.013   7.846 -2.3518 -1.9895 -0.2718
 5107TIP3   OH239515   3.083   4.525   7.964 -0.1380  0.5220 -0.4423
 5107TIP3    H139516   3.168   4.563   7.987 -1.2426  1.9464  1.7084
 5107TIP3    H239517   3.097   4.431   7.966  1.5614  0.7346 -0.9329
 5108TIP3   OH239518   1.259   0.855   6.482  0.5677 -0.1561 -0.1477
 5108TIP3    H139519   1.265   0.947   6.507 -1.1093 -0.8937  3.7285
 5108TIP3    H239520   1.169   0.844   6.452  0.6142 -0.6501 -0.1123
 5109TIP3   OH239521   1.012   5.052   7.424  0.1465  0.1530 -0.0799
 5109TIP3    H139522   0.972   4.972   7.460  0.6671  0.0105  0.1808
 5109TIP3    H239523   0.980   5.055   7.334  0.9330 -0.9120 -0.4102
 5110TIP3   OH239524   0.328   6.720   8.036  0.3315 -0.0915 -0.2863
 5110TIP3    H139525   0.327   6.770   7.955  1.6721  0.0054 -0.2637
 5110TIP3    H239526   0.400   6.658   8.025  0.5048 -0.1070  0.7983
 5111TIP3   OH239527   1.114   0.074   7.671 -0.1191  0.0369 -0.5159
 5111TIP3    H139528   1.183   0.076   7.604 -0.9928  0.1612 -1.4404
 5111TIP3    H239529   1.160   0.091   7.753  0.7689  1.4417 -1.2653
 5112TIP3   OH239530   3.767   0.640   8.407 -0.0411  0.8107  0.0640
 5112TIP3    H139531   3.686   0.647   8.458 -0.1898  3.9905 -0.4271
 5112TIP3    H239532   3.816   0.719   8.429  1.2153  0.8374 -2.4891
 5113TIP3   OH239533   5.815   0.766   6.704 -0.0610 -0.1314  0.4985
 5113TIP3    H139534   5.891   0.818   6.678 -1.0883  1.9983  1.5014
 5113TIP3    H239535   5.832   0.679   6.668  1.5876  0.9563 -1.5919
 5114TIP3   OH239536   7.390   1.426   6.742  0.2601  0.4941 -0.4452
 5114TIP3    H139537   7.299   1.434   6.770  0.4347 -0.1708  0.3445
 5114TIP3    H239538   7.416   1.338   6.768  1.3668  0.9498  0.0679
 5115TIP3   OH239539   1.041   5.446   8.991 -0.1942 -0.3889  0.2867
 5115TIP3    H139540   1.074   5.453   8.901  0.1396 -0.0695  0.4314
 5115TIP3    H239541   0.955   5.405   8.982 -0.3070 -0.0506 -0.2064
 5116TIP3   OH239542   7.152   1.514   8.568 -0.1038 -0.0496 -0.0636
 5116TIP3    H139543   7.186   1.562   8.643 -2.2158  0.6299  0.5224
 5116TIP3    H239544   7.183   1.425   8.580  0.5024  0.2866  0.9978
 5117TIP3   OH239545   4.280   0.903   8.843  0.5842 -0.6413  0.2427
 5117TIP3    H139546   4.373   0.925   8.842  0.4451  0.0732 -1.7595
 5117TIP3    H239547   4.237   0.980   8.880  0.8308 -1.4534  2.3640
 5118TIP3   OH239548   4.921   3.779   8.220 -0.2511  0.4447 -0.1458
 5118TIP3    H139549   4.956   3.727   8.293  0.7006  1.0879 -0.1226
 5118TIP3    H239550   4.847   3.728   8.188  0.6563 -0.9391 -0.1371
 5119TIP3   OH239551   1.993   4.360   8.780  0.4310 -0.0198  0.1523
 5119TIP3    H139552   1.969   4.429   8.841 -1.3130  0.5833 -1.1279
 5119TIP3    H239553   2.071   4.394   8.735  1.4978 -0.3099  1.7125
 5120TIP3   OH239554   7.400   0.307   9.266  0.3344  0.2047  0.1527
 5120TIP3    H139555   7.432   0.389   9.228 -1.5328  0.6961 -0.4486
 5120TIP3    H239556   7.331   0.333   9.327  0.2737 -0.8777  0.5770
 5121TIP3   OH239557   7.117   5.523   6.839 -0.4622 -0.3166  0.0196
 5121TIP3    H139558   7.184   5.497   6.776 -0.3232 -0.0893  0.0720
 5121TIP3    H239559   7.037   5.479   6.809 -0.0995 -1.3208  0.4572
 5122TIP3   OH239560   0.130   6.040   8.607 -0.2079  0.3169  0.5615
 5122TIP3    H139561   0.081   6.045   8.689  0.6762 -0.5104  1.1433
 5122TIP3    H239562   0.069   5.998   8.546 -0.5992  0.2607  0.9821
 5123TIP3   OH239563   1.658   1.013   9.182  0.1497  0.1704 -0.3471
 5123TIP3    H139564   1.655   1.105   9.208  2.2011  0.2580 -0.2461
 5123TIP3    H239565   1.733   1.008   9.122  1.1970 -1.7196  1.0091
 5124TIP3   OH239566   1.355   5.028   8.457 -0.4926  0.4731 -0.4172
 5124TIP3    H139567   1.405   5.034   8.539 -0.7867 -0.0425 -0.1931
 5124TIP3    H239568   1.349   4.934   8.440 -2.0305  0.4773 -0.0326
 5125TIP3   OH239569   3.231   3.843   9.531 -0.5306 -0.0027 -0.6997
 5125TIP3    H139570   3.183   3.923   9.551 -3.1349 -2.1324  2.7813
 5125TIP3    H239571   3.311   3.848   9.583 -0.1437  0.6988 -1.3339
 5126TIP3   OH239572   3.077   6.195   6.945 -0.1833 -0.2246 -0.0082
 5126TIP3    H139573   3.139   6.142   6.895  0.9996  1.8075 -0.8214
 5126TIP3    H239574   3.098   6.176   7.037  0.5147 -0.8445 -0.2835
 5127TIP3   OH239575   1.085   7.017   9.385  0.1570 -0.3667 -0.3666
 5127TIP3    H139576   1.165   7.068   9.371 -0.0877 -0.1808 -1.2040
 5127TIP3    H239577   1.016   7.072   9.347 -0.3669 -0.5294  0.3396
 5128TIP3   OH239578   5.509   0.501   8.998 -0.1827 -1.0240 -0.1316
 5128TIP3    H139579   5.420   0.510   9.031  0.1491 -1.3884  0.8946
 5128TIP3    H239580   5.564   0.544   9.064  0.4695 -1.4294 -0.3980
 5129TIP3   OH239581   1.627   0.333   7.462 -0.2084  0.4551  0.7564
 5129TIP3    H139582   1.560   0.297   7.520  1.6638 -3.1559  0.9456
 5129TIP3    H239583   1.608   0.294   7.377  1.2803 -0.1857  0.6914
 5130TIP3   OH239584   6.521   5.284   8.034  0.0418 -0.3276  0.8251
 5130TIP3    H139585   6.481   5.367   8.059 -0.2147 -1.3000  4.0961
 5130TIP3    H239586   6.449   5.234   7.995 -0.4893  0.0566  1.2923
 5131TIP3   OH239587   3.906   4.475   8.681 -0.3079  0.5534  0.3427
 5131TIP3    H139588   3.825   4.494   8.727 -1.4231 -1.2172 -0.7527
 5131TIP3    H239589   3.938   4.560   8.651 -1.5529  1.3200  1.1328
 5132TIP3   OH239590   4.551   6.651   8.296  0.8679 -0.0904  0.3648
 5132TIP3    H139591   4.610   6.696   8.356 -0.6959  2.9514 -0.2071
 5132TIP3    H239592   4.547   6.707   8.219 -0.2020 -1.9283 -1.0083
 5133TIP3   OH239593   1.383   4.476   6.541  0.0302 -0.6531  0.6153
 5133TIP3    H139594   1.304   4.518   6.507 -0.4659 -0.9831  1.3303
 5133TIP3    H239595   1.390   4.394   6.491  0.2399 -0.3673  0.1663
 5134TIP3   OH239596   6.313   1.582   7.280 -0.0827 -0.0344  0.0820
 5134TIP3    H139597   6.315   1.510   7.343  0.1997  0.2836  0.4366
 5134TIP3    H239598   6.336   1.541   7.197  1.8361 -0.0517  0.5846
 5135TIP3   OH239599   4.429   1.981   8.621  0.2265  0.1546 -0.1617
 5135TIP3    H139600   4.401   1.912   8.562  0.1069  1.6918 -1.9905
 5135TIP3    H239601   4.352   1.999   8.676 -0.0579 -0.4428 -0.3603
 5136TIP3   OH239602   5.171   5.574   7.844  0.0212  0.0473 -0.9742
 5136TIP3    H139603   5.098   5.529   7.801  0.8526 -1.0071 -1.3355
 5136TIP3    H239604   5.204   5.510   7.908  0.3916  0.6483 -0.5481
 5137TIP3   OH239605   2.627   5.950   8.688  0.6754 -0.0737  0.0955
 5137TIP3    H139606   2.611   5.989   8.774 -0.2302 -0.1246 -0.0366
 5137TIP3    H239607   2.722   5.953   8.677  0.7395  0.6162  0.7762
 5138TIP3   OH239608   2.379   6.009   9.258 -0.0384  0.1967  0.2513
 5138TIP3    H139609   2.396   6.099   9.285  0.2767 -0.1440  1.2286
 5138TIP3    H239610   2.285   5.997   9.274 -0.2835  0.6224 -0.7575
 5139TIP3   OH239611   4.874   0.865   8.141  0.0451 -0.8675  0.2657
 5139TIP3    H139612   4.870   0.956   8.111 -2.0994 -1.5327 -1.7554
 5139TIP3    H239613   4.945   0.826   8.090 -0.0015 -0.6831  0.0577
 5140TIP3   OH239614   0.724   0.282   9.335  0.3002  0.2195 -0.8098
 5140TIP3    H139615   0.809   0.321   9.354  1.5068 -1.5229 -2.2389
 5140TIP3    H239616   0.661   0.336   9.382  2.0722  2.3101 -0.7057
 5141TIP3   OH239617   7.464   3.268   7.771 -0.1868  0.7226 -0.0655
 5141TIP3    H139618   7.542   3.288   7.822 -0.3087  1.3677 -0.1217
 5141TIP3    H239619   7.396   3.251   7.836  0.0663 -0.1639 -0.0132
 5142TIP3   OH239620   5.942   1.886   8.137  0.7943  0.3379 -0.2529
 5142TIP3    H139621   5.851   1.867   8.113  1.1152 -0.4895 -0.8522
 5142TIP3    H239622   5.955   1.978   8.111  0.0263  0.5721  0.1719
 5143TIP3   OH239623   1.765   5.139   7.769  0.0234  0.5733 -0.4766
 5143TIP3    H139624   1.735   5.048   7.770  0.2451  0.4802  1.5728
 5143TIP3    H239625   1.858   5.134   7.748  0.8811 -0.0692  2.8149
 5144TIP3   OH239626   3.436   6.524   6.920 -0.2227  0.1833  0.5259
 5144TIP3    H139627   3.414   6.603   6.869 -0.5991  0.4529  1.1018
 5144TIP3    H239628   3.520   6.545   6.960 -1.1181  0.9895  2.0662
 5145TIP3   OH239629   0.221   0.244   8.983  0.4543 -0.1308  0.3405
 5145TIP3    H139630   0.237   0.261   8.890  0.9312 -1.3773  0.1643
 5145TIP3    H239631   0.267   0.314   9.029  0.5759  0.2558 -0.3575
 5146TIP3   OH239632   0.755   6.073   7.805  0.0536  0.4037  0.2663
 5146TIP3    H139633   0.784   6.157   7.841 -0.1397  1.0239 -0.9639
 5146TIP3    H239634   0.795   6.069   7.719 -1.4108  0.0832 -0.4203
 5147TIP3   OH239635   0.579   1.855   7.464 -0.0146 -0.6155  0.0328
 5147TIP3    H139636   0.596   1.769   7.501 -2.1744 -1.2035 -0.1915
 5147TIP3    H239637   0.644   1.912   7.505 -0.5477 -1.7487  2.6784
 5148TIP3   OH239638   1.709   0.522   6.787  0.1264 -0.2884 -0.4636
 5148TIP3    H139639   1.647   0.502   6.716 -0.8478  0.7667  0.0565
 5148TIP3    H239640   1.781   0.568   6.743  0.3371 -1.1137 -1.0061
 5149TIP3   OH239641   1.295   6.984   7.770 -0.1495  0.5273 -0.1258
 5149TIP3    H139642   1.229   6.918   7.793 -0.5083  0.4462 -1.3214
 5149TIP3    H239643   1.249   7.068   7.777 -0.3745  0.4757 -0.8881
 5150TIP3   OH239644   7.447   7.509   8.500  0.0145 -0.2645  0.9297
 5150TIP3    H139645   7.528   7.558   8.486  0.3100 -0.1907  2.6843
 5150TIP3    H239646   7.418   7.486   8.412  2.1588 -0.6283  0.2493
 5151TIP3   OH239647   5.409   6.998   8.077  0.2434 -0.4028  0.1339
 5151TIP3    H139648   5.433   6.910   8.107  0.3566 -0.5308 -0.3345
 5151TIP3    H239649   5.361   6.984   7.995 -0.4704 -0.0804  0.4814
 5152TIP3   OH239650   1.690   2.840   7.124 -0.2617  0.2234 -0.1876
 5152TIP3    H139651   1.754   2.817   7.057  0.4755 -0.3982  0.7092
 5152TIP3    H239652   1.637   2.909   7.084 -0.2662 -0.5835 -1.6572
 5153TIP3   OH239653   4.118   0.640   7.247  0.0775  0.7214 -0.0648
 5153TIP3    H139654   4.097   0.644   7.154 -0.2050 -0.0290 -0.0401
 5153TIP3    H239655   4.152   0.551   7.259 -2.6055 -0.2497  1.0946
 5154TIP3   OH239656   3.676   0.524   7.701 -0.1155  0.3747 -0.2382
 5154TIP3    H139657   3.749   0.565   7.748 -0.8283  2.4356 -0.8108
 5154TIP3    H239658   3.605   0.588   7.707 -1.3434 -0.8414 -1.1549
 5155TIP3   OH239659   4.288   0.370   7.201  0.0906  0.6299  0.1014
 5155TIP3    H139660   4.344   0.430   7.152 -1.1126  1.7644  0.0517
 5155TIP3    H239661   4.332   0.359   7.286  2.0263 -1.1063 -1.0314
 5156TIP3   OH239662   1.193   6.542   7.784  0.4902 -0.5188  0.2689
 5156TIP3    H139663   1.168   6.630   7.811  1.6003  0.0292 -0.4039
 5156TIP3    H239664   1.117   6.508   7.738 -0.7303 -0.7406  2.3368
 5157TIP3   OH239665   5.431   2.036   9.249  0.1529 -0.1578 -0.7303
 5157TIP3    H139666   5.379   2.006   9.174 -0.2506  0.0799 -0.5500
 5157TIP3    H239667   5.389   1.996   9.325  0.1345  0.1639 -0.5678
 5158TIP3   OH239668   4.759   5.998   7.093 -0.4055  0.1364 -0.3027
 5158TIP3    H139669   4.807   6.008   7.010 -0.3050 -2.2321 -0.5966
 5158TIP3    H239670   4.686   5.941   7.071 -1.7223  1.3354  0.7930
 5159TIP3   OH239671   4.215   0.633   8.808 -0.5016 -0.0980 -0.0985
 5159TIP3    H139672   4.236   0.601   8.896 -0.1287  0.2364 -0.0644
 5159TIP3    H239673   4.252   0.721   8.805 -1.7652  0.4465 -0.0980
 5160TIP3   OH239674   1.561   6.024   7.999 -0.0908  0.2632  0.2374
 5160TIP3    H139675   1.556   6.034   7.903  1.6131  0.3837  0.1342
 5160TIP3    H239676   1.577   6.113   8.031  1.1062 -0.0263  0.4755
 5161TIP3   OH239677   1.964   5.094   7.990 -0.1282  0.0658  0.0839
 5161TIP3    H139678   1.962   5.033   8.064  0.8764  1.9711  1.7818
 5161TIP3    H239679   1.879   5.136   7.992  0.4627  1.2794  1.2562
 5162TIP3   OH239680   6.153   3.980   8.646  0.1700 -0.4401  0.1228
 5162TIP3    H139681   6.063   4.013   8.652  0.4970  0.4089  0.6921
 5162TIP3    H239682   6.159   3.914   8.715  0.1907  0.0592  0.6107
 5163TIP3   OH239683   3.051   5.595   9.105 -0.5935  0.3157 -0.5536
 5163TIP3    H139684   3.114   5.524   9.089 -0.1030  0.2537  1.3747
 5163TIP3    H239685   3.105   5.668   9.137 -1.4342  0.3925  0.7557
 5164TIP3   OH239686   6.530   0.587   9.419 -0.7792  0.3519 -0.0301
 5164TIP3    H139687   6.559   0.623   9.335  0.5434 -0.1776  0.1700
 5164TIP3    H239688   6.459   0.528   9.397 -1.3497  1.2441 -0.6199
 5165TIP3   OH239689   5.999   1.091   8.364  1.2123 -0.5262 -0.0251
 5165TIP3    H139690   5.977   1.070   8.454  3.2490 -0.1682  0.5990
 5165TIP3    H239691   6.014   1.186   8.364  1.4666 -0.5559 -0.6832
 5166TIP3   OH239692   0.046   6.345   7.368  0.7381  0.1339  0.3381
 5166TIP3    H139693   0.020   6.330   7.277  0.4022 -0.6743  0.5594
 5166TIP3    H239694   0.024   6.436   7.384  0.5952  0.2254 -0.3220
 5167TIP3   OH239695   2.507   2.932   7.464  0.3965 -0.8800 -0.7066
 5167TIP3    H139696   2.447   3.005   7.450  0.7547 -0.0907  1.5177
 5167TIP3    H239697   2.588   2.973   7.493  1.1543 -2.0852 -1.0535
 5168TIP3   OH239698   5.984   0.494   8.927  0.2907 -0.3597  0.0613
 5168TIP3    H139699   6.020   0.409   8.953 -1.1512 -0.3866  2.2459
 5168TIP3    H239700   5.910   0.472   8.871  0.8094 -0.4706 -0.5903
 5169TIP3   OH239701   4.301   6.950   8.741  0.1235 -0.0154  0.5596
 5169TIP3    H139702   4.267   7.006   8.811  2.0366  1.9342  0.0317
 5169TIP3    H239703   4.396   6.950   8.755  0.4814 -0.1569 -1.6041
 5170TIP3   OH239704   0.212   5.888   6.715  0.1566 -0.4870 -0.4712
 5170TIP3    H139705   0.196   5.795   6.698  1.0141 -0.2832 -2.8352
 5170TIP3    H239706   0.299   5.890   6.754 -0.7777 -0.7927  1.7324
 5171TIP3   OH239707   2.240   4.103   9.260 -0.2943  0.0664 -0.3767
 5171TIP3    H139708   2.183   4.026   9.256  1.8855 -1.6247 -0.7990
 5171TIP3    H239709   2.320   4.072   9.304  0.8495  1.9702 -0.9745
 5172TIP3   OH239710   0.447   3.433   8.173  0.8900  0.2319 -0.5645
 5172TIP3    H139711   0.522   3.477   8.133  0.9597  0.7653  0.1291
 5172TIP3    H239712   0.401   3.502   8.221  2.5453 -0.7988  2.8969
 5173TIP3   OH239713   1.734   0.669   8.602  0.2389  0.4164  0.0210
 5173TIP3    H139714   1.681   0.591   8.617 -1.0219  1.2487  0.1091
 5173TIP3    H239715   1.747   0.672   8.507  0.4993 -0.0152  0.0395
 5174TIP3   OH239716   0.957   4.554   7.566  0.1178  0.5690  0.2615
 5174TIP3    H139717   1.014   4.488   7.528 -0.0006  0.6557 -0.0706
 5174TIP3    H239718   0.993   4.569   7.654 -1.7802 -2.3617  1.7038
 5175TIP3   OH239719   1.112   6.964   7.274 -0.0737 -0.2125  0.1436
 5175TIP3    H139720   1.101   6.943   7.367  1.6933  1.7853  0.9077
 5175TIP3    H239721   1.168   6.894   7.240  1.0270  0.1274  1.1650
 5176TIP3   OH239722   7.433   6.456   8.292  0.0763 -0.1952 -0.3416
 5176TIP3    H139723   7.420   6.415   8.206  0.3779 -0.0040 -0.4808
 5176TIP3    H239724   7.450   6.383   8.351  0.0257 -0.3161 -0.4773
 5177TIP3   OH239725   3.069   1.657   9.194  0.3072  0.1614  0.8259
 5177TIP3    H139726   3.037   1.716   9.125  0.0033  0.6750  1.3890
 5177TIP3    H239727   3.057   1.569   9.158 -0.2377  0.4055  0.3813
 5178TIP3   OH239728   4.129   5.323   9.344  0.1657  0.0078  0.1145
 5178TIP3    H139729   4.138   5.406   9.392  1.8223 -0.0572 -0.0241
 5178TIP3    H239730   4.043   5.290   9.370 -0.4303  1.6478  0.3575
 5179TIP3   OH239731   2.201   2.628   7.440 -0.5800  0.2026  0.5312
 5179TIP3    H139732   2.270   2.659   7.498  0.0084  1.4012 -0.7537
 5179TIP3    H239733   2.236   2.548   7.401  0.2180  0.9546 -0.3259
 5180TIP3   OH239734   6.694   2.568   8.860  0.9574 -0.5174 -0.0291
 5180TIP3    H139735   6.770   2.601   8.812  1.1702 -0.8415  0.0842
 5180TIP3    H239736   6.721   2.568   8.951  0.8522 -0.7204  0.0024
 5181TIP3   OH239737   7.122   4.928   7.961 -0.5739 -0.2346 -0.1220
 5181TIP3    H139738   7.177   4.929   8.038 -0.5482 -0.3317 -0.1391
 5181TIP3    H239739   7.068   5.007   7.969 -0.7406 -0.3713  0.1169
 5182TIP3   OH239740   0.557   2.410   9.282  0.3838  0.2439 -0.5053
 5182TIP3    H139741   0.569   2.446   9.195 -0.6086 -0.9243 -1.1578
 5182TIP3    H239742   0.491   2.341   9.271 -0.9074  1.0697  1.4320
 5183TIP3   OH239743   5.649   6.087   6.973 -0.8197 -0.1255 -0.6439
 5183TIP3    H139744   5.576   6.125   6.924 -1.2625 -0.8540 -0.5662
 5183TIP3    H239745   5.725   6.098   6.916 -0.9754  0.6918 -0.7018
 5184TIP3   OH239746   1.251   1.443   9.593  0.8098  0.2354  0.4567
 5184TIP3    H139747   1.293   1.519   9.633  1.1491  0.7327 -0.8164
 5184TIP3    H239748   1.309   1.417   9.522 -0.4278  0.1936 -0.5748
 5185TIP3   OH239749   4.080   7.571   8.215  0.3672 -0.9394 -0.3045
 5185TIP3    H139750   4.150   7.508   8.233  0.7262 -0.8857 -1.4586
 5185TIP3    H239751   4.124   7.656   8.212  0.3585 -0.9669 -1.5730
 5186TIP3   OH239752   4.586   5.222   7.712  0.6188 -0.5622 -0.0760
 5186TIP3    H139753   4.591   5.289   7.643 -1.6715  0.0366  0.2362
 5186TIP3    H239754   4.520   5.256   7.773  1.6347 -1.7027  1.7342
 5187TIP3   OH239755   2.421   7.616   9.054  0.3417 -0.3172  0.0531
 5187TIP3    H139756   2.421   7.640   9.147 -0.9802 -1.7964  0.4768
 5187TIP3    H239757   2.364   7.540   9.049  0.3878 -0.2669 -2.0006
 5188TIP3   OH239758   3.189   1.886   7.411  0.2248  0.0422  0.3068
 5188TIP3    H139759   3.240   1.949   7.360 -0.6852 -1.0274 -2.0504
 5188TIP3    H239760   3.121   1.940   7.453  0.9435  0.9507  0.3470
 5189TIP3   OH239761   0.306   1.841   7.650 -0.0452 -0.0793 -0.5474
 5189TIP3    H139762   0.339   1.752   7.640  1.1621  0.2474  0.3065
 5189TIP3    H239763   0.376   1.896   7.615  0.2284  0.6241  1.0437
 5190TIP3   OH239764   5.739   3.883   8.541 -0.2155 -0.0451  0.1127
 5190TIP3    H139765   5.673   3.946   8.568 -1.4658 -0.0750 -2.5475
 5190TIP3    H239766   5.822   3.930   8.551 -0.9023  1.1409  0.4742
 5191TIP3   OH239767   3.682   0.481   8.720  0.3824 -0.2080  0.0555
 5191TIP3    H139768   3.639   0.532   8.651 -1.9917 -1.1908  0.7155
 5191TIP3    H239769   3.724   0.409   8.673 -2.0058 -1.4139 -0.4068
 5192TIP3   OH239770   4.849   7.046   7.334 -0.1296  0.0769  0.3315
 5192TIP3    H139771   4.876   7.136   7.350  1.7360 -0.3322 -0.3691
 5192TIP3    H239772   4.861   7.002   7.418  0.5391  0.1060  0.2520
 5193TIP3   OH239773   5.955   4.683   7.773 -0.2456  0.0255  0.0050
 5193TIP3    H139774   6.047   4.697   7.795  0.4770 -2.6791 -0.8613
 5193TIP3    H239775   5.944   4.726   7.688  0.3602  0.0136 -0.0832
 5194TIP3   OH239776   3.962   0.119   6.852 -0.8270  0.3347  0.0110
 5194TIP3    H139777   3.929   0.030   6.839 -0.0696  0.1572 -0.7958
 5194TIP3    H239778   3.912   0.172   6.789  0.3626  0.0644 -1.2190
 5195TIP3   OH239779   1.025   2.737   9.157  1.0833  0.0908 -0.1998
 5195TIP3    H139780   1.041   2.742   9.062  0.8838 -1.7312 -0.3531
 5195TIP3    H239781   0.969   2.813   9.175  0.1350 -0.1890 -1.7690
 5196TIP3   OH239782   4.638   6.122   6.812 -0.0404  0.1833  0.4247
 5196TIP3    H139783   4.651   6.214   6.789  0.6382 -0.6855 -3.2732
 5196TIP3    H239784   4.726   6.086   6.813 -0.4150 -0.7645  0.0624
 5197TIP3   OH239785   6.078   3.779   7.910 -0.1642 -0.6835  0.8198
 5197TIP3    H139786   5.984   3.765   7.912 -0.3768  0.6348  0.7642
 5197TIP3    H239787   6.090   3.867   7.944  0.9590 -0.4231 -0.1706
 5198TIP3   OH239788   1.357   1.435   6.802  0.1861 -0.0728 -0.1147
 5198TIP3    H139789   1.351   1.468   6.713 -0.6874 -1.3816 -0.5630
 5198TIP3    H239790   1.338   1.342   6.795  1.4448 -0.4705  1.2694
 5199TIP3   OH239791   5.777   4.631   7.953 -0.0294 -0.3846 -0.0844
 5199TIP3    H139792   5.840   4.563   7.981  1.0818  0.6375 -0.0209
 5199TIP3    H239793   5.822   4.676   7.882  0.3670  1.9528  1.5508
 5200TIP3   OH239794   7.258   5.127   7.325  0.6937  0.0262 -0.8121
 5200TIP3    H139795   7.310   5.057   7.286 -1.2047 -0.6681 -2.2869
 5200TIP3    H239796   7.174   5.122   7.279  0.3408  3.0271 -0.6924
 5201TIP3   OH239797   2.922   6.010   8.568  0.4911 -0.2174 -0.0545
 5201TIP3    H139798   2.931   6.097   8.530  0.9285 -0.2367 -0.0081
 5201TIP3    H239799   2.945   5.950   8.496  0.0632 -0.2969 -0.1239
 5202TIP3   OH239800   5.860   2.524   9.484  0.3005  0.1550  0.2498
 5202TIP3    H139801   5.932   2.481   9.439 -1.0294  0.2223 -2.1217
 5202TIP3    H239802   5.813   2.453   9.528  0.1074 -0.3355 -0.7243
 5203TIP3   OH239803   0.779   6.063   8.606 -0.1252 -0.4293 -0.0727
 5203TIP3    H139804   0.838   6.080   8.679 -2.0718  2.3880  0.9955
 5203TIP3    H239805   0.751   5.972   8.619  0.9858 -0.5870  1.5662
 5204TIP3   OH239806   2.713   5.644   9.375 -0.0737 -0.3229 -0.1833
 5204TIP3    H139807   2.735   5.696   9.297  1.2293  0.3533  0.6084
 5204TIP3    H239808   2.631   5.683   9.407  0.4185  0.6767 -0.1039
 5205TIP3   OH239809   1.400   0.046   8.049  0.1048  0.3064  0.0951
 5205TIP3    H139810   1.368  -0.006   8.122  2.2016  0.9149  1.5367
 5205TIP3    H239811   1.495   0.032   8.048  0.6111  3.0879 -0.2103
 5206TIP3   OH239812   5.694   2.938   8.615 -0.7769  0.1035 -0.1761
 5206TIP3    H139813   5.747   2.973   8.687  0.5529 -1.4040 -0.3634
 5206TIP3    H239814   5.747   2.866   8.580 -1.9193  0.0776 -1.9267
 5207TIP3   OH239815   5.291   0.107   6.778 -0.0020  0.5369  0.2306
 5207TIP3    H139816   5.370   0.132   6.729  1.0923 -0.1281  1.6052
 5207TIP3    H239817   5.249   0.042   6.722  1.6740 -0.8363  0.4959
 5208TIP3   OH239818   5.478   5.298   8.404  0.5702  0.3975 -0.2476
 5208TIP3    H139819   5.458   5.211   8.367  2.4260 -0.6880  1.1493
 5208TIP3    H239820   5.482   5.355   8.328 -0.0217 -0.8816 -1.2886
 5209TIP3   OH239821   6.852   0.124   7.852 -0.0723 -0.2964  0.0808
 5209TIP3    H139822   6.929   0.078   7.885  0.6353  0.6428 -0.2172
 5209TIP3    H239823   6.831   0.078   7.770 -0.0744 -0.8088  0.3642
 5210TIP3   OH239824   2.459   1.958   7.160  0.1899  0.1875 -0.1129
 5210TIP3    H139825   2.454   1.944   7.255 -0.4271 -0.3098 -0.2193
 5210TIP3    H239826   2.370   1.982   7.134  0.0393 -1.0230 -0.7755
 5211TIP3   OH239827   1.958   6.433   8.380 -0.2072 -0.2849 -0.6418
 5211TIP3    H139828   1.902   6.367   8.422 -0.4242 -0.6617 -1.5014
 5211TIP3    H239829   1.966   6.502   8.446  3.2301 -2.7719  1.8836
 5212TIP3   OH239830   4.102   2.909   8.224  0.4178 -0.4798  0.0405
 5212TIP3    H139831   4.117   2.952   8.308  0.0428  1.6571 -0.9285
 5212TIP3    H239832   4.184   2.922   8.175  0.2087 -0.6521 -0.3626
 5213TIP3   OH239833   2.161   2.650   9.090  0.6115  0.6342  0.6368
 5213TIP3    H139834   2.104   2.660   9.014  1.8579  1.0641 -0.2694
 5213TIP3    H239835   2.104   2.666   9.165 -0.9780 -1.1902 -0.0974
 5214TIP3   OH239836   7.416   5.702   9.174  0.0491 -0.2644 -0.0855
 5214TIP3    H139837   7.346   5.688   9.111 -0.2025 -1.1144  0.3653
 5214TIP3    H239838   7.467   5.775   9.138 -0.0320 -0.7876 -1.2983
 5215TIP3   OH239839   0.748   2.018   7.636  0.0778 -0.9430  0.0279
 5215TIP3    H139840   0.830   2.062   7.657  0.4121 -0.9454 -1.1716
 5215TIP3    H239841   0.735   1.955   7.707  0.3639  0.0522  0.9693
 5216TIP3   OH239842   1.732   3.606   6.817  0.0542  0.0186  0.0004
 5216TIP3    H139843   1.770   3.676   6.869  3.2197 -0.6173 -1.1879
 5216TIP3    H239844   1.808   3.561   6.778 -1.9610 -1.2190 -2.9155
 5217TIP3   OH239845   3.958   4.712   8.402 -0.4878  0.1992  0.1390
 5217TIP3    H139846   4.042   4.751   8.379  0.3016 -0.7816  1.3074
 5217TIP3    H239847   3.932   4.662   8.325  0.4145 -0.1867  0.0829
 5218TIP3   OH239848   5.923   0.242   6.813 -0.1047 -0.5117 -0.5209
 5218TIP3    H139849   5.839   0.230   6.769 -0.1495  0.0299 -0.5965
 5218TIP3    H239850   5.972   0.162   6.794 -0.7779 -1.0425 -0.0768
 5219TIP3   OH239851   5.972   0.148   9.296 -0.6608  0.2279  0.0183
 5219TIP3    H139852   5.918   0.221   9.328 -0.4985  1.6430 -2.6915
 5219TIP3    H239853   6.062   0.173   9.318 -0.6038  0.9005 -0.9151
 5220TIP3   OH239854   5.775   6.624   8.646 -0.2348 -0.3839  0.7950
 5220TIP3    H139855   5.746   6.707   8.608  0.1075 -0.2950  0.7253
 5220TIP3    H239856   5.835   6.650   8.716  0.2669 -0.5826  0.4442
 5221TIP3   OH239857   7.321   6.812   7.599  0.3939 -0.1704 -0.1117
 5221TIP3    H139858   7.383   6.858   7.542 -0.4876 -0.9433 -1.7553
 5221TIP3    H239859   7.238   6.816   7.553  0.2070 -3.1625 -0.2570
 5222TIP3   OH239860   3.626   6.889   8.217  0.0153  0.0438 -0.2425
 5222TIP3    H139861   3.555   6.943   8.251  0.3272  0.7151 -0.6489
 5222TIP3    H239862   3.639   6.822   8.284 -1.5284 -0.5737 -0.5170
 5223TIP3   OH239863   7.317   2.894   6.708 -0.2871  0.4027  0.0328
 5223TIP3    H139864   7.350   2.984   6.706  0.0484  0.3101  0.9036
 5223TIP3    H239865   7.254   2.894   6.780  2.3299 -0.8802  2.5786
 5224TIP3   OH239866   5.450   1.471   9.287  0.1107 -0.2161 -0.1173
 5224TIP3    H139867   5.414   1.404   9.229 -0.9765  1.1425 -1.0644
 5224TIP3    H239868   5.429   1.554   9.244  0.4074  0.7869  1.6021
 5225TIP3   OH239869   3.465   3.901   8.578 -0.3635  0.4490 -0.5690
 5225TIP3    H139870   3.457   3.854   8.661 -0.7291 -0.9253 -1.3468
 5225TIP3    H239871   3.553   3.940   8.581  0.6316 -1.6527 -0.5230
 5226TIP3   OH239872   6.656   3.271   8.927 -0.0697 -0.9067 -0.1952
 5226TIP3    H139873   6.596   3.344   8.936  0.3592 -0.4872 -0.6496
 5226TIP3    H239874   6.600   3.196   8.905 -0.2832  0.0002 -3.3046
 5227TIP3   OH239875   0.436   0.158   8.827  0.4618 -0.1361  0.5995
 5227TIP3    H139876   0.398   0.149   8.914 -1.2454  1.3585  0.0859
 5227TIP3    H239877   0.525   0.123   8.835  1.3684  2.3859  3.6724
 5228TIP3   OH239878   1.167   6.156   7.702  0.5603  0.0815  0.3480
 5228TIP3    H139879   1.158   6.157   7.797  0.5289  0.5867  0.3429
 5228TIP3    H239880   1.243   6.212   7.684  0.3009  0.3500  0.0553
 5229TIP3   OH239881   2.300   6.189   8.481  0.0689  0.0614 -0.1809
 5229TIP3    H139882   2.284   6.272   8.525  3.5376  0.3619  0.8124
 5229TIP3    H239883   2.256   6.123   8.536 -2.1780  1.0773 -0.6401
 5230TIP3   OH239884   4.093   0.006   8.875 -0.6832  0.2433 -1.2714
 5230TIP3    H139885   4.029  -0.055   8.913  1.9490 -1.5829  0.5210
 5230TIP3    H239886   4.080   0.087   8.923 -1.1317 -0.3567 -0.3425
 5231TIP3   OH239887   5.081   0.940   7.642  0.1104  0.2527 -0.4046
 5231TIP3    H139888   5.121   0.859   7.674  0.6525  0.3747 -0.7580
 5231TIP3    H239889   5.139   1.010   7.675  0.2200  0.4279 -0.9667
 5232TIP3   OH239890   0.667   7.368   7.354 -0.0872 -0.1738  0.2573
 5232TIP3    H139891   0.601   7.415   7.405 -2.5327 -2.5155 -0.5198
 5232TIP3    H239892   0.624   7.286   7.329  3.2107 -1.9580 -0.1570
 5233TIP3   OH239893   4.962   0.891   8.586  0.3618 -0.0614 -0.2686
 5233TIP3    H139894   4.997   0.921   8.670  2.4629  0.0982 -1.1165
 5233TIP3    H239895   5.036   0.899   8.526  0.3033 -4.2069 -1.2194
 5234TIP3   OH239896   2.770   2.868   8.658 -0.0098  0.7476 -0.4068
 5234TIP3    H139897   2.738   2.903   8.575 -2.7664 -0.9332 -0.1765
 5234TIP3    H239898   2.837   2.804   8.634  0.1932  1.2658 -1.2316
 5235TIP3   OH239899   6.794   4.344   6.986  0.6331 -0.0459 -0.6993
 5235TIP3    H139900   6.856   4.416   6.993 -0.0590  0.5192 -0.2803
 5235TIP3    H239901   6.726   4.376   6.926 -1.0057  0.6541  1.4336
 5236TIP3   OH239902   2.631   1.017   7.139 -0.0937  0.1973 -0.8635
 5236TIP3    H139903   2.647   1.070   7.061 -1.7132  1.3090 -0.4965
 5236TIP3    H239904   2.548   0.974   7.122 -0.2937  0.1772  0.0948
 5237TIP3   OH239905   1.589   0.216   8.448  0.3090 -0.0273  0.2912
 5237TIP3    H139906   1.632   0.190   8.367 -0.4838 -1.2656  0.2280
 5237TIP3    H239907   1.558   0.134   8.486 -1.1620  0.7193  0.7927
 5238TIP3   OH239908   0.483   5.522   8.183 -0.1674  0.1452 -0.7963
 5238TIP3    H139909   0.500   5.614   8.201 -0.8269  0.3570 -1.2166
 5238TIP3    H239910   0.448   5.487   8.265 -1.5338  0.6902 -1.1189
 5239TIP3   OH239911   5.399   7.368   8.976 -0.5627  0.7398 -0.5279
 5239TIP3    H139912   5.307   7.383   9.000 -0.1562 -0.6683  2.3459
 5239TIP3    H239913   5.448   7.425   9.034  0.4329 -0.5068 -0.0945
 5240TIP3   OH239914   6.510   1.803   8.498 -0.0788 -0.3857  0.8069
 5240TIP3    H139915   6.474   1.848   8.574 -1.7016 -1.1680  0.5494
 5240TIP3    H239916   6.482   1.712   8.508  0.6856 -0.7438 -0.1269
 5241TIP3   OH239917   1.972   1.006   9.195 -0.3076  0.4182  0.7762
 5241TIP3    H139918   2.015   0.925   9.169  2.0691  1.4538  1.1939
 5241TIP3    H239919   2.013   1.074   9.142 -1.7029  1.4726  0.9673
 5242TIP3   OH239920   0.396   1.123   7.480 -0.2007 -0.3451 -0.3996
 5242TIP3    H139921   0.485   1.152   7.499 -0.1499 -0.7353 -0.0191
 5242TIP3    H239922   0.399   1.028   7.495 -0.6851 -0.3537 -0.3674
 5243TIP3   OH239923   6.179   2.935   7.871 -0.0773 -0.6659 -0.5675
 5243TIP3    H139924   6.219   2.868   7.816 -0.7176 -0.4656 -1.2752
 5243TIP3    H239925   6.253   2.971   7.921  0.4944 -0.9148 -1.2148
 5244TIP3   OH239926   7.017   2.401   8.387 -0.5866  0.5306  0.1189
 5244TIP3    H139927   7.040   2.406   8.295 -0.5887  0.4536  0.1135
 5244TIP3    H239928   6.928   2.367   8.388  0.4258 -2.4225  0.2209
 5245TIP3   OH239929   1.982   7.633   8.582  0.2259  0.0848 -0.0586
 5245TIP3    H139930   1.970   7.559   8.640 -0.3484  0.2372  0.0170
 5245TIP3    H239931   2.008   7.594   8.498  1.2574 -0.1262  0.3332
 5246TIP3   OH239932   6.248   1.335   9.159  0.1151  0.2418 -0.1101
 5246TIP3    H139933   6.233   1.361   9.068 -1.1239  0.3218  0.1024
 5246TIP3    H239934   6.207   1.404   9.210  0.6208  0.0847  0.5100
 5247TIP3   OH239935   3.391   5.822   8.628  0.1283  0.0327 -0.3608
 5247TIP3    H139936   3.464   5.765   8.652 -1.2066 -1.2487  0.8208
 5247TIP3    H239937   3.334   5.768   8.574 -0.6866  0.5508 -0.0399
 5248TIP3   OH239938   3.878   5.568   8.930  0.2569  0.0692 -0.5300
 5248TIP3    H139939   3.953   5.561   8.871  0.6475 -1.7380  0.1295
 5248TIP3    H239940   3.867   5.480   8.966  0.0135  1.0664  2.0613
 5249TIP3   OH239941   2.266   1.182   8.599 -0.1239  0.1797 -0.2097
 5249TIP3    H139942   2.293   1.137   8.679  1.9148 -0.1523 -1.0123
 5249TIP3    H239943   2.339   1.239   8.577 -0.3775 -0.1541 -2.1250
 5250TIP3   OH239944   1.604   4.899   7.406  0.7734 -0.5575 -0.0706
 5250TIP3    H139945   1.572   4.988   7.418 -1.6965 -1.2433 -0.8452
 5250TIP3    H239946   1.690   4.910   7.367  0.1604  1.5205 -1.0060
 5251TIP3   OH239947   5.569   2.418   7.847 -0.4344 -0.0376 -0.0476
 5251TIP3    H139948   5.634   2.372   7.900 -1.0357  0.1586  0.8815
 5251TIP3    H239949   5.484   2.389   7.882 -0.8426  0.0274 -0.9639
 5252TIP3   OH239950   1.421   4.119   8.162  0.0271 -0.4015  0.1275
 5252TIP3    H139951   1.375   4.042   8.126  0.6742 -0.7787  0.0928
 5252TIP3    H239952   1.355   4.188   8.163 -0.3814 -0.7744 -0.4814
 5253TIP3   OH239953   3.326   4.279   7.992 -0.6809 -0.6289  0.4016
 5253TIP3    H139954   3.390   4.213   8.020 -1.3267 -2.1425 -1.4524
 5253TIP3    H239955   3.242   4.241   8.015 -1.0433 -0.2586 -0.2835
 5254TIP3   OH239956   3.900   0.891   8.449 -0.3012  0.0583  0.2194
 5254TIP3    H139957   3.885   0.978   8.413  1.6782  0.2818 -0.1828
 5254TIP3    H239958   3.980   0.900   8.501  2.0546 -2.1852 -2.6393
 5255TIP3   OH239959   3.997   0.895   7.312  0.6752 -0.0843 -0.0192
 5255TIP3    H139960   3.951   0.865   7.234 -0.5826  0.5873  0.4314
 5255TIP3    H239961   4.048   0.819   7.340  0.1081 -0.7528 -0.7462
 5256TIP3   OH239962   4.536   6.433   8.064 -0.3698 -0.4476 -0.0187
 5256TIP3    H139963   4.502   6.411   7.977  0.4887  1.3641 -0.8583
 5256TIP3    H239964   4.477   6.501   8.096 -0.9664 -1.4424  1.0631
 5257TIP3   OH239965   0.711   2.412   8.526 -0.0083 -0.4852  0.3116
 5257TIP3    H139966   0.758   2.447   8.450  0.2081 -1.3672  0.0300
 5257TIP3    H239967   0.619   2.421   8.504  0.0372  0.3257  0.4371
 5258TIP3   OH239968   4.670   4.824   8.651  0.3538  0.9644  0.1621
 5258TIP3    H139969   4.690   4.839   8.743 -0.0831 -0.3933  0.5047
 5258TIP3    H239970   4.576   4.803   8.650  0.6491 -0.4162 -0.3911
 5259TIP3   OH239971   4.787   1.860   9.290  0.0790  0.3446 -0.3648
 5259TIP3    H139972   4.692   1.851   9.280  0.1297  1.0913 -1.7199
 5259TIP3    H239973   4.817   1.772   9.313 -1.2362  0.6550  3.1729
 5260TIP3   OH239974   5.415   4.710   7.114 -0.1391  0.2012 -0.2188
 5260TIP3    H139975   5.361   4.640   7.079 -0.4869  0.5034 -0.2957
 5260TIP3    H239976   5.496   4.705   7.063 -1.5175  2.1792 -2.9112
 5261TIP3   OH239977   1.434   2.950   6.783  0.3494 -0.0310  0.1889
 5261TIP3    H139978   1.520   2.932   6.747  0.4393  0.8845 -0.0899
 5261TIP3    H239979   1.379   2.968   6.707 -0.1317 -0.7522  0.3528
 5262TIP3   OH239980   3.760   6.363   8.731  0.0439  0.2200 -0.0870
 5262TIP3    H139981   3.694   6.377   8.799  1.5333  0.8430  1.2754
 5262TIP3    H239982   3.844   6.366   8.777  1.1276  0.9296 -1.9895
 5263TIP3   OH239983   2.455   5.609   9.113 -0.0657  0.8678  0.0448
 5263TIP3    H139984   2.489   5.563   9.190 -3.3712 -1.5882  0.2336
 5263TIP3    H239985   2.447   5.541   9.046 -1.2316  2.0722 -1.0889
 5264TIP3   OH239986   2.752   1.360   8.416 -0.2611  0.9043  0.0219
 5264TIP3    H139987   2.845   1.342   8.430 -0.5236  0.8586  1.8455
 5264TIP3    H239988   2.744   1.369   8.321  0.9980 -2.3919 -0.5273
 5265TIP3   OH239989   3.892   4.577   7.731  0.5037  0.2008 -0.0483
 5265TIP3    H139990   3.984   4.552   7.733  1.0584  2.0922  0.5119
 5265TIP3    H239991   3.887   4.657   7.785 -0.9635  1.6175 -2.1104
 5266TIP3   OH239992   3.545   2.547   8.562  0.5916 -0.0056 -0.5810
 5266TIP3    H139993   3.481   2.496   8.613  0.7368 -0.0535 -0.4440
 5266TIP3    H239994   3.596   2.481   8.515  1.4307 -0.0544  0.3623
 5267TIP3   OH239995   1.948   6.177   6.852  0.2570  0.3443  0.0060
 5267TIP3    H139996   1.976   6.115   6.785 -1.4274  0.4003 -0.8155
 5267TIP3    H239997   2.016   6.244   6.852 -1.0899  2.0361 -3.9627
 5268TIP3   OH239998   5.899   2.408   8.696  0.1673 -0.0824  0.0949
 5268TIP3    H139999   5.845   2.484   8.716 -1.0922 -1.1758  0.9483
 5268TIP3    H240000   5.967   2.408   8.763  0.0481  0.1783  0.2149
 5269TIP3   OH240001   4.888   7.084   7.868 -0.2528  0.6997 -0.3096
 5269TIP3    H140002   4.972   7.076   7.913 -0.7605 -1.6764  0.3338
 5269TIP3    H240003   4.888   7.174   7.834  1.1370  1.8631  2.4412
 5270TIP3   OH240004   6.059   6.853   6.480  0.1002 -0.0172 -0.3948
 5270TIP3    H140005   6.062   6.902   6.397 -1.0525 -0.2077 -0.5754
 5270TIP3    H240006   6.019   6.769   6.456  1.2062 -0.7000  0.0808
 5271TIP3   OH240007   2.922   2.324   8.993  0.0388 -0.0897  0.2414
 5271TIP3    H140008   2.893   2.309   8.903 -0.8659 -1.1978  0.6945
 5271TIP3    H240009   2.865   2.394   9.024  0.5036  0.4552 -0.0982
 5272TIP3   OH240010   2.042   1.216   8.166 -0.4720  0.3476  0.0432
 5272TIP3    H140011   2.122   1.233   8.216 -0.2910  0.8637 -0.4157
 5272TIP3    H240012   1.975   1.204   8.232  0.1100 -0.7637  0.4615
 5273TIP3   OH240013   0.725   3.847   8.349 -0.0152  0.0983  0.3999
 5273TIP3    H140014   0.749   3.856   8.441  0.1346 -0.4683  0.4169
 5273TIP3    H240015   0.781   3.778   8.315  1.1905  1.4897 -0.5786
 5274TIP3   OH240016   0.128   2.704   7.798  0.4433 -0.3567  0.5426
 5274TIP3    H140017   0.071   2.682   7.872  0.0394 -0.7105  0.1352
 5274TIP3    H240018   0.069   2.745   7.734  0.4355 -1.6232 -0.2930
 5275TIP3   OH240019   4.661   0.407   7.585 -0.1552  0.0745  0.3606
 5275TIP3    H140020   4.688   0.491   7.620  0.4092  0.2561 -0.4780
 5275TIP3    H240021   4.675   0.414   7.490 -3.7214  0.3914 -0.2870
 5276TIP3   OH240022   6.864   5.816   7.194 -0.5860 -0.0574  0.0599
 5276TIP3    H140023   6.886   5.754   7.125  0.4591  0.5637 -0.1848
 5276TIP3    H240024   6.893   5.900   7.161  1.6325  0.0341  1.9383
 5277TIP3   OH240025   4.758   1.396   8.934  0.1501 -0.4990 -0.3577
 5277TIP3    H140026   4.761   1.487   8.963 -1.1509 -0.5298 -0.0566
 5277TIP3    H240027   4.842   1.359   8.960  0.4502  0.4580  0.0573
 5278TIP3   OH240028   1.419   7.434   9.094 -0.4445  0.4154 -0.8011
 5278TIP3    H140029   1.457   7.485   9.165  1.4961  0.3794 -1.7462
 5278TIP3    H240030   1.430   7.343   9.121 -0.3543  0.4171 -0.8318
 5279TIP3   OH240031   3.812   1.960   6.952  0.0405 -0.0901  0.1952
 5279TIP3    H140032   3.880   1.972   6.886 -0.7076  0.3817 -0.4945
 5279TIP3    H240033   3.778   2.048   6.968 -1.8170 -0.5366 -0.9857
 5280TIP3   OH240034   7.020   3.833   8.257  0.3276  0.7331  0.0768
 5280TIP3    H140035   7.097   3.794   8.299  1.1266  1.4370 -0.6770
 5280TIP3    H240036   7.034   3.928   8.266 -0.1180  0.8768 -0.6495
 5281TIP3   OH240037   2.754   1.101   8.955 -0.3570  0.4860  0.3323
 5281TIP3    H140038   2.810   1.090   9.032  0.5606  0.3790 -0.3271
 5281TIP3    H240039   2.719   1.013   8.938  0.3629  0.2624 -0.0419
 5282TIP3   OH240040   6.637   2.600   8.514 -0.3386  0.0332  0.2119
 5282TIP3    H140041   6.645   2.504   8.513 -0.5562  0.0136  0.0585
 5282TIP3    H240042   6.552   2.616   8.556  0.4339  0.2247  1.7619
 5283TIP3   OH240043   1.223   2.699   7.876 -0.1622  0.0306 -0.2159
 5283TIP3    H140044   1.261   2.615   7.903 -3.7810 -1.8703 -0.3442
 5283TIP3    H240045   1.291   2.741   7.824  3.1291 -1.1076  2.7294
 5284TIP3   OH240046   2.062   1.231   9.552 -0.0476 -0.0469  0.5231
 5284TIP3    H140047   1.983   1.187   9.523 -0.7013  0.8252  0.9371
 5284TIP3    H240048   2.090   1.183   9.629  1.1091 -1.7281 -0.8597
 5285TIP3   OH240049   4.621   3.816   8.932 -0.0767  0.1573  0.2029
 5285TIP3    H140050   4.545   3.803   8.988 -0.0022  1.4131  0.6238
 5285TIP3    H240051   4.585   3.838   8.846 -0.1828 -0.7862 -0.0073
 5286TIP3   OH240052   5.443   4.182   8.371  0.9179 -0.0061  0.1259
 5286TIP3    H140053   5.401   4.266   8.349  1.2069  0.2322  0.4613
 5286TIP3    H240054   5.395   4.117   8.320  0.3276  0.2942  0.2782
 5287TIP3   OH240055   3.130   0.866   8.368 -0.4479  0.2561 -0.0553
 5287TIP3    H140056   3.090   0.940   8.414 -1.3488 -1.0225  1.3034
 5287TIP3    H240057   3.223   0.870   8.394 -0.3069  1.3769 -0.6683
 5288TIP3   OH240058   3.003   4.944   8.845  0.0433 -0.1359  0.9456
 5288TIP3    H140059   3.096   4.950   8.824 -0.4308  1.0330 -1.0458
 5288TIP3    H240060   2.982   5.029   8.883 -0.7041  0.5768 -0.9567
 5289TIP3   OH240061   2.393   3.411   7.835  0.0533  0.2168  0.3685
 5289TIP3    H140062   2.306   3.391   7.801  0.0203  1.3814 -0.3235
 5289TIP3    H240063   2.393   3.378   7.924 -0.8928 -0.3109  0.1879
 5290TIP3   OH240064   2.855   7.659   8.478  0.1945  0.5698  0.6457
 5290TIP3    H140065   2.904   7.697   8.551  1.1380 -0.9275  0.8338
 5290TIP3    H240066   2.913   7.591   8.443 -1.2353 -0.3951  0.0623
 5291TIP3   OH240067   5.084   2.810   8.690  0.2468 -0.2692 -0.3764
 5291TIP3    H140068   5.069   2.901   8.662 -0.4486 -0.3946 -0.4464
 5291TIP3    H240069   5.126   2.818   8.776 -2.7050  0.2102  1.2036
 5292TIP3   OH240070   0.454   5.308   7.813  0.2734  0.3462 -0.2677
 5292TIP3    H140071   0.479   5.243   7.879 -1.1677  0.5403  0.5128
 5292TIP3    H240072   0.365   5.283   7.787  0.1848  1.2675 -0.9016
 5293TIP3   OH240073   2.081   7.656   9.379 -0.3072  0.5092 -0.2878
 5293TIP3    H140074   2.145   7.724   9.399  0.3521 -0.1802 -0.0311
 5293TIP3    H240075   2.067   7.663   9.284  1.0232 -0.0873 -0.5439
 5294TIP3   OH240076   2.255   5.925   7.958  0.0877 -0.5304  0.6856
 5294TIP3    H140077   2.252   6.017   7.985 -1.5692 -0.8039  1.5446
 5294TIP3    H240078   2.216   5.924   7.871 -1.6380 -0.6317  1.4249
 5295TIP3   OH240079   0.543   6.414   7.831 -0.0102 -0.1689  0.5980
 5295TIP3    H140080   0.569   6.326   7.859 -0.3443 -0.1941  0.8309
 5295TIP3    H240081   0.512   6.456   7.911 -0.1314  0.0590  0.4305
 5296TIP3   OH240082   3.906   1.368   8.946 -0.0690 -0.8546  0.1805
 5296TIP3    H140083   3.835   1.396   8.888  0.1680 -0.8960 -0.1376
 5296TIP3    H240084   3.894   1.274   8.957 -0.8066 -0.6510  1.1667
 5297TIP3   OH240085   2.225   3.216   9.258 -0.1253 -0.2128 -0.1510
 5297TIP3    H140086   2.208   3.128   9.290 -1.2031 -0.3037 -0.9387
 5297TIP3    H240087   2.198   3.215   9.166  0.9285  0.6247 -0.4936
 5298TIP3   OH240088   6.461   1.209   8.911  0.0363  0.9017 -0.1947
 5298TIP3    H140089   6.533   1.160   8.952  0.0854  0.2887 -0.9798
 5298TIP3    H240090   6.494   1.230   8.824  0.0247  2.3988  0.1367
 5299TIP3   OH240091   2.622   1.711   7.356 -0.0492 -0.3075  0.5981
 5299TIP3    H140092   2.713   1.739   7.355 -0.0079 -0.4315 -0.1180
 5299TIP3    H240093   2.626   1.616   7.348 -0.2413 -0.2628 -0.2143
 5300TIP3   OH240094   5.450   4.182   7.747 -0.0210 -0.3751  0.0196
 5300TIP3    H140095   5.412   4.245   7.685  0.1961  1.1633  1.3896
 5300TIP3    H240096   5.451   4.099   7.699 -1.6037  0.3496 -1.3666
 5301TIP3   OH240097   6.101   5.574   8.485 -0.1605  0.0030  0.1013
 5301TIP3    H140098   6.103   5.649   8.545 -0.4385  0.1703 -0.0953
 5301TIP3    H240099   6.014   5.577   8.445 -0.3796 -0.7626  0.5120
 5302TIP3   OH240100   5.421   2.860   7.836  0.0184 -0.6256 -0.0787
 5302TIP3    H140101   5.411   2.918   7.912  0.0808 -0.4592 -0.1991
 5302TIP3    H240102   5.386   2.776   7.867 -1.3719 -0.1751 -0.3537
 5303TIP3   OH240103   4.736   3.587   8.144  0.2183 -0.2330  0.4991
 5303TIP3    H140104   4.681   3.577   8.221 -0.1752  0.0849  0.2632
 5303TIP3    H240105   4.680   3.631   8.080  0.2343 -1.3332 -0.2962
 5304TIP3   OH240106   6.820   0.682   8.610 -0.6610 -0.2646  0.2417
 5304TIP3    H140107   6.819   0.733   8.691 -0.7219  0.7150 -0.3634
 5304TIP3    H240108   6.774   0.601   8.632  0.7853 -0.7473  1.6418
 5305TIP3   OH240109   1.367   3.132   7.703 -1.1723 -0.1072 -0.1505
 5305TIP3    H140110   1.323   3.217   7.703 -1.2106 -0.1241 -0.6736
 5305TIP3    H240111   1.306   3.073   7.659 -1.1729 -0.4264  0.2638
 5306TIP3   OH240112   1.117   5.672   7.208 -0.0274  0.8703 -0.2377
 5306TIP3    H140113   1.151   5.583   7.210 -1.3225  0.3700  0.4019
 5306TIP3    H240114   1.153   5.710   7.127 -2.4932 -1.5039 -2.6552
 5307TIP3   OH240115   6.789   0.600   8.352 -0.2408  1.1934 -0.3779
 5307TIP3    H140116   6.726   0.655   8.306 -0.9852  0.2406 -0.5258
 5307TIP3    H240117   6.789   0.633   8.442 -1.0966  1.0980 -0.3299
 5308TIP3   OH240118   2.983   0.253   8.273  0.3852 -0.3571 -0.4747
 5308TIP3    H140119   2.889   0.249   8.261 -0.0235  0.3845  1.9516
 5308TIP3    H240120   3.007   0.343   8.249  0.1772 -0.0235  0.5291
 5309TIP3   OH240121   1.107   6.178   7.967 -0.5216  0.6957  0.1613
 5309TIP3    H140122   1.092   6.092   8.006  1.0235 -0.1772 -1.0318
 5309TIP3    H240123   1.149   6.229   8.036  1.5917 -0.6168 -0.0447
 5310TIP3   OH240124   4.114   2.809   9.354 -0.1572  0.2631  0.0309
 5310TIP3    H140125   4.193   2.770   9.390  0.0426  1.2019  0.6579
 5310TIP3    H240126   4.125   2.804   9.259 -0.7780 -2.4268  0.0270
 5311TIP3   OH240127   4.620   6.534   7.329  0.4452  0.1915  0.5509
 5311TIP3    H140128   4.537   6.502   7.365  1.1430 -0.6062  1.5263
 5311TIP3    H240129   4.596   6.577   7.247 -0.6964 -1.7791 -0.2054
 5312TIP3   OH240130   2.386   0.690   8.067  0.0039  0.1894  0.5275
 5312TIP3    H140131   2.368   0.727   7.980  0.9152 -0.1122  0.1977
 5312TIP3    H240132   2.416   0.765   8.119 -0.6574  0.3933  0.6259
 5313TIP3   OH240133   6.226   7.436   8.941 -0.3694 -0.1179 -0.4670
 5313TIP3    H140134   6.207   7.528   8.927 -0.7433 -0.1252 -0.0025
 5313TIP3    H240135   6.320   7.428   8.921 -0.6803  0.0413 -2.0994
 5314TIP3   OH240136   1.748   1.378   7.642 -0.0878 -0.3827 -0.4643
 5314TIP3    H140137   1.713   1.411   7.725 -0.4661 -1.0733 -0.3406
 5314TIP3    H240138   1.713   1.290   7.635 -1.2330  0.1570 -2.0581
 5315TIP3   OH240139   4.133   5.835   7.845 -0.5795 -0.4593 -0.2974
 5315TIP3    H140140   4.087   5.876   7.771  1.2082 -0.4972 -1.5133
 5315TIP3    H240141   4.182   5.763   7.805 -0.2910 -1.0684  1.1040
 5316TIP3   OH240142   6.961   1.376   7.355 -0.1077  0.7216  0.0019
 5316TIP3    H140143   6.962   1.438   7.282  1.3425  0.2589 -0.4245
 5316TIP3    H240144   7.047   1.386   7.396  0.2997 -1.1722 -0.2652
 5317TIP3   OH240145   0.895   3.690   8.853  0.0429  0.2462  0.5214
 5317TIP3    H140146   0.937   3.770   8.884  0.4743  0.0497  0.4617
 5317TIP3    H240147   0.959   3.621   8.871 -0.9356 -0.3240  1.9936
 5318TIP3   OH240148   0.988   2.164   7.007 -0.1337  0.2817 -0.3464
 5318TIP3    H140149   1.043   2.236   6.976 -0.2340 -0.1525 -1.5879
 5318TIP3    H240150   1.046   2.087   7.005 -0.6276 -0.0834 -1.1944
 5319TIP3   OH240151   1.082   0.614   8.767  0.1134  0.5790 -0.4815
 5319TIP3    H140152   1.142   0.622   8.842  0.4549 -2.1705 -0.3621
 5319TIP3    H240153   1.118   0.542   8.716 -1.5959  0.6756 -1.8963
 5320TIP3   OH240154   4.846   5.350   8.343  0.5871 -0.4049  0.4370
 5320TIP3    H140155   4.779   5.322   8.280 -1.4926 -0.5667  2.6060
 5320TIP3    H240156   4.819   5.312   8.426  1.3295  2.5269  2.1625
 5321TIP3   OH240157   0.788   4.901   8.442 -0.1144 -0.5512  0.4609
 5321TIP3    H140158   0.840   4.884   8.363 -1.1341 -0.5773 -0.2218
 5321TIP3    H240159   0.851   4.896   8.513  1.0384  0.5657 -0.4351
 5322TIP3   OH240160   1.467   5.134   9.215  0.0770  0.6704  0.1218
 5322TIP3    H140161   1.462   5.044   9.245 -1.7606  1.0365  1.0404
 5322TIP3    H240162   1.544   5.170   9.259  3.2041 -1.3662 -3.1577
 5323TIP3   OH240163   1.552   6.283   8.024 -0.1082  0.1983  0.4731
 5323TIP3    H140164   1.494   6.359   8.036 -1.1503 -0.5115  0.0604
 5323TIP3    H240165   1.635   6.311   8.062 -0.1350  1.9504 -0.6375
 5324TIP3   OH240166   5.346   7.680   9.300 -0.0995 -0.2107 -0.2781
 5324TIP3    H140167   5.395   7.607   9.262  1.9517  1.2703 -0.6867
 5324TIP3    H240168   5.372   7.682   9.392  0.4847  0.4501 -0.4469
 5325TIP3   OH240169   4.262   0.548   9.070 -0.0275  0.3113 -0.1930
 5325TIP3    H140170   4.206   0.472   9.089  0.5908  0.4230  2.4891
 5325TIP3    H240171   4.350   0.511   9.063  0.1528  0.6522  0.2253
 5326TIP3   OH240172   5.402   3.992   8.766  0.8190  0.2618 -0.1394
 5326TIP3    H140173   5.485   4.014   8.724  0.2187 -1.0849 -2.2309
 5326TIP3    H240174   5.345   4.067   8.747  1.6652  1.4951  1.8781
 5327TIP3   OH240175   6.751   7.604   7.371  0.2619 -0.4074 -0.4774
 5327TIP3    H140176   6.781   7.636   7.456  0.1443  0.2976 -0.6997
 5327TIP3    H240177   6.774   7.673   7.309 -0.5737 -0.4651 -0.8669
 5328TIP3   OH240178   6.243   0.754   9.184  0.4229  0.1221 -0.4087
 5328TIP3    H140179   6.155   0.717   9.174  0.7975 -0.9086 -0.0176
 5328TIP3    H240180   6.228   0.843   9.216 -0.4690 -0.1180 -0.1294
 5329TIP3   OH240181   2.398   6.308   7.475  0.3530 -0.4623  0.2908
 5329TIP3    H140182   2.435   6.396   7.482  1.5755 -0.8927 -0.4226
 5329TIP3    H240183   2.428   6.264   7.555  1.0609 -0.6871 -0.0916
 5330TIP3   OH240184   4.904   0.192   8.253  0.0248  0.1274 -0.1877
 5330TIP3    H140185   4.843   0.250   8.298 -0.3919  0.5517 -1.2600
 5330TIP3    H240186   4.875   0.103   8.275 -1.0082  0.3226 -0.7050
 5331TIP3   OH240187   2.793   6.295   8.676 -0.2187  0.2900  0.4590
 5331TIP3    H140188   2.734   6.271   8.748  0.6453 -0.5972  0.8901
 5331TIP3    H240189   2.880   6.292   8.715  0.1468  1.3497 -0.2352
 5332TIP3   OH240190   1.157   4.329   7.683 -0.0721 -0.0066  0.1107
 5332TIP3    H140191   1.079   4.280   7.710 -0.9277  1.1671 -0.1116
 5332TIP3    H240192   1.230   4.278   7.715 -0.9540 -0.9155  0.7347
 5333TIP3   OH240193   2.499   3.729   7.977  1.0333 -0.9144  0.2328
 5333TIP3    H140194   2.523   3.682   7.897 -2.4475 -2.5735 -0.0214
 5333TIP3    H240195   2.460   3.662   8.033 -0.4380  0.9696  1.5949
 5334TIP3   OH240196   0.943   7.401   9.557 -0.3207 -0.4669  0.6106
 5334TIP3    H140197   0.944   7.370   9.466 -0.6675  0.2589  0.3496
 5334TIP3    H240198   0.965   7.494   9.550 -2.6755  0.1950  1.0067
 5335TIP3   OH240199   6.568   4.487   9.157  0.1527 -0.0265 -0.0586
 5335TIP3    H140200   6.487   4.533   9.178 -0.2516 -0.9750  0.5039
 5335TIP3    H240201   6.544   4.395   9.154  1.5742 -0.5447  2.0837
 5336TIP3   OH240202   7.381   0.887   7.657  0.3466  0.0582  0.1333
 5336TIP3    H140203   7.312   0.931   7.705 -2.0121 -1.0196 -2.0123
 5336TIP3    H240204   7.343   0.870   7.570  2.4423 -2.6978 -0.3993
 5337TIP3   OH240205   3.645   0.101   8.651  0.5017 -0.2282  0.1945
 5337TIP3    H140206   3.638   0.011   8.682 -2.0567 -0.4577 -0.8108
 5337TIP3    H240207   3.723   0.102   8.595  0.3175 -1.9420 -0.1338
 5338TIP3   OH240208   0.839   0.552   7.776 -0.0010 -0.1084 -0.0450
 5338TIP3    H140209   0.850   0.574   7.868 -0.0128 -1.4284  0.3022
 5338TIP3    H240210   0.865   0.459   7.771  2.7575  0.6216 -1.8690
 5339TIP3   OH240211   5.286   2.522   7.552  0.2759  0.3001  0.3142
 5339TIP3    H140212   5.267   2.486   7.466  1.9373 -1.2672  0.5352
 5339TIP3    H240213   5.355   2.586   7.537 -0.3406  0.9836  0.3424
 5340TIP3   OH240214   4.873   6.722   8.003  0.3652 -0.3026 -0.2267
 5340TIP3    H140215   4.840   6.636   8.028  0.1963 -0.3196 -0.5110
 5340TIP3    H240216   4.906   6.760   8.085  0.0097 -0.4456 -0.0176
 5341TIP3   OH240217   7.455   5.743   7.755  0.1835 -0.0440  0.0244
 5341TIP3    H140218   7.512   5.771   7.827 -0.5426  1.6637 -0.0045
 5341TIP3    H240219   7.512   5.739   7.679  0.6344 -0.2243  0.3699
 5342TIP3   OH240220   5.417   0.073   8.641 -0.2136 -0.7916 -0.5955
 5342TIP3    H140221   5.354   0.021   8.690  1.7099 -1.0271  1.8035
 5342TIP3    H240222   5.418   0.034   8.554 -2.3830 -1.5901 -0.3214
 5343TIP3   OH240223   4.460   0.357   8.971 -0.6263  0.5915  0.1343
 5343TIP3    H140224   4.515   0.393   9.040 -2.5748  1.0472  1.5478
 5343TIP3    H240225   4.449   0.265   8.995 -0.0056  0.3617 -0.4648
 5344TIP3   OH240226   0.640   0.381   7.994  0.2470  0.1953  0.1937
 5344TIP3    H140227   0.732   0.404   8.009  0.5164  0.0296 -1.0765
 5344TIP3    H240228   0.607   0.358   8.081  0.7230  2.6080  1.0981
 5345TIP3   OH240229   2.968   5.871   8.802 -0.2917 -0.0068 -0.2473
 5345TIP3    H140230   2.960   5.918   8.719  1.1791 -0.4145 -0.6389
 5345TIP3    H240231   3.063   5.865   8.817 -0.4753 -1.9234  0.3276
 5346TIP3   OH240232   4.848   6.679   6.933  0.4582 -0.2811  0.4990
 5346TIP3    H140233   4.879   6.680   6.843 -1.3654  2.5114 -0.2085
 5346TIP3    H240234   4.771   6.622   6.931 -1.5036  2.2380 -0.5563
 5347TIP3   OH240235   0.390   1.928   7.285  0.0440  0.2193 -0.2586
 5347TIP3    H140236   0.456   1.905   7.350  0.8102  3.0267  0.1130
 5347TIP3    H240237   0.398   2.023   7.276 -0.1203  0.0069 -4.3896
 5348TIP3   OH240238   4.906   4.262   9.127 -0.0473  0.2795  0.4774
 5348TIP3    H140239   4.831   4.203   9.123 -0.3365  0.3160  3.2787
 5348TIP3    H240240   4.974   4.211   9.170  0.0873  1.5254  1.8326
 5349TIP3   OH240241   4.788   1.648   9.021 -0.2227  0.0706  0.2285
 5349TIP3    H140242   4.795   1.631   9.115 -0.2046  0.7485  0.3557
 5349TIP3    H240243   4.859   1.710   9.003  1.2143 -1.7279 -0.6678
 5350TIP3   OH240244   7.265   5.589   8.407 -0.1711 -0.2820  0.4961
 5350TIP3    H140245   7.201   5.519   8.418 -1.6806  0.7842 -0.9453
 5350TIP3    H240246   7.255   5.642   8.486 -0.3831 -0.6425  0.7154
 5351TIP3   OH240247   3.707   0.171   8.338 -0.0339  0.0041  0.3645
 5351TIP3    H140248   3.789   0.214   8.361  0.1259  0.1561 -0.4792
 5351TIP3    H240249   3.640   0.240   8.349  0.0040  0.0036  0.6101
 5352TIP3   OH240250   7.483   0.349   7.205 -0.1604  0.3764 -0.2928
 5352TIP3    H140251   7.450   0.288   7.139 -1.6852  1.9904 -1.1164
 5352TIP3    H240252   7.468   0.435   7.167  1.2719  1.3005  1.1330
 5353TIP3   OH240253   5.490   4.761   8.521  0.2343 -0.5832 -0.3154
 5353TIP3    H140254   5.578   4.798   8.520 -0.2767  0.7233 -1.5998
 5353TIP3    H240255   5.455   4.781   8.434 -0.7549 -2.5272 -0.4109
 5354TIP3   OH240256   3.199   1.822   9.373  0.1673 -0.4711  0.1495
 5354TIP3    H140257   3.258   1.891   9.342 -1.1981  1.4993  1.6967
 5354TIP3    H240258   3.153   1.792   9.295  0.8099  0.3499 -0.5630
 5355TIP3   OH240259   1.004   3.926   8.113  0.6544 -0.2857 -0.2224
 5355TIP3    H140260   1.026   3.961   8.200 -0.1403 -2.3062  0.8662
 5355TIP3    H240261   1.011   3.831   8.124 -0.3781 -0.6214 -2.1242
 5356TIP3   OH240262   6.039   3.413   8.414  0.0713  0.0527  1.0342
 5356TIP3    H140263   5.971   3.431   8.479 -0.2661 -0.4144  0.8109
 5356TIP3    H240264   6.098   3.488   8.421 -0.4414  0.4454  1.2596
 5357TIP3   OH240265   6.894   5.198   9.086  0.1105 -0.8260  0.2134
 5357TIP3    H140266   6.869   5.123   9.033  0.9401 -0.3856 -0.8486
 5357TIP3    H240267   6.976   5.171   9.129  0.4861 -0.4962 -0.2805
 5358TIP3   OH240268   2.014   3.608   6.781 -0.4210  0.5237 -0.0192
 5358TIP3    H140269   2.060   3.527   6.760 -2.6913 -0.3931 -1.9463
 5358TIP3    H240270   2.058   3.675   6.729 -0.2550 -0.0043 -0.5677
 5359TIP3   OH240271   4.304   7.629   7.913 -0.2817 -0.2020 -0.3057
 5359TIP3    H140272   4.266   7.545   7.941  0.8385 -1.3569 -2.0314
 5359TIP3    H240273   4.241   7.665   7.851 -1.7473  1.3220  1.9158
 5360TIP3   OH240274   5.084   4.344   8.927  0.2950  0.0174  0.2239
 5360TIP3    H140275   5.023   4.312   8.994  1.4019 -0.9086  0.8453
 5360TIP3    H240276   5.155   4.385   8.977  1.3658 -1.0933 -0.3176
 5361TIP3   OH240277   2.958   2.242   7.167  0.1414 -0.0123 -0.3088
 5361TIP3    H140278   3.009   2.213   7.091 -0.1955  0.9829 -0.9325
 5361TIP3    H240279   2.923   2.161   7.205  0.8229 -0.5702 -0.8417
 5362TIP3   OH240280   2.438   6.051   7.180  0.5016 -0.2657  0.3902
 5362TIP3    H140281   2.495   6.044   7.257 -1.4705 -0.3889  1.9415
 5362TIP3    H240282   2.401   5.963   7.170  0.5302 -0.1782 -0.5473
 5363TIP3   OH240283   3.777   0.061   8.084 -0.3820 -0.3867 -0.2977
 5363TIP3    H140284   3.753   0.098   8.169  2.0302 -0.3876  0.4687
 5363TIP3    H240285   3.741   0.122   8.020  0.7507  1.5996  0.8577
 5364TIP3   OH240286   5.238   6.285   8.334 -0.1122  0.1290  0.3476
 5364TIP3    H140287   5.305   6.286   8.402 -1.5854  1.0107  1.8670
 5364TIP3    H240288   5.179   6.213   8.359 -1.0674  0.9204  0.4636
 5365TIP3   OH240289   6.117   1.315   8.050 -0.3143  0.0360 -0.1639
 5365TIP3    H140290   6.040   1.351   8.093  0.3559  0.1436  0.9811
 5365TIP3    H240291   6.185   1.317   8.117  0.8003  0.3259 -1.2669
 5366TIP3   OH240292   5.405   3.553   8.477  0.6758 -0.4799 -0.0126
 5366TIP3    H140293   5.375   3.629   8.527  1.4763  1.2831 -2.0819
 5366TIP3    H240294   5.358   3.479   8.516 -1.1732  1.2217  1.1949
 5367TIP3   OH240295   1.003   7.328   7.855 -0.2634  0.1010 -0.1245
 5367TIP3    H140296   1.020   7.414   7.893 -3.2856  0.0120  1.7106
 5367TIP3    H240297   0.924   7.340   7.802 -0.2544 -1.3875 -0.5225
 5368TIP3   OH240298   3.862   6.526   8.538 -0.2875 -0.5706 -0.6248
 5368TIP3    H140299   3.845   6.468   8.611 -1.5662 -0.1515 -0.5716
 5368TIP3    H240300   3.940   6.576   8.565 -0.2468 -1.0062  0.0807
 5369TIP3   OH240301   3.373   3.204   9.639  0.2141 -0.4632  0.0443
 5369TIP3    H140302   3.408   3.272   9.582 -1.1244  1.5367  1.4741
 5369TIP3    H240303   3.281   3.227   9.652  0.0031 -1.8874  1.4920
 5370TIP3   OH240304   2.060   5.911   8.410 -0.6004  0.3399  0.1020
 5370TIP3    H140305   2.120   5.837   8.395 -0.2416  0.7054 -0.2606
 5370TIP3    H240306   2.085   5.944   8.497 -0.9399 -0.1313  0.3821
 5371TIP3   OH240307   2.264   0.484   8.693  0.2499 -0.2902 -0.0642
 5371TIP3    H140308   2.171   0.482   8.715 -0.0551  1.5587 -0.9895
 5371TIP3    H240309   2.265   0.490   8.597  1.4144 -2.8266 -0.3008
 5372TIP3   OH240310   1.626   1.534   8.719  0.0321 -0.3731  0.1718
 5372TIP3    H140311   1.663   1.610   8.674 -0.1940  0.7099  1.7452
 5372TIP3    H240312   1.546   1.566   8.759 -0.5981 -1.7177  0.0256
 5373TIP3   OH240313   6.415   2.395   6.728  0.0220 -0.0107  0.0821
 5373TIP3    H140314   6.398   2.332   6.659 -0.7120 -0.1927  0.4222
 5373TIP3    H240315   6.497   2.365   6.769  0.0967 -0.2845 -0.2654
 5374TIP3   OH240316   0.015   1.943   8.506  0.3485  0.2824  0.6258
 5374TIP3    H140317  -0.071   1.962   8.469  0.0125 -2.4790 -0.2037
 5374TIP3    H240318   0.077   1.970   8.438  0.0327  0.3668  0.3732
 5375TIP3   OH240319   3.232   0.044   9.088 -0.5659 -0.0067 -0.6670
 5375TIP3    H140320   3.191  -0.035   9.053 -1.1728  1.2559 -3.0379
 5375TIP3    H240321   3.323   0.038   9.060  0.0105 -0.9483  1.2401
 5376TIP3   OH240322   6.505   0.731   9.102 -0.3569  0.7615  0.4394
 5376TIP3    H140323   6.530   0.821   9.122  1.0257  0.4214  0.3596
 5376TIP3    H240324   6.412   0.726   9.123  0.1620  1.4196  3.2442
 5377TIP3   OH240325   6.637   3.515   7.515 -0.3386  0.2768 -0.6042
 5377TIP3    H140326   6.652   3.598   7.469  0.6370 -0.5731 -1.8804
 5377TIP3    H240327   6.719   3.467   7.506 -0.5168 -0.3982  1.0805
 5378TIP3   OH240328   3.889   5.460   6.754 -0.2559 -0.2288 -0.3788
 5378TIP3    H140329   3.874   5.394   6.822  1.6770 -0.4105 -0.0815
 5378TIP3    H240330   3.984   5.466   6.746 -0.4098  1.2049 -1.7123
 5379TIP3   OH240331   6.475   5.600   7.154  0.4505  0.1924  0.1866
 5379TIP3    H140332   6.380   5.588   7.148  0.2626  1.6793 -0.1914
 5379TIP3    H240333   6.486   5.681   7.202  1.5137  0.5133 -0.5545
 5380TIP3   OH240334   5.019   3.147   8.816  0.0199  0.0151  0.2404
 5380TIP3    H140335   4.925   3.128   8.818 -0.2743  1.3562 -0.1374
 5380TIP3    H240336   5.048   3.113   8.731 -0.4771  1.0389 -0.3690
 5381TIP3   OH240337   1.685   6.565   9.166 -0.6211  0.4949 -1.0054
 5381TIP3    H140338   1.737   6.567   9.086  1.8896 -0.2825  0.4853
 5381TIP3    H240339   1.626   6.491   9.154 -0.4055  0.4931 -2.1853
 5382TIP3   OH240340   0.387   5.899   8.736 -0.2375 -0.6305  0.1481
 5382TIP3    H140341   0.416   5.823   8.686 -0.0907 -0.8469  0.5573
 5382TIP3    H240342   0.309   5.929   8.690  0.0990 -0.6064 -0.4178
 5383TIP3   OH240343   1.228   1.958   8.120  0.1575  0.0591 -0.2020
 5383TIP3    H140344   1.294   1.910   8.170 -0.0341  0.6164  0.6002
 5383TIP3    H240345   1.266   1.965   8.032  1.5313  1.0227  0.4269
 5384TIP3   OH240346   1.012   7.490   7.083  0.0043 -0.3947  0.0044
 5384TIP3    H140347   1.053   7.472   6.999  0.1184  0.5314 -0.1485
 5384TIP3    H240348   1.030   7.413   7.136 -0.4135 -1.1627 -0.9433
 5385TIP3   OH240349   6.975   3.632   7.553  0.1839  0.1702  0.6200
 5385TIP3    H140350   6.921   3.556   7.575  1.2321 -1.1234 -1.0187
 5385TIP3    H240351   7.000   3.618   7.462  2.1207  1.4306  0.8963
 5386TIP3   OH240352   4.128   1.061   9.597  0.0205  0.2170  0.3724
 5386TIP3    H140353   4.158   1.002   9.527 -1.6035 -0.4644  0.1959
 5386TIP3    H240354   4.127   1.147   9.557 -0.4129 -0.0953 -0.3049
 5387TIP3   OH240355   2.864   2.532   9.445  0.2976  0.1998  0.3134
 5387TIP3    H140356   2.771   2.538   9.465  0.2057  0.6064 -0.2243
 5387TIP3    H240357   2.887   2.441   9.465 -0.2331  0.0691  0.3388
 5388TIP3   OH240358   6.181   6.268   9.091  0.0075  0.1185 -0.0312
 5388TIP3    H140359   6.223   6.289   9.174  0.5528  0.2548 -0.3400
 5388TIP3    H240360   6.140   6.183   9.106  0.8902 -0.2954  0.1020
 5389TIP3   OH240361   0.531   6.059   8.350 -0.2056  0.9100 -0.1889
 5389TIP3    H140362   0.538   6.148   8.384 -0.5878  0.2632  1.7217
 5389TIP3    H240363   0.437   6.041   8.349 -0.0985  0.2936  0.1245
 5390TIP3   OH240364   3.833   7.278   6.762 -0.1596 -0.2089  0.3803
 5390TIP3    H140365   3.744   7.303   6.788 -0.5048 -0.1367 -0.8249
 5390TIP3    H240366   3.826   7.186   6.736 -0.2848  0.2736 -1.4083
 5391TIP3   OH240367   0.895   7.237   3.053 -0.4906  0.8058  0.4284
 5391TIP3    H140368   0.985   7.256   3.030  0.3877 -0.7071  2.3386
 5391TIP3    H240369   0.894   7.143   3.075 -2.0264  1.2197  2.4626
 5392TIP3   OH240370   2.099   3.067   1.651 -0.1521 -1.2517  0.1739
 5392TIP3    H140371   2.038   3.065   1.578 -1.4624 -0.2538  1.1722
 5392TIP3    H240372   2.043   3.057   1.729  0.6660  1.5015  1.2425
 5393TIP3   OH240373   3.437   0.865   3.015  0.3346 -0.0621 -0.0909
 5393TIP3    H140374   3.431   0.920   2.937 -2.0185 -1.7747 -1.2250
 5393TIP3    H240375   3.458   0.926   3.085 -0.7671  2.0819 -1.5055
 5394TIP3   OH240376   5.924   0.866   2.443 -0.2608 -0.5065 -0.0979
 5394TIP3    H140377   5.847   0.817   2.412  0.2569 -2.0070  0.8585
 5394TIP3    H240378   5.892   0.916   2.518 -0.8139  0.7153 -1.1264
 5395TIP3   OH240379   0.307   5.419   2.705 -0.0330  0.5023  0.0248
 5395TIP3    H140380   0.400   5.397   2.706 -0.5063 -2.1695 -2.3363
 5395TIP3    H240381   0.299   5.483   2.634 -0.2712 -1.1653 -1.5016
 5396TIP3   OH240382   2.499   1.170   0.946  0.3516 -0.2042  0.1238
 5396TIP3    H140383   2.582   1.133   0.974  0.5826  0.9288  0.9839
 5396TIP3    H240384   2.471   1.114   0.874  2.7231  0.4529 -1.4025
 5397TIP3   OH240385   1.735   6.126   1.167  0.0780 -0.2218 -0.8321
 5397TIP3    H140386   1.804   6.113   1.103  1.0702 -1.3198  0.4075
 5397TIP3    H240387   1.781   6.136   1.251 -1.2432 -0.5907 -0.0232
 5398TIP3   OH240388   4.017   2.555   1.228 -0.3724  0.4027 -0.3234
 5398TIP3    H140389   3.988   2.520   1.143 -1.0135  1.5249 -0.5824
 5398TIP3    H240390   3.940   2.599   1.263  0.8035  2.9395 -0.7432
 5399TIP3   OH240391   1.175   4.720   3.677 -0.0282  0.3724  0.1138
 5399TIP3    H140392   1.099   4.777   3.668 -0.3022 -0.1583 -1.0587
 5399TIP3    H240393   1.152   4.659   3.747 -0.0234  1.2130  0.8709
 5400TIP3   OH240394   6.040   1.219   0.551 -0.1156 -0.0608  0.1765
 5400TIP3    H140395   5.988   1.300   0.552  1.6814  1.1563 -0.4579
 5400TIP3    H240396   5.979   1.152   0.580 -1.3392  1.7203  2.0205
 5401TIP3   OH240397   2.206   6.492   1.384 -0.0151 -0.2061 -0.6162
 5401TIP3    H140398   2.185   6.407   1.424  1.8897 -0.1306  0.7068
 5401TIP3    H240399   2.294   6.479   1.348 -0.5057  0.6465 -2.1558
 5402TIP3   OH240400   0.095   2.334   0.731 -0.1682  0.6507  0.7558
 5402TIP3    H140401   0.004   2.363   0.723  0.1899  1.6436  0.1728
 5402TIP3    H240402   0.091   2.261   0.793 -1.1748  1.5942  1.8495
 5403TIP3   OH240403   0.453   0.943   2.828 -0.0047  0.0079  0.2200
 5403TIP3    H140404   0.390   0.884   2.871  1.7388 -1.7963  0.4449
 5403TIP3    H240405   0.411   0.965   2.744 -1.3641 -0.3098  0.7885
 5404TIP3   OH240406   3.611   3.646   2.040  0.3687 -0.2257  0.3165
 5404TIP3    H140407   3.635   3.725   1.992  1.5760 -2.9660 -4.1819
 5404TIP3    H240408   3.690   3.621   2.086  0.6078  0.1557  0.1151
 5405TIP3   OH240409   0.756   3.487   2.935 -0.3840  0.2960 -0.3498
 5405TIP3    H140410   0.795   3.517   3.017 -0.3201  0.0468 -0.2873
 5405TIP3    H240411   0.761   3.391   2.940 -1.7172  0.2295  0.0050
 5406TIP3   OH240412   2.094   4.729   0.692  0.3911 -0.0149 -1.0755
 5406TIP3    H140413   2.163   4.681   0.738  0.0210  1.4945  1.2508
 5406TIP3    H240414   2.136   4.809   0.662  0.0211  0.2028 -1.0180
 5407TIP3   OH240415   3.156   1.304   0.665  0.2074 -0.0830 -0.1644
 5407TIP3    H140416   3.179   1.282   0.574 -0.3257 -1.3131 -0.0291
 5407TIP3    H240417   3.166   1.221   0.712 -0.4534  0.3191  0.7073
 5408TIP3   OH240418   0.115   1.859   0.949  0.0694 -0.1507 -0.4813
 5408TIP3    H140419   0.036   1.828   0.994  0.4675  0.4419  0.6668
 5408TIP3    H240420   0.187   1.828   1.004  0.5380  1.3732 -0.1833
 5409TIP3   OH240421   2.552   7.407   2.567 -0.0468 -0.0853 -0.8017
 5409TIP3    H140422   2.613   7.480   2.560  0.1041 -0.3307 -2.6637
 5409TIP3    H240423   2.466   7.448   2.576  0.3422  0.2594  1.9993
 5410TIP3   OH240424   6.304   5.900   2.199  0.0710 -0.0595 -0.2178
 5410TIP3    H140425   6.215   5.894   2.233  0.3807  1.9286  1.1210
 5410TIP3    H240426   6.308   5.834   2.130 -1.7248 -1.7591  1.1825
 5411TIP3   OH240427   7.056   6.298   0.551 -0.0618  0.0067 -1.1203
 5411TIP3    H140428   7.060   6.393   0.557 -1.3188  0.0700 -0.8298
 5411TIP3    H240429   7.147   6.269   0.552  0.3120  1.1131  0.5145
 5412TIP3   OH240430   2.892   6.599   1.074 -0.9495 -0.3776  0.0431
 5412TIP3    H140431   2.857   6.684   1.047  0.1213  0.1505  0.2433
 5412TIP3    H240432   2.819   6.539   1.065 -1.1675  0.1321 -2.2478
 5413TIP3   OH240433   3.811   7.617   1.955  0.0072 -0.3396 -0.8834
 5413TIP3    H140434   3.725   7.638   1.992  1.4952 -0.3153  3.0235
 5413TIP3    H240435   3.827   7.526   1.981  1.5327 -0.0319 -0.6235
 5414TIP3   OH240436   6.038   5.825   1.881  0.2088 -0.8801 -0.1457
 5414TIP3    H140437   6.092   5.755   1.844  1.3232 -0.7077  1.1091
 5414TIP3    H240438   6.004   5.871   1.804 -0.1819 -2.5052 -0.9882
 5415TIP3   OH240439   5.821   1.819   1.269 -0.0702  0.1659 -0.3266
 5415TIP3    H140440   5.802   1.845   1.179 -1.7709 -2.2024 -0.7563
 5415TIP3    H240441   5.789   1.891   1.322  0.6086  1.4320 -1.5601
 5416TIP3   OH240442   1.520   5.653   2.752 -0.3363  0.6179  0.1955
 5416TIP3    H140443   1.501   5.601   2.830  1.3739  0.7555  0.7607
 5416TIP3    H240444   1.543   5.588   2.685  0.3016  0.5782  0.4490
 5417TIP3   OH240445   0.907   6.863   1.420 -0.2939  0.2057  0.4760
 5417TIP3    H140446   0.919   6.897   1.332 -1.1780 -1.6422 -0.4194
 5417TIP3    H240447   0.846   6.924   1.462 -0.2564  0.8233 -0.3514
 5418TIP3   OH240448   0.494   7.518   3.268 -0.1147 -0.1052  1.0970
 5418TIP3    H140449   0.519   7.601   3.308  0.8261 -0.2176  0.7526
 5418TIP3    H240450   0.572   7.489   3.221 -1.2623  0.1847 -1.1197
 5419TIP3   OH240451   2.085   1.528   1.405 -0.1138 -0.1705 -0.2134
 5419TIP3    H140452   2.137   1.448   1.395  1.3405  0.7014 -0.0787
 5419TIP3    H240453   2.128   1.575   1.476 -1.6129  0.2480  0.4506
 5420TIP3   OH240454   2.536   1.904   2.082  0.1139  0.2650  0.0056
 5420TIP3    H140455   2.579   1.864   2.007 -0.3929 -2.0372  0.8578
 5420TIP3    H240456   2.606   1.953   2.126  0.8321  0.1343 -0.9576
 5421TIP3   OH240457   6.639   1.004   1.089  0.0899  0.6819  0.2955
 5421TIP3    H140458   6.639   1.040   1.177  1.1661  1.0331  0.1626
 5421TIP3    H240459   6.716   0.947   1.086  0.4590  1.2029 -0.6096
 5422TIP3   OH240460   6.340   1.978   0.665 -0.5193 -0.1357  0.1412
 5422TIP3    H140461   6.251   1.960   0.634 -0.4316  0.9912 -0.8686
 5422TIP3    H240462   6.341   2.073   0.678  0.2150 -0.2828  1.2288
 5423TIP3   OH240463   1.998   3.363   1.534 -0.0009 -0.1268  0.2892
 5423TIP3    H140464   2.091   3.340   1.538  0.2362  0.8275  0.5123
 5423TIP3    H240465   1.955   3.281   1.511  1.1650 -0.0235 -2.6830
 5424TIP3   OH240466   7.438   0.447   1.411  0.1598 -0.0401  0.2415
 5424TIP3    H140467   7.481   0.493   1.340  0.2879 -0.8197 -0.1960
 5424TIP3    H240468   7.456   0.354   1.394 -1.0103 -0.3299  0.4799
 5425TIP3   OH240469   3.502   1.417   1.413 -0.2001 -0.2119 -0.4987
 5425TIP3    H140470   3.428   1.478   1.419 -0.0021 -0.1189  1.4567
 5425TIP3    H240471   3.556   1.453   1.342 -1.5123  0.2632 -1.2951
 5426TIP3   OH240472   4.049   0.052   1.980 -0.0082 -0.3771  0.1231
 5426TIP3    H140473   3.962   0.013   1.970 -0.4988  0.5500  0.5964
 5426TIP3    H240474   4.066   0.096   1.897  1.2298 -2.8131 -1.0224
 5427TIP3   OH240475   5.885   1.993   0.470  0.3620  0.1316 -0.3770
 5427TIP3    H140476   5.812   2.008   0.531  1.8273  0.9183  1.2874
 5427TIP3    H240477   5.893   2.076   0.423  0.1549  0.0302 -0.5908
 5428TIP3   OH240478   0.390   4.912   2.516 -0.0728 -0.3537  0.0405
 5428TIP3    H140479   0.373   4.896   2.424  1.4478  0.5682 -0.4417
 5428TIP3    H240480   0.443   4.993   2.518  3.2286 -2.3188  1.3443
 5429TIP3   OH240481   2.625   6.210   2.844  0.6408 -0.0127  0.2499
 5429TIP3    H140482   2.664   6.145   2.785  0.2028  0.0496 -0.1180
 5429TIP3    H240483   2.681   6.287   2.834 -1.1811  1.0955 -2.5397
 5430TIP3   OH240484   0.479   1.627   1.493  0.7489 -0.9940 -1.0927
 5430TIP3    H140485   0.440   1.597   1.575  0.4082  1.4820 -0.2831
 5430TIP3    H240486   0.564   1.582   1.489  1.0048 -0.7668  0.9112
 5431TIP3   OH240487   7.451   5.866   2.454  0.2855 -0.0923  0.6938
 5431TIP3    H140488   7.439   5.960   2.467 -0.2715  0.0949 -0.8975
 5431TIP3    H240489   7.462   5.831   2.542 -1.4297  1.2103  1.4857
 5432TIP3   OH240490   0.096   0.187   1.746 -0.3093  1.2415  0.3788
 5432TIP3    H140491   0.011   0.207   1.784 -0.9711 -0.2085 -0.2873
 5432TIP3    H240492   0.118   0.100   1.779 -0.2896  0.5076 -1.4336
 5433TIP3   OH240493   0.850   6.367   2.172  0.2967 -0.0463 -0.8158
 5433TIP3    H140494   0.853   6.271   2.167 -1.2860 -0.0875 -1.6277
 5433TIP3    H240495   0.851   6.386   2.266 -0.5502 -0.9435 -0.6066
 5434TIP3   OH240496   7.152   0.732   2.511 -0.4800  0.0183  0.0392
 5434TIP3    H140497   7.058   0.752   2.507 -1.1211 -2.3402  1.2825
 5434TIP3    H240498   7.177   0.757   2.600 -0.1399 -0.2019  0.0020
 5435TIP3   OH240499   1.521   5.160   2.930  0.1702 -0.2511  0.0777
 5435TIP3    H140500   1.581   5.189   2.999 -1.6729  1.3875  1.1211
 5435TIP3    H240501   1.520   5.065   2.936  1.7172 -0.2383  0.8300
 5436TIP3   OH240502   6.117   5.246   2.071  0.0312 -0.1609 -0.0118
 5436TIP3    H140503   6.153   5.334   2.059 -0.7308  0.3999  1.6295
 5436TIP3    H240504   6.127   5.228   2.164 -1.5027 -1.0753  0.0063
 5437TIP3   OH240505   6.989   6.295   2.039  0.5070 -0.1032 -0.2992
 5437TIP3    H140506   6.957   6.210   2.069  2.0816 -1.1440 -1.4525
 5437TIP3    H240507   6.985   6.291   1.944  0.4108  1.2096 -0.3811
 5438TIP3   OH240508   3.439   0.739   1.800 -0.0228 -0.4810  0.4209
 5438TIP3    H140509   3.395   0.671   1.851 -0.5064 -1.3728 -1.1256
 5438TIP3    H240510   3.410   0.725   1.710 -0.6066  2.1564  0.1133
 5439TIP3   OH240511   7.559   7.217   1.065 -0.1094 -0.2998  0.0538
 5439TIP3    H140512   7.499   7.272   1.016 -0.7984 -1.0605  0.0122
 5439TIP3    H240513   7.531   7.226   1.157  0.7316  0.5776  0.2348
 5440TIP3   OH240514   2.090   0.041   1.835  0.0209 -0.3391  0.1166
 5440TIP3    H140515   2.110  -0.043   1.877 -0.9711 -0.2351  0.8228
 5440TIP3    H240516   2.170   0.063   1.787  0.3127 -1.6548 -0.0357
 5441TIP3   OH240517   0.058   4.184   1.414  0.0748  0.2305  0.0814
 5441TIP3    H140518   0.068   4.241   1.338 -0.2738  1.0192  0.6063
 5441TIP3    H240519  -0.033   4.155   1.411 -0.0535  0.5958  0.4223
 5442TIP3   OH240520   4.351   7.601   0.612  0.1882 -0.0981 -0.0421
 5442TIP3    H140521   4.406   7.543   0.559  0.5202  0.6707 -0.5599
 5442TIP3    H240522   4.341   7.555   0.695 -0.2400 -1.2782 -0.7176
 5443TIP3   OH240523   1.778   0.644   0.388 -0.6707 -0.1261 -0.6360
 5443TIP3    H140524   1.716   0.664   0.319 -0.3157 -0.4876 -1.0639
 5443TIP3    H240525   1.837   0.579   0.350 -0.7861 -0.7235  0.1668
 5444TIP3   OH240526   3.905   4.543   0.840  0.0946  0.2560  0.1171
 5444TIP3    H140527   4.000   4.534   0.839  0.3717  1.9315  2.6396
 5444TIP3    H240528   3.885   4.600   0.766  1.5613  2.9151  1.6186
 5445TIP3   OH240529   5.935   1.088   1.571 -0.5040 -0.1177  0.2335
 5445TIP3    H140530   5.856   1.048   1.534 -0.6670 -0.5036  0.9807
 5445TIP3    H240531   5.930   1.180   1.545 -1.3469 -0.0768  0.5031
 5446TIP3   OH240532   0.063   1.096   2.899  0.7985  0.5505 -0.0514
 5446TIP3    H140533   0.088   1.039   2.827 -0.9960 -1.8189  1.0463
 5446TIP3    H240534  -0.032   1.104   2.892  0.5163 -0.0911  2.2321
 5447TIP3   OH240535   3.642   1.403   1.975 -0.0309  0.2625 -0.3087
 5447TIP3    H140536   3.615   1.312   1.989  0.2071  0.4989  2.0013
 5447TIP3    H240537   3.564   1.446   1.940 -0.2197 -0.7369 -1.1865
 5448TIP3   OH240538   1.916   4.384   1.678 -0.1187  0.1381 -0.0596
 5448TIP3    H140539   1.926   4.439   1.599  1.6104 -0.6798 -0.4602
 5448TIP3    H240540   1.955   4.300   1.653 -1.3725 -0.7959  1.0362
 5449TIP3   OH240541   5.476   2.474   0.947  0.2427  0.2076  0.0660
 5449TIP3    H140542   5.383   2.490   0.963 -0.1396 -0.2367 -1.5411
 5449TIP3    H240543   5.494   2.392   0.993 -0.5876 -0.5618 -0.9213
 5450TIP3   OH240544   4.752   3.803   0.981  0.3915  0.3149 -0.3904
 5450TIP3    H140545   4.834   3.779   0.938 -0.5049 -1.9335 -0.9966
 5450TIP3    H240546   4.745   3.743   1.055 -2.8506 -3.0288 -3.0322
 5451TIP3   OH240547   6.934   0.907   2.566  0.0903  0.0403  0.1387
 5451TIP3    H140548   7.023   0.941   2.565  0.2639 -0.3102 -1.9588
 5451TIP3    H240549   6.921   0.874   2.655  1.2627  2.0183  1.1058
 5452TIP3   OH240550   6.613   1.399   1.909 -0.0172  0.1955 -0.1332
 5452TIP3    H140551   6.588   1.400   1.817 -0.5505 -1.3266 -0.0268
 5452TIP3    H240552   6.690   1.342   1.912 -0.0181  0.2156  0.3662
 5453TIP3   OH240553   5.519   3.983   1.455 -0.4549  0.0509 -0.6493
 5453TIP3    H140554   5.474   3.968   1.538  1.0212 -0.7948  0.0366
 5453TIP3    H240555   5.540   3.895   1.423  1.6326  0.3961 -0.3851
 5454TIP3   OH240556   0.246   7.672   1.275  0.0301  0.5376  0.1328
 5454TIP3    H140557   0.162   7.691   1.233 -0.1523  1.3624  0.8325
 5454TIP3    H240558   0.310   7.680   1.205 -0.4863 -0.3063 -0.4545
 5455TIP3   OH240559   1.884   3.116   1.465 -0.2537  0.0674 -0.2439
 5455TIP3    H140560   1.803   3.092   1.512 -1.1168  0.2681 -1.5797
 5455TIP3    H240561   1.879   3.068   1.383  1.6110 -0.8752  0.1314
 5456TIP3   OH240562   0.681   5.730   2.746 -0.2679 -0.2690 -0.3948
 5456TIP3    H140563   0.729   5.647   2.750 -1.7389 -1.1419  0.3902
 5456TIP3    H240564   0.742   5.792   2.707  1.7280 -1.1267  1.1766
 5457TIP3   OH240565   3.224   1.850   3.167 -0.3816 -0.2563 -0.7462
 5457TIP3    H140566   3.279   1.919   3.204 -0.4285  0.4507 -1.9491
 5457TIP3    H240567   3.137   1.891   3.159 -0.6257 -0.7443 -0.6367
 5458TIP3   OH240568   0.060   2.505   1.000 -0.4146  0.3395 -0.0847
 5458TIP3    H140569   0.123   2.550   0.944  1.0530 -0.1569  1.1287
 5458TIP3    H240570   0.101   2.501   1.086 -0.8252 -2.5709  0.0753
 5459TIP3   OH240571   4.246   1.450   2.242  0.3484 -0.4561  0.1472
 5459TIP3    H140572   4.160   1.490   2.229  0.5096  0.8323  2.4659
 5459TIP3    H240573   4.238   1.403   2.326  1.7477 -0.7830  0.1295
 5460TIP3   OH240574   1.829   7.614   1.248  0.0585 -0.3222 -0.7473
 5460TIP3    H140575   1.783   7.597   1.165 -0.0887 -1.0636 -0.5227
 5460TIP3    H240576   1.895   7.545   1.253 -0.1330 -0.4632 -0.1029
 5461TIP3   OH240577   6.920   3.149   2.112  0.2271  0.1619 -0.3912
 5461TIP3    H140578   6.949   3.071   2.066  1.7095  0.1669  0.4419
 5461TIP3    H240579   6.855   3.189   2.055 -0.5453 -1.6477 -0.8390
 5462TIP3   OH240580   2.108   4.142   3.265 -0.4438  0.6307  0.7494
 5462TIP3    H140581   2.085   4.064   3.316  1.8512 -0.0828  0.8033
 5462TIP3    H240582   2.178   4.184   3.315  0.9558  0.6291 -1.1103
 5463TIP3   OH240583   2.072   5.018   1.163  0.4372  0.4228 -0.5512
 5463TIP3    H140584   1.997   4.975   1.122  0.5681 -1.3488  0.8937
 5463TIP3    H240585   2.062   5.111   1.143 -1.8982  0.1706 -0.7529
 5464TIP3   OH240586   5.362   3.350   2.758 -0.5481  0.0622 -0.2320
 5464TIP3    H140587   5.417   3.278   2.789 -0.0625  1.1484  1.6541
 5464TIP3    H240588   5.329   3.321   2.674  0.4911 -1.9018 -0.0285
 5465TIP3   OH240589   0.150   1.008   1.926  0.0827 -0.7391  0.2009
 5465TIP3    H140590   0.109   1.048   1.849  1.5036  0.4426  0.0229
 5465TIP3    H240591   0.076   0.977   1.979 -0.9664 -0.3152 -0.9745
 5466TIP3   OH240592   0.033   3.826   1.788  0.4805 -0.3898 -0.2796
 5466TIP3    H140593   0.025   3.766   1.862 -0.4597  0.3490  0.2379
 5466TIP3    H240594   0.126   3.826   1.767  1.1148  0.8118  2.1327
 5467TIP3   OH240595   6.160   7.248   2.476  0.3528  0.4389 -0.0022
 5467TIP3    H140596   6.175   7.192   2.401  1.6457  0.8030 -0.0365
 5467TIP3    H240597   6.075   7.290   2.459  1.0481  1.2279 -1.7178
 5468TIP3   OH240598   2.228   5.251   1.976 -0.0814 -0.0316 -0.4313
 5468TIP3    H140599   2.211   5.340   2.006  1.0702 -0.0596  0.3835
 5468TIP3    H240600   2.207   5.252   1.882 -1.6439  0.6434 -0.0925
 5469TIP3   OH240601   1.269   2.313   1.739  0.2498 -0.4849  0.5275
 5469TIP3    H140602   1.187   2.274   1.771  0.0886 -0.9212 -0.4050
 5469TIP3    H240603   1.261   2.312   1.644  1.0052  0.2073  0.4462
 5470TIP3   OH240604   0.135   7.494   0.545 -0.2930  0.0384 -0.2338
 5470TIP3    H140605   0.074   7.565   0.525  0.1906  0.7050  0.5894
 5470TIP3    H240606   0.106   7.421   0.490  0.4940  1.5058 -2.7483
 5471TIP3   OH240607   2.623   7.645   1.855  0.0971  0.6052 -0.3014
 5471TIP3    H140608   2.641   7.555   1.883 -0.1508  0.6232 -0.0854
 5471TIP3    H240609   2.624   7.696   1.936 -1.9579  0.4485 -0.1298
 5472TIP3   OH240610   6.575   0.314   0.700  0.0215 -0.1290 -0.1591
 5472TIP3    H140611   6.608   0.324   0.611 -0.1779 -0.0933 -0.2298
 5472TIP3    H240612   6.489   0.273   0.689  0.0637 -0.2696  0.0260
 5473TIP3   OH240613   0.045   6.769   0.528  0.3530 -0.4677  0.1472
 5473TIP3    H140614   0.079   6.734   0.610 -0.7167 -0.5874  0.5551
 5473TIP3    H240615   0.097   6.725   0.460  1.0214 -0.6187  0.7433
 5474TIP3   OH240616   0.084   2.197   1.338 -0.8580 -0.0497  0.2971
 5474TIP3    H140617   0.022   2.225   1.271  0.2101  1.1862 -0.2342
 5474TIP3    H240618   0.170   2.220   1.302 -0.1580 -0.7738  1.4440
 5475TIP3   OH240619   6.040   5.040   2.653 -0.2078  0.7162 -0.2665
 5475TIP3    H140620   6.094   5.033   2.731 -1.5581 -2.1846  0.5388
 5475TIP3    H240621   6.101   5.034   2.580  0.7611 -0.3715  0.5992
 5476TIP3   OH240622   0.882   1.026   2.687  0.0176  1.1129  0.2709
 5476TIP3    H140623   0.845   1.012   2.774 -0.3287  0.6179  0.0499
 5476TIP3    H240624   0.807   1.030   2.628  0.2845  0.0860 -0.1796
 5477TIP3   OH240625   4.261   4.147   3.289  0.5326 -0.2894  0.0958
 5477TIP3    H140626   4.235   4.187   3.206 -0.3816  0.3662  0.6809
 5477TIP3    H240627   4.178   4.132   3.335  1.1125  1.0305  1.6574
 5478TIP3   OH240628   5.720   4.229   1.789 -0.3206  0.4070 -0.2188
 5478TIP3    H140629   5.774   4.306   1.773  0.9768 -0.4234  0.0434
 5478TIP3    H240630   5.632   4.255   1.760  0.0634  2.0024 -0.0283
 5479TIP3   OH240631   7.516   0.861   3.105  0.6490 -0.0305  0.5098
 5479TIP3    H140632   7.500   0.949   3.071 -1.2102 -1.1013 -1.6526
 5479TIP3    H240633   7.611   0.850   3.100  0.8129  1.4969 -0.1120
 5480TIP3   OH240634   3.257   4.840   1.676  0.1771  0.2102 -0.0078
 5480TIP3    H140635   3.190   4.892   1.632 -1.0132 -2.0740 -1.0338
 5480TIP3    H240636   3.235   4.848   1.769 -0.9944  0.2146 -0.2646
 5481TIP3   OH240637   0.380   7.473   2.202  0.2148 -0.4421  0.3400
 5481TIP3    H140638   0.316   7.488   2.132 -0.0063 -1.0414  0.4036
 5481TIP3    H240639   0.336   7.413   2.262 -0.3951  1.6568  2.1082
 5482TIP3   OH240640   6.162   6.407   2.009  0.1803  0.2143 -0.2556
 5482TIP3    H140641   6.074   6.369   2.003  0.6070 -0.6620 -1.5241
 5482TIP3    H240642   6.216   6.336   2.042  0.2995  0.9972  1.3137
 5483TIP3   OH240643   3.788   7.241   1.171 -0.3177 -0.0468 -0.0491
 5483TIP3    H140644   3.729   7.295   1.224  0.4975 -1.1994  2.1629
 5483TIP3    H240645   3.761   7.258   1.081 -4.0034 -0.4715  0.8164
 5484TIP3   OH240646   3.089   2.791   1.286  0.2661  0.4835  0.3621
 5484TIP3    H140647   3.090   2.877   1.327 -2.7394  1.3182 -1.0034
 5484TIP3    H240648   3.179   2.775   1.259  0.9134  3.1371  0.7529
 5485TIP3   OH240649   1.626   2.102   1.165  0.2840 -0.4030 -0.0896
 5485TIP3    H140650   1.662   2.153   1.093 -0.5839  0.6396  0.2011
 5485TIP3    H240651   1.539   2.075   1.136  0.8281 -2.0112 -0.3613
 5486TIP3   OH240652   3.276   4.419   1.084  0.3281  0.0641 -0.0623
 5486TIP3    H140653   3.246   4.359   1.152  0.0737 -0.9141 -1.0066
 5486TIP3    H240654   3.200   4.476   1.068  0.4381  0.3897  0.5653
 5487TIP3   OH240655   0.464   3.850   0.822  0.4002 -0.1906 -0.2061
 5487TIP3    H140656   0.538   3.838   0.763 -0.4199  0.5006 -1.4108
 5487TIP3    H240657   0.504   3.865   0.908  1.6445  0.0507 -0.8078
 5488TIP3   OH240658   4.446   5.849   1.002 -0.0137  0.3541  0.2985
 5488TIP3    H140659   4.421   5.909   0.931 -2.8105 -0.5861  0.3826
 5488TIP3    H240660   4.364   5.810   1.030  1.7216 -5.2930 -1.2224
 5489TIP3   OH240661   6.144   3.191   0.864 -0.2913 -0.2560  0.7878
 5489TIP3    H140662   6.215   3.250   0.838 -0.4215 -1.4242 -2.7907
 5489TIP3    H240663   6.189   3.109   0.887 -0.4037 -0.6427 -0.3494
 5490TIP3   OH240664   1.455   0.082   1.494 -0.7562 -0.7977 -0.1586
 5490TIP3    H140665   1.425   0.162   1.452 -0.0387 -0.4796 -0.0792
 5490TIP3    H240666   1.389   0.016   1.472 -0.3369 -0.6816 -1.8931
 5491TIP3   OH240667   5.409   6.586   1.325  0.0745 -0.0543 -0.0180
 5491TIP3    H140668   5.468   6.646   1.280  0.8041 -1.2072 -0.6576
 5491TIP3    H240669   5.349   6.642   1.373 -1.0138  1.2549 -2.7446
 5492TIP3   OH240670   6.318   1.842   2.244  0.0575  0.3921  0.0591
 5492TIP3    H140671   6.330   1.933   2.271  0.4898  0.3138  0.1242
 5492TIP3    H240672   6.400   1.818   2.202 -0.3031  0.2428 -0.5601
 5493TIP3   OH240673   0.899   7.510   0.484  0.3632 -0.2915  0.0809
 5493TIP3    H140674   0.861   7.502   0.396 -1.6694 -1.0690  0.9949
 5493TIP3    H240675   0.860   7.589   0.520  0.5364 -0.4432  0.6096
 5494TIP3   OH240676   1.174   2.508   3.046 -0.5512  0.1436 -0.0497
 5494TIP3    H140677   1.080   2.497   3.028 -0.2903  0.0430 -1.4413
 5494TIP3    H240678   1.177   2.565   3.123 -1.7590 -0.1413  0.2275
 5495TIP3   OH240679   4.462   3.422   1.688  0.6682  0.3836 -0.1141
 5495TIP3    H140680   4.549   3.436   1.651  0.8839  2.3239  1.0230
 5495TIP3    H240681   4.403   3.429   1.613  1.1802  3.1879 -0.3626
 5496TIP3   OH240682   0.958   3.682   1.091  0.7605  0.1898 -0.1521
 5496TIP3    H140683   0.883   3.711   1.038  0.5738  2.2903  1.1268
 5496TIP3    H240684   0.930   3.599   1.130 -1.2181  1.2232  0.7779
 5497TIP3   OH240685   1.715   2.244   0.930 -0.1919 -0.4370  0.1586
 5497TIP3    H140686   1.764   2.188   0.870  0.4988  0.0384  0.2668
 5497TIP3    H240687   1.623   2.224   0.912  0.0306 -2.3294  0.8803
 5498TIP3   OH240688   5.792   1.691   0.515 -0.4261 -0.0240  0.1698
 5498TIP3    H140689   5.792   1.787   0.514 -2.6332  0.0428  1.7942
 5498TIP3    H240690   5.703   1.667   0.490  0.2099 -1.7033 -0.6035
 5499TIP3   OH240691   6.194   7.286   0.966 -0.3718  0.1661  0.0719
 5499TIP3    H140692   6.170   7.355   1.028  0.6709  0.3224  0.3294
 5499TIP3    H240693   6.289   7.297   0.954 -0.5522  0.1313 -1.5606
 5500TIP3   OH240694   2.577   7.426   0.579  0.7259 -0.0967  0.0337
 5500TIP3    H140695   2.518   7.492   0.615 -0.5386 -1.0033 -0.2991
 5500TIP3    H240696   2.525   7.382   0.512  0.7297 -2.8396  1.6683
 5501TIP3   OH240697   5.956   2.666   1.802  0.0830  0.4140  0.2799
 5501TIP3    H140698   6.010   2.588   1.792  2.6159  1.8360  1.6388
 5501TIP3    H240699   5.956   2.683   1.896 -2.9872  0.4295  0.3615
 5502TIP3   OH240700   0.041   3.758   0.842  0.1358  0.2772 -0.2725
 5502TIP3    H140701  -0.005   3.796   0.767 -1.5990 -2.2177 -0.6091
 5502TIP3    H240702   0.099   3.692   0.804  1.7645  1.2539  0.4076
 5503TIP3   OH240703   1.434   1.369   0.424  0.2486 -0.0257 -0.2033
 5503TIP3    H140704   1.449   1.464   0.426  0.5970  0.0121  3.7957
 5503TIP3    H240705   1.340   1.360   0.439  0.3978 -0.2374  0.7104
 5504TIP3   OH240706   6.012   3.686   1.391  0.4652 -0.1196  0.7556
 5504TIP3    H140707   6.090   3.648   1.352  0.6727 -0.8718  1.8755
 5504TIP3    H240708   6.011   3.776   1.357  1.8435 -0.0733  0.7592
 5505TIP3   OH240709   2.273   0.232   2.298  0.3814 -0.3448 -0.3450
 5505TIP3    H140710   2.232   0.270   2.376 -0.0585 -0.2931 -0.5964
 5505TIP3    H240711   2.315   0.152   2.330 -0.5675 -0.8053 -0.2150
 5506TIP3   OH240712   2.748   4.572   1.684 -0.7384 -0.2870 -0.5542
 5506TIP3    H140713   2.842   4.591   1.686 -0.6238 -0.4975 -2.1371
 5506TIP3    H240714   2.709   4.634   1.746  0.3145  0.7350 -0.8730
 5507TIP3   OH240715   2.559   6.809   2.675 -0.1110  0.6614  0.0153
 5507TIP3    H140716   2.511   6.891   2.685  0.3160  1.0172 -0.7745
 5507TIP3    H240717   2.492   6.746   2.647  0.0473  1.4090 -2.1684
 5508TIP3   OH240718   0.200   7.438   1.424  0.3993 -0.6354 -0.3821
 5508TIP3    H140719   0.225   7.525   1.393 -0.7106  0.8634  2.5557
 5508TIP3    H240720   0.277   7.408   1.473 -0.1873 -0.0448  0.9369
 5509TIP3   OH240721   7.570   3.382   2.710 -0.3165 -0.0053 -0.2913
 5509TIP3    H140722   7.583   3.381   2.805  0.5917  0.9136 -0.3935
 5509TIP3    H240723   7.656   3.357   2.674 -0.5966 -0.1407 -0.8736
 5510TIP3   OH240724   1.231   2.424   2.282  0.3924  0.4055  0.1754
 5510TIP3    H140725   1.316   2.388   2.257 -0.3563 -1.6322  0.3706
 5510TIP3    H240726   1.245   2.458   2.370  1.1693  0.7409 -0.0646
 5511TIP3   OH240727   7.114   6.595   0.545 -0.1018 -0.4478 -0.5352
 5511TIP3    H140728   7.091   6.657   0.475 -1.7963  0.8973  1.1346
 5511TIP3    H240729   7.164   6.647   0.608 -2.0076 -0.5555  1.1589
 5512TIP3   OH240730   0.346   2.028   1.274  0.3925  0.5728  0.0461
 5512TIP3    H140731   0.347   2.074   1.190 -0.7628 -0.2689 -0.4505
 5512TIP3    H240732   0.334   1.936   1.250  1.2618  0.1808  1.0855
 5513TIP3   OH240733   3.737   0.983   1.220  0.0183  0.1413 -0.3176
 5513TIP3    H140734   3.693   0.922   1.280 -0.8199 -0.4563 -1.5082
 5513TIP3    H240735   3.706   1.069   1.247  1.2643  0.1197  1.4258
 5514TIP3   OH240736   6.124   4.505   1.960 -0.3232  0.2915  0.1173
 5514TIP3    H140737   6.077   4.587   1.976 -0.0803  0.7453 -1.3923
 5514TIP3    H240738   6.122   4.460   2.045 -2.5079  0.7839  0.3808
 5515TIP3   OH240739   7.202   3.011   1.003  0.4992  0.2051  0.1778
 5515TIP3    H140740   7.194   3.095   1.049 -2.3891 -0.1053  0.4505
 5515TIP3    H240741   7.296   2.997   0.994  1.0875  2.7010  1.5196
 5516TIP3   OH240742   2.042   4.431   2.526  0.9742  0.3872  0.2806
 5516TIP3    H140743   1.949   4.417   2.511  1.3813 -0.1170 -2.2238
 5516TIP3    H240744   2.052   4.527   2.524  0.3163  0.5207  2.1956
 5517TIP3   OH240745   3.411   3.397   9.444 -0.3869 -0.0243  0.3908
 5517TIP3    H140746   3.345   3.463   9.462 -0.9854  0.4532 -2.9520
 5517TIP3    H240747   3.484   3.446   9.407  1.9505 -0.5639  3.7723
 5518TIP3   OH240748   1.821   3.091   1.161  0.2137  0.1187  0.1043
 5518TIP3    H140749   1.759   3.018   1.167 -0.1193  0.3684 -0.2041
 5518TIP3    H240750   1.854   3.088   1.072  2.8809 -1.7745  1.0429
 5519TIP3   OH240751   6.101   6.985   0.439 -0.8342 -0.4423  0.0531
 5519TIP3    H140752   6.107   6.922   0.366 -0.3185  0.2085 -0.4789
 5519TIP3    H240753   6.192   7.003   0.462 -0.9087  1.3213 -0.8695
 5520TIP3   OH240754   2.067   0.658   0.499 -0.9977 -0.1261  0.0009
 5520TIP3    H140755   2.084   0.581   0.553 -0.9082 -2.0025 -2.5265
 5520TIP3    H240756   1.971   0.668   0.501 -1.0927 -0.8683 -0.3065
 5521TIP3   OH240757   4.749   4.753   2.814 -0.2115 -0.1588 -0.2706
 5521TIP3    H140758   4.661   4.736   2.849  0.2025  2.2285  2.2911
 5521TIP3    H240759   4.733   4.809   2.738 -0.9378  1.9781  1.3638
 5522TIP3   OH240760   2.655   3.730   2.413 -0.2853 -0.2888 -0.0203
 5522TIP3    H140761   2.676   3.689   2.329  0.9187 -1.5350  0.8479
 5522TIP3    H240762   2.560   3.734   2.415 -0.4584 -2.7300 -0.3303
 5523TIP3   OH240763   1.457   1.060   0.445 -0.4933 -0.2393  0.0270
 5523TIP3    H140764   1.379   1.011   0.420 -0.1797 -1.1257  0.7198
 5523TIP3    H240765   1.443   1.148   0.410 -1.5140 -0.5591 -0.3916
 5524TIP3   OH240766   0.145   3.444   1.480 -0.4521 -0.4029  0.1297
 5524TIP3    H140767   0.067   3.466   1.531 -0.5712 -1.2445  0.3117
 5524TIP3    H240768   0.213   3.430   1.546  0.2051  1.5739 -0.0603
 5525TIP3   OH240769   2.121   6.387   0.764 -0.0668 -0.1286 -0.5562
 5525TIP3    H140770   2.057   6.448   0.800 -0.2655 -0.1631 -0.8511
 5525TIP3    H240771   2.070   6.310   0.738  0.4244 -1.4404  1.9383
 5526TIP3   OH240772   6.293   3.878   3.148  0.3019 -0.3037 -0.3216
 5526TIP3    H140773   6.279   3.797   3.099 -1.0167 -0.2511 -0.0601
 5526TIP3    H240774   6.375   3.864   3.195  0.6014 -1.0883 -1.0579
 5527TIP3   OH240775   1.134   1.138   2.217 -0.5059  0.2528 -0.1341
 5527TIP3    H140776   1.083   1.205   2.172 -0.3429 -0.1190 -0.8900
 5527TIP3    H240777   1.215   1.183   2.243 -0.8607  0.6262  0.3368
 5528TIP3   OH240778   5.514   0.926   2.589  0.2368 -0.3474 -0.1150
 5528TIP3    H140779   5.514   1.012   2.631 -0.0440 -0.5274  0.2587
 5528TIP3    H240780   5.430   0.922   2.542 -0.1756 -0.7845  0.6388
 5529TIP3   OH240781   1.751   7.398   7.864 -0.3001  0.2518  0.1179
 5529TIP3    H140782   1.771   7.429   7.952 -0.7138  0.2772  0.2081
 5529TIP3    H240783   1.735   7.304   7.875 -2.1584  0.5656  0.4000
 5530TIP3   OH240784   4.573   3.836   2.227 -0.2389  0.5505 -0.1806
 5530TIP3    H140785   4.593   3.747   2.197  0.3666  0.3264  0.8262
 5530TIP3    H240786   4.480   3.847   2.212 -0.2433 -0.1183 -0.6708
 5531TIP3   OH240787   6.480   1.323   1.269 -0.7096 -0.0540 -0.0348
 5531TIP3    H140788   6.517   1.383   1.333 -0.1312  0.3644 -0.7481
 5531TIP3    H240789   6.535   1.245   1.274 -1.7090 -0.7169  1.1847
 5532TIP3   OH240790   5.369   7.591   0.984  0.9062  0.6600  0.0874
 5532TIP3    H140791   5.291   7.589   1.040  0.5398  0.7520 -0.4155
 5532TIP3    H240792   5.432   7.536   1.030 -0.2384 -1.4006 -0.6256
 5533TIP3   OH240793   6.608   6.362   1.983 -0.0727 -0.3765 -0.1018
 5533TIP3    H140794   6.624   6.287   1.926  0.9187  0.1250 -0.5102
 5533TIP3    H240795   6.654   6.340   2.065  0.1132 -0.2759 -0.1778
 5534TIP3   OH240796   0.359   6.358   0.984  0.2921  0.3210  0.2656
 5534TIP3    H140797   0.306   6.436   0.968  0.6259  0.2802 -1.1885
 5534TIP3    H240798   0.448   6.385   0.965  0.6832  0.0882  1.6398
 5535TIP3   OH240799   6.069   1.300   1.999 -0.1266 -0.6864  0.2178
 5535TIP3    H140800   6.114   1.291   1.915  0.0825 -0.8034  0.3408
 5535TIP3    H240801   6.016   1.379   1.991  0.3231 -0.3902  0.1739
 5536TIP3   OH240802   6.561   1.813   2.457  0.0203 -0.3083 -0.0476
 5536TIP3    H140803   6.499   1.758   2.504  0.6386  0.1069  1.2882
 5536TIP3    H240804   6.520   1.900   2.455 -0.4547 -0.5357 -1.1890
 5537TIP3   OH240805   6.987   2.397   1.900  0.3043 -0.0671  0.7496
 5537TIP3    H140806   7.056   2.333   1.919  0.7771  0.1142 -0.2602
 5537TIP3    H240807   6.950   2.418   1.985 -0.1694 -2.0211  1.0884
 5538TIP3   OH240808   7.546   4.868   1.604  0.2267 -0.8094  0.1622
 5538TIP3    H140809   7.514   4.902   1.521 -1.4951 -0.7075  0.8304
 5538TIP3    H240810   7.620   4.812   1.580  1.8029  1.6312 -1.1630
 5539TIP3   OH240811   7.127   1.345   0.721 -0.0021 -0.9853  0.2486
 5539TIP3    H140812   7.052   1.403   0.710 -1.4405 -2.8559 -0.4036
 5539TIP3    H240813   7.200   1.392   0.682 -0.7299  1.0470  1.2210
 5540TIP3   OH240814   3.053   7.354   1.003  0.0618 -0.0468 -0.0628
 5540TIP3    H140815   3.112   7.320   1.070 -0.3258 -0.0423  0.2816
 5540TIP3    H240816   3.102   7.344   0.921  0.2433 -0.7507  0.1215
 5541TIP3   OH240817   4.160   6.601   1.022 -0.0305  0.2413  0.1080
 5541TIP3    H140818   4.071   6.624   1.048 -0.1646 -0.8453  0.6362
 5541TIP3    H240819   4.150   6.558   0.937  0.1619  1.4890 -0.5783
 5542TIP3   OH240820   5.782   4.909   2.266 -0.3618 -0.1138 -0.5090
 5542TIP3    H140821   5.747   4.908   2.177  0.8095  0.7093 -1.0013
 5542TIP3    H240822   5.876   4.921   2.255  0.0492 -1.7229  0.7927
 5543TIP3   OH240823   7.555   2.668   0.863  0.2310 -0.4986 -0.5408
 5543TIP3    H140824   7.636   2.690   0.816 -0.0562  0.5413 -0.5830
 5543TIP3    H240825   7.582   2.606   0.930  1.3930  1.0839  0.5266
 5544TIP3   OH240826   1.267   1.743   2.537 -0.3251  0.2031 -0.0183
 5544TIP3    H140827   1.288   1.651   2.519 -0.6717 -0.5140  2.7572
 5544TIP3    H240828   1.194   1.739   2.600 -0.3047  2.3777  0.2177
 5545TIP3   OH240829   6.163   3.011   1.778  0.1698  0.2242 -0.2513
 5545TIP3    H140830   6.189   2.934   1.728  1.4466 -1.5759  2.9366
 5545TIP3    H240831   6.068   3.017   1.764 -0.3987 -3.3087  1.0524
 5546TIP3   OH240832   5.400   2.295   1.268 -0.3669  0.1071 -0.1439
 5546TIP3    H140833   5.483   2.320   1.309 -0.7845  0.5269  0.4651
 5546TIP3    H240834   5.333   2.324   1.330 -0.9516 -0.7055 -0.3766
 5547TIP3   OH240835   7.352   4.127   2.595 -0.5469  0.0912  0.2727
 5547TIP3    H140836   7.371   4.033   2.595  0.9935  0.3789  0.1182
 5547TIP3    H240837   7.275   4.136   2.539 -1.8171 -1.2689  1.7206
 5548TIP3   OH240838   4.525   7.325   2.916 -0.7438 -0.0458  0.0335
 5548TIP3    H140839   4.507   7.387   2.987  0.7434 -0.0571  0.4526
 5548TIP3    H240840   4.489   7.367   2.838 -0.5335  0.9494  0.4548
 5549TIP3   OH240841   1.888   1.439   1.777 -0.8773 -0.7280  0.6424
 5549TIP3    H140842   1.862   1.395   1.696 -0.5967  0.3002 -0.0283
 5549TIP3    H240843   1.983   1.427   1.781 -0.8529 -0.5259  0.6677
 5550TIP3   OH240844   0.625   2.316   1.485 -0.4969  0.5003 -0.0216
 5550TIP3    H140845   0.608   2.222   1.489  0.3336  0.3322 -0.1133
 5550TIP3    H240846   0.638   2.342   1.577  0.5911  0.2513 -0.0925
 5551TIP3   OH240847   3.713   3.615   1.379 -0.1706  0.1737 -0.2754
 5551TIP3    H140848   3.749   3.603   1.467  1.7071  0.5823 -0.9463
 5551TIP3    H240849   3.708   3.710   1.367  0.6668  0.1390 -1.0061
 5552TIP3   OH240850   6.928   0.813   1.430  0.2800  0.2971 -0.5970
 5552TIP3    H140851   6.882   0.730   1.436 -4.7120  2.7961  0.5742
 5552TIP3    H240852   6.935   0.842   1.521 -1.9887  2.9161 -1.1590
 5553TIP3   OH240853   5.463   1.516   0.721  0.6820  0.0181 -0.0816
 5553TIP3    H140854   5.443   1.476   0.805 -0.3695  0.1620 -0.2428
 5553TIP3    H240855   5.384   1.566   0.700  1.3109  0.7867 -0.6847
 5554TIP3   OH240856   7.419   1.585   2.314  0.1403 -0.1679  0.6297
 5554TIP3    H140857   7.490   1.541   2.267  0.3028 -0.3319  1.0254
 5554TIP3    H240858   7.459   1.666   2.346 -0.5388  1.0103 -1.3403
 5555TIP3   OH240859   1.513   0.721   2.273 -0.5119  0.4013  0.0625
 5555TIP3    H140860   1.449   0.791   2.283 -1.1373 -0.3800  2.0645
 5555TIP3    H240861   1.462   0.641   2.279  0.4759 -0.2301  0.3853
 5556TIP3   OH240862   7.379   1.384   0.964  0.0674  0.4363  0.1992
 5556TIP3    H140863   7.449   1.448   0.978  1.2338 -0.7628  0.0563
 5556TIP3    H240864   7.302   1.424   1.002  0.7622  1.9319  0.1067
 5557TIP3   OH240865   0.487   4.252   1.412  0.3543 -0.1649  0.0755
 5557TIP3    H140866   0.417   4.190   1.434  0.9851 -1.4172 -1.2341
 5557TIP3    H240867   0.493   4.310   1.488 -1.1306 -0.9172  0.8096
 5558TIP3   OH240868   7.264   6.289   2.123  0.1009 -0.0720  0.3203
 5558TIP3    H140869   7.343   6.280   2.069  0.2912  0.4221  0.5088
 5558TIP3    H240870   7.194   6.301   2.060  0.2249 -0.1726  0.1609
 5559TIP3   OH240871   7.404   2.915   1.294 -0.0484  0.2119  0.1452
 5559TIP3    H140872   7.442   2.864   1.222 -2.2549  0.9970 -1.6865
 5559TIP3    H240873   7.369   2.993   1.252  1.3650  2.3210  2.5957
 5560TIP3   OH240874   3.178   6.185   1.374 -0.2317  0.3622  0.1890
 5560TIP3    H140875   3.221   6.155   1.294  1.1598 -1.2323  1.4647
 5560TIP3    H240876   3.089   6.152   1.367 -0.0455  0.0023 -0.5734
 5561TIP3   OH240877   5.876   5.663   3.276  0.8479  0.1263  0.4065
 5561TIP3    H140878   5.931   5.608   3.221  0.1696  0.6183 -0.8054
 5561TIP3    H240879   5.888   5.751   3.241  1.1970  0.6162  1.7261
 5562TIP3   OH240880   0.785   5.626   3.053 -0.0678  0.0867 -0.2465
 5562TIP3    H140881   0.697   5.616   3.091 -0.4193  0.0740 -1.0500
 5562TIP3    H240882   0.825   5.540   3.062 -0.6095 -0.2550 -1.0237
 5563TIP3   OH240883   0.063   2.749   0.684 -0.4242  0.1617  0.5284
 5563TIP3    H140884   0.132   2.683   0.690 -0.5269  0.0389  0.3458
 5563TIP3    H240885   0.108   2.832   0.701 -0.3593  0.0106  1.1281
 5564TIP3   OH240886   4.569   2.118   1.675 -0.4595  0.2709  0.4286
 5564TIP3    H140887   4.609   2.032   1.687 -0.5333  0.3668  1.4854
 5564TIP3    H240888   4.642   2.177   1.659 -0.2252  0.3099  1.5544
 5565TIP3   OH240889   5.176   0.456   2.702 -0.2538  0.4429  0.0179
 5565TIP3    H140890   5.253   0.406   2.675  0.4877  2.0310 -0.9787
 5565TIP3    H240891   5.151   0.419   2.786 -0.5482 -2.4266 -1.2172
 5566TIP3   OH240892   4.945   2.721   0.688  0.2499 -0.3040 -0.8143
 5566TIP3    H140893   4.930   2.815   0.685 -1.1558 -0.3127  2.0914
 5566TIP3    H240894   4.861   2.682   0.664  0.2691 -0.7629 -0.1737
 5567TIP3   OH240895   6.292   2.113   2.293  0.4853 -0.0441 -0.3139
 5567TIP3    H140896   6.206   2.144   2.321  0.1706 -1.4497  0.3676
 5567TIP3    H240897   6.350   2.131   2.367 -0.1679 -2.9659  1.0843
 5568TIP3   OH240898   7.104   7.662   1.528  0.5907 -0.3870  0.3113
 5568TIP3    H140899   7.104   7.758   1.531  0.0108 -0.3826  0.2012
 5568TIP3    H240900   7.169   7.636   1.594  1.9421  0.1101 -0.7714
 5569TIP3   OH240901   3.080   3.831   0.832  0.4763  0.6715 -0.2774
 5569TIP3    H140902   3.001   3.882   0.817  0.8653  1.1042 -0.9294
 5569TIP3    H240903   3.061   3.779   0.910 -0.0976  1.4697  0.1259
 5570TIP3   OH240904   5.006   2.990   2.141 -0.0963 -0.4895 -0.3553
 5570TIP3    H140905   5.032   2.924   2.076 -0.6901 -0.9915 -0.0894
 5570TIP3    H240906   5.075   3.057   2.136 -0.2368 -0.4194 -1.6486
 5571TIP3   OH240907   1.460   5.703   0.725 -0.0178  0.6618 -0.5876
 5571TIP3    H140908   1.535   5.653   0.692 -0.3448  0.0264 -0.3741
 5571TIP3    H240909   1.410   5.726   0.647 -1.0247 -1.2113 -0.5449
 5572TIP3   OH240910   4.516   1.012   1.206  0.1190 -0.1103  0.3436
 5572TIP3    H140911   4.484   0.953   1.275 -0.3088 -2.7058 -1.8773
 5572TIP3    H240912   4.437   1.042   1.162  0.3419  2.1836  1.3380
 5573TIP3   OH240913   4.169   5.697   0.995  0.3429 -0.2065 -0.5366
 5573TIP3    H140914   4.095   5.754   0.971 -0.1997 -0.7594 -0.1974
 5573TIP3    H240915   4.167   5.695   1.091  1.2750  0.3889 -0.4926
 5574TIP3   OH240916   2.847   0.976   0.844  0.5785  0.8671 -0.3945
 5574TIP3    H140917   2.871   1.063   0.874 -0.5486  1.3200 -0.7451
 5574TIP3    H240918   2.785   0.944   0.910  0.2178  0.7507 -0.7787
 5575TIP3   OH240919   1.177   4.786   1.711  0.8318 -0.6243  0.0073
 5575TIP3    H140920   1.241   4.739   1.765  0.0327 -1.5657  0.1537
 5575TIP3    H240921   1.215   4.787   1.623  1.3648 -0.5509  0.2322
 5576TIP3   OH240922   1.522   4.496   1.382 -0.1347 -0.5806 -0.1108
 5576TIP3    H140923   1.469   4.428   1.423 -0.6531 -0.2405 -0.2084
 5576TIP3    H240924   1.612   4.462   1.385 -0.5604 -1.9206 -1.4747
 5577TIP3   OH240925   1.625   5.514   1.018  0.3157  0.7196 -0.0203
 5577TIP3    H140926   1.536   5.551   1.013  0.6759  1.4201 -2.3481
 5577TIP3    H240927   1.623   5.439   0.960  1.3670  1.0213 -0.4686
 5578TIP3   OH240928   1.791   2.949   1.856  0.4998 -0.3275 -0.5022
 5578TIP3    H140929   1.835   3.012   1.913 -0.7841 -0.2012  0.3905
 5578TIP3    H240930   1.796   2.866   1.904  0.6616 -0.5334 -0.8710
 5579TIP3   OH240931   0.977   4.963   0.782 -0.0651  0.2489 -0.0918
 5579TIP3    H140932   0.974   4.949   0.687  0.6487 -1.5894  0.1170
 5579TIP3    H240933   1.052   5.020   0.796  0.5289 -0.4048 -0.5560
 5580TIP3   OH240934   1.207   4.439   1.167  0.5420 -0.4388  0.1309
 5580TIP3    H140935   1.115   4.411   1.172  0.4274  0.0679  2.8809
 5580TIP3    H240936   1.230   4.457   1.258  2.6871  1.7162 -0.7461
 5581TIP3   OH240937   7.278   0.270   1.725 -0.0725 -0.2589 -0.6239
 5581TIP3    H140938   7.226   0.222   1.661  0.1397 -1.6882  0.2246
 5581TIP3    H240939   7.251   0.361   1.715 -2.2936 -0.8737 -0.6017
 5582TIP3   OH240940   1.224   6.043   3.244 -0.0692 -0.2200  0.4025
 5582TIP3    H140941   1.164   5.969   3.252 -0.9040  0.5427  1.4722
 5582TIP3    H240942   1.271   6.045   3.328 -0.2845  0.6557  0.5102
 5583TIP3   OH240943   6.663   5.782   2.961  0.2572  0.2476  0.4788
 5583TIP3    H140944   6.691   5.713   3.021  0.0720  0.5688  0.9404
 5583TIP3    H240945   6.743   5.832   2.944  0.1367  0.7251  1.2213
 5584TIP3   OH240946   1.939   5.376   1.554  0.4506  0.7228 -0.2339
 5584TIP3    H140947   1.914   5.328   1.475 -0.3299  2.1730 -0.9079
 5584TIP3    H240948   1.873   5.445   1.563  0.2607  0.3302  1.9611
 5585TIP3   OH240949   4.825   5.455   0.899 -1.1411  0.6359  0.4454
 5585TIP3    H140950   4.734   5.484   0.895 -1.9202 -1.7261 -1.9902
 5585TIP3    H240951   4.875   5.524   0.856 -2.4545  0.0902 -2.1673
 5586TIP3   OH240952   4.833   4.845   2.340 -0.0653 -0.1372 -0.0214
 5586TIP3    H140953   4.859   4.834   2.432 -1.1228  2.3135  0.6719
 5586TIP3    H240954   4.742   4.814   2.338 -0.4392  0.8913  0.0944
 5587TIP3   OH240955   4.640   0.187   0.804 -0.0340  0.1872  0.3181
 5587TIP3    H140956   4.719   0.218   0.849  0.4980 -1.2045  0.3727
 5587TIP3    H240957   4.568   0.233   0.847  0.7028  1.2443  0.4702
 5588TIP3   OH240958   0.958   4.174   3.224  0.6541 -0.9579 -0.0734
 5588TIP3    H140959   0.899   4.204   3.293  2.2128  1.9286  0.1889
 5588TIP3    H240960   0.902   4.161   3.148 -0.5786 -0.1367  0.6611
 5589TIP3   OH240961   1.734   4.443   0.949  0.4148 -0.7411  0.0602
 5589TIP3    H140962   1.668   4.414   1.013  0.5725 -0.2018  0.4821
 5589TIP3    H240963   1.813   4.457   1.001  1.0726 -2.0658 -0.5627
 5590TIP3   OH240964   6.682   4.590   3.116 -0.3682 -0.0520  0.4559
 5590TIP3    H140965   6.609   4.541   3.079 -0.4607  0.3632  0.0887
 5590TIP3    H240966   6.710   4.538   3.191 -1.1915 -0.0975  0.7400
 5591TIP3   OH240967   2.253   4.646   2.916  0.1430  0.0951 -0.2325
 5591TIP3    H140968   2.282   4.592   2.989  0.2304  1.3354  0.6856
 5591TIP3    H240969   2.314   4.720   2.914 -1.1642  1.2229 -0.1336
 5592TIP3   OH240970   1.662   1.047   1.825  0.1956  0.2477 -0.3444
 5592TIP3    H140971   1.603   1.016   1.894  0.0781  1.1716 -0.0251
 5592TIP3    H240972   1.685   1.136   1.851 -0.9587  1.1333 -2.2115
 5593TIP3   OH240973   4.799   0.400   2.914  0.0139  0.2577  0.0190
 5593TIP3    H140974   4.839   0.313   2.918  0.3133  0.4140  0.6843
 5593TIP3    H240975   4.827   0.442   2.996 -1.1689  0.5283  0.3008
 5594TIP3   OH240976   1.800   3.586   1.972  0.0349  0.0589 -0.4309
 5594TIP3    H140977   1.894   3.606   1.968  0.1376 -0.5522 -2.8231
 5594TIP3    H240978   1.758   3.672   1.981  0.7957  0.2409  2.1975
 5595TIP3   OH240979   6.290   6.376   1.640  0.2902  0.1931 -0.8217
 5595TIP3    H140980   6.326   6.406   1.724  0.4467 -0.0831 -0.7901
 5595TIP3    H240981   6.256   6.456   1.599 -1.5740  0.0561  0.3580
 5596TIP3   OH240982   7.360   0.187   3.091  0.3786  0.3450 -0.3814
 5596TIP3    H140983   7.424   0.179   3.020 -0.4965 -1.2993 -1.0644
 5596TIP3    H240984   7.391   0.126   3.158 -0.2830 -0.2494 -0.5971
 5597TIP3   OH240985   4.307   5.268   3.074 -0.0871  0.4326  0.4035
 5597TIP3    H140986   4.355   5.341   3.113  0.4497 -0.1629  0.8591
 5597TIP3    H240987   4.299   5.203   3.144 -1.1288  0.3081  0.1941
 5598TIP3   OH240988   0.424   1.868   0.544  0.0315  0.1712  0.5052
 5598TIP3    H140989   0.452   1.927   0.474  0.6448  0.1806  0.7488
 5598TIP3    H240990   0.328   1.865   0.537 -0.0536  1.6736  0.8818
 5599TIP3   OH240991   7.162   2.115   0.820  0.4356 -0.8786  0.2078
 5599TIP3    H140992   7.149   2.037   0.874  1.0567 -1.2212 -0.1317
 5599TIP3    H240993   7.145   2.085   0.731  0.4222 -0.5632  0.1029
 5600TIP3   OH240994   3.617   1.575   1.655 -0.1961 -0.1908 -0.0511
 5600TIP3    H140995   3.585   1.525   1.580 -1.7917  0.3600  0.2144
 5600TIP3    H240996   3.567   1.540   1.729  2.1092 -1.4735  0.9943
 5601TIP3   OH240997   0.434   5.643   0.775 -0.4953  0.5827  0.2945
 5601TIP3    H140998   0.417   5.735   0.755 -2.0098  0.5914  1.4799
 5601TIP3    H240999   0.349   5.607   0.797  0.5117 -0.1885  3.4830
 5602TIP3   OH241000   1.213   6.977   1.190 -0.1536  0.1279  0.3915
 5602TIP3    H141001   1.118   6.979   1.200 -0.1813  0.6907  0.0643
 5602TIP3    H241002   1.247   7.022   1.267 -0.0856 -1.2612  1.1986
 5603TIP3   OH241003   5.907   4.867   0.731 -0.5880 -0.1431  0.5107
 5603TIP3    H141004   5.919   4.869   0.826 -0.3013 -1.4353  0.5110
 5603TIP3    H241005   5.873   4.954   0.710 -0.1705  0.3358  1.7259
 5604TIP3   OH241006   6.259   7.445   2.196 -0.4617 -0.0614  0.0133
 5604TIP3    H141007   6.342   7.485   2.221 -0.5248 -0.6653  1.2953
 5604TIP3    H241008   6.197   7.518   2.189  0.0778  0.3476 -0.5626
 5605TIP3   OH241009   5.325   5.368   2.066  0.0917 -0.2188  0.2258
 5605TIP3    H141010   5.290   5.317   2.139 -1.2887  0.7708  0.3054
 5605TIP3    H241011   5.415   5.388   2.090 -0.3572  0.1440  1.7060
 5606TIP3   OH241012   1.849   3.145   2.774 -0.4479 -0.0966  0.1696
 5606TIP3    H141013   1.772   3.170   2.825 -0.4981 -0.5981  0.3466
 5606TIP3    H241014   1.904   3.097   2.836 -0.3032 -0.3260 -0.1367
 5607TIP3   OH241015   3.031   7.654   2.550 -0.3034  0.5172  0.2338
 5607TIP3    H141016   3.113   7.690   2.585  0.7221  0.0908 -1.6115
 5607TIP3    H241017   3.027   7.565   2.586 -0.6379  0.9659  1.3492
 5608TIP3   OH241018   5.731   6.131   2.069  0.5175 -0.3562 -0.1919
 5608TIP3    H141019   5.708   6.174   2.151  2.2535  0.7664 -0.2414
 5608TIP3    H241020   5.674   6.171   2.003  0.4661  0.1514  0.1590
 5609TIP3   OH241021   7.608   1.037   0.511 -0.5549 -0.0985 -0.5287
 5609TIP3    H141022   7.528   0.996   0.541 -0.0187  0.3534  1.7570
 5609TIP3    H241023   7.650   0.972   0.455 -2.3888 -0.4065 -1.5899
 5610TIP3   OH241024   2.407   3.845   2.177 -0.2795 -0.1088 -0.1501
 5610TIP3    H141025   2.372   3.854   2.266  1.4198 -0.7026  0.6292
 5610TIP3    H241026   2.357   3.908   2.125  0.1106  1.8077  1.6638
 5611TIP3   OH241027   2.139   6.207   1.046 -0.1373 -0.6255  0.1939
 5611TIP3    H141028   2.114   6.232   0.957 -1.2867  0.4532  0.7884
 5611TIP3    H241029   2.087   6.264   1.102  1.3392 -0.5670  1.5568
 5612TIP3   OH241030   6.282   0.233   0.690  0.4113 -0.0137  0.2843
 5612TIP3    H141031   6.300   0.270   0.776  1.4565 -0.9866  0.5022
 5612TIP3    H241032   6.239   0.304   0.642  1.3032  1.0980  1.0654
 5613TIP3   OH241033   0.731   7.034   1.517  0.3720  0.0757  0.1711
 5613TIP3    H141034   0.795   7.104   1.526  0.3457 -0.0325  1.4744
 5613TIP3    H241035   0.656   7.063   1.570  0.8974 -1.5197  1.9075
 5614TIP3   OH241036   2.997   2.734   2.712  0.3696  0.2053  0.0931
 5614TIP3    H141037   3.050   2.803   2.750  1.3897 -1.2430  1.4580
 5614TIP3    H241038   3.059   2.662   2.697 -0.8837 -0.8846 -0.0024
 5615TIP3   OH241039   7.466   2.539   2.198 -0.6836 -0.8272  0.2930
 5615TIP3    H141040   7.484   2.515   2.289 -1.7055  1.1663  1.0959
 5615TIP3    H241041   7.553   2.554   2.160 -0.1927 -2.7343  0.5859
 5616TIP3   OH241042   4.751   0.236   1.205 -0.4069  0.2005 -0.3252
 5616TIP3    H141043   4.798   0.257   1.124 -1.3315 -0.6149 -1.1017
 5616TIP3    H241044   4.660   0.224   1.177 -0.6431 -0.6576  0.7470
 5617TIP3   OH241045   1.138   0.195   2.324  0.5718 -0.2233 -0.2590
 5617TIP3    H141046   1.211   0.194   2.386 -0.6477 -1.1291  1.2134
 5617TIP3    H241047   1.064   0.161   2.373 -0.3947 -1.2228 -2.3040
 5618TIP3   OH241048   3.860   4.044   0.850 -0.0782 -0.0573 -0.3167
 5618TIP3    H141049   3.875   4.025   0.757  2.8466 -0.9255  0.2413
 5618TIP3    H241050   3.810   3.969   0.882 -1.4539  0.4320 -1.2093
 5619TIP3   OH241051   5.066   1.785   2.490  0.1377 -0.1645 -0.3112
 5619TIP3    H141052   5.007   1.710   2.481 -0.2360  0.3117 -2.2159
 5619TIP3    H241053   5.009   1.857   2.518  0.1904 -0.1697 -0.1877
 5620TIP3   OH241054   5.801   6.722   0.478  0.0180 -0.4235  0.4344
 5620TIP3    H141055   5.827   6.641   0.522  1.2501 -1.0785 -1.4075
 5620TIP3    H241056   5.861   6.789   0.512  1.5761 -1.1140 -0.8711
 5621TIP3   OH241057   4.691   1.931   1.496  0.1538  0.3253 -0.3270
 5621TIP3    H141058   4.704   2.002   1.432  0.3914 -0.3112 -0.9951
 5621TIP3    H241059   4.762   1.869   1.478 -0.3649 -0.3415 -0.0937
 5622TIP3   OH241060   3.568   4.588   3.387  0.2680  0.3848  0.2451
 5622TIP3    H141061   3.609   4.636   3.459  0.7254  1.6697 -0.8220
 5622TIP3    H241062   3.475   4.585   3.410  0.5801 -0.4426  1.5251
 5623TIP3   OH241063   0.169   5.525   1.746  0.0898  0.1506  0.0436
 5623TIP3    H141064   0.245   5.498   1.798 -0.2979  3.2012  2.4623
 5623TIP3    H241065   0.094   5.493   1.796 -0.2639 -0.4035 -0.8318
 5624TIP3   OH241066   5.959   3.882   2.590 -0.6409 -0.0827 -0.4998
 5624TIP3    H141067   6.041   3.930   2.601 -0.6206 -0.3821  0.9373
 5624TIP3    H241068   5.897   3.927   2.647 -0.4556 -2.0200  1.4138
 5625TIP3   OH241069   3.707   3.035   2.996  0.3423 -0.1467 -0.2370
 5625TIP3    H141070   3.783   3.093   2.993  1.1512 -1.1360  0.3180
 5625TIP3    H241071   3.724   2.969   2.929 -1.0311  0.7599 -1.5381
 5626TIP3   OH241072   1.302   6.200   3.009 -0.0520 -0.1141 -0.6193
 5626TIP3    H141073   1.213   6.236   3.008 -0.5077 -1.0749  0.8146
 5626TIP3    H241074   1.307   6.152   3.092  2.4952  1.5722  0.3070
 5627TIP3   OH241075   7.195   6.961   3.096 -0.1654  0.3786  0.2181
 5627TIP3    H141076   7.264   7.008   3.142  1.4471 -1.3788 -0.3174
 5627TIP3    H241077   7.212   6.977   3.004  0.4387 -1.2627  0.0261
 5628TIP3   OH241078   0.912   0.974   2.248  0.0358  0.3689  0.5455
 5628TIP3    H141079   0.910   1.001   2.156  1.6362 -1.3242 -0.0482
 5628TIP3    H241080   0.997   1.006   2.280  0.3840 -0.7965  0.8302
 5629TIP3   OH241081   7.636   4.349   1.652 -0.0243 -0.0333  0.3239
 5629TIP3    H141082   7.578   4.415   1.614  0.0689 -0.9194 -1.5001
 5629TIP3    H241083   7.671   4.302   1.576 -0.6272 -2.6357  1.5189
 5630TIP3   OH241084   7.337   5.432   2.129 -0.7546  0.5659 -0.1177
 5630TIP3    H141085   7.426   5.456   2.155 -0.9578 -1.1570  2.6069
 5630TIP3    H241086   7.283   5.456   2.204 -2.2996 -0.0696 -0.9845
 5631TIP3   OH241087   7.009   7.446   1.200 -0.2553 -0.2848 -0.1615
 5631TIP3    H141088   6.947   7.373   1.200 -1.0469  0.3573 -0.9074
 5631TIP3    H241089   6.953   7.524   1.200  0.5652  0.3117 -0.0299
 5632TIP3   OH241090   1.505   6.326   1.122  0.0234 -0.3728 -0.3053
 5632TIP3    H141091   1.500   6.259   1.191  0.2457  1.1962  1.3108
 5632TIP3    H241092   1.413   6.342   1.099 -0.2865  1.0783  1.7026
 5633TIP3   OH241093   3.417   3.283   1.512  0.0813  0.2171  0.6638
 5633TIP3    H141094   3.472   3.361   1.506  0.3708  0.0238  0.7975
 5633TIP3    H241095   3.344   3.310   1.569 -0.2302  0.6213  0.0840
 5634TIP3   OH241096   0.153   6.188   1.905  0.2603 -0.2837 -0.6436
 5634TIP3    H141097   0.166   6.111   1.960 -1.7413 -0.4997 -0.4163
 5634TIP3    H241098   0.217   6.252   1.937 -1.0732 -0.2630  2.2652
 5635TIP3   OH241099   1.857   4.221   3.267  0.2872 -0.3149 -0.1786
 5635TIP3    H141100   1.950   4.202   3.276  0.4285  0.4138  0.0166
 5635TIP3    H241101   1.854   4.311   3.234 -0.3475 -0.1119  0.3897
 5636TIP3   OH241102   3.209   3.681   2.032 -0.1703 -0.1430  0.2912
 5636TIP3    H141103   3.227   3.648   2.120 -0.8590  0.3660  0.6287
 5636TIP3    H241104   3.193   3.774   2.044  1.1457  0.2317 -0.5707
 5637TIP3   OH241105   6.324   3.376   2.629  0.5387  0.0517  0.0667
 5637TIP3    H141106   6.402   3.382   2.685  1.0718  1.1063 -0.7570
 5637TIP3    H241107   6.320   3.461   2.585  0.3754 -0.8793 -1.8081
 5638TIP3   OH241108   6.944   5.851   1.194 -0.6142  0.4573 -0.2123
 5638TIP3    H141109   6.904   5.938   1.201 -1.9427 -0.2051  1.0789
 5638TIP3    H241110   6.991   5.840   1.276 -0.0108  0.1392 -0.5922
 5639TIP3   OH241111   5.549   0.141   1.996  0.3504  0.1018  0.6422
 5639TIP3    H141112   5.501   0.071   2.039 -1.1095  0.0249 -1.0256
 5639TIP3    H241113   5.639   0.108   1.990 -0.0185 -1.0353  1.1069
 5640TIP3   OH241114   0.779   4.764   1.433  0.0475  0.0466 -0.2365
 5640TIP3    H141115   0.714   4.694   1.431  0.1830 -0.1525  1.1035
 5640TIP3    H241116   0.824   4.752   1.516 -1.6544  3.2668  1.3466
 5641TIP3   OH241117   6.833   5.363   2.064 -0.1130  0.1936 -0.1405
 5641TIP3    H141118   6.740   5.339   2.068 -0.6414  2.2205  1.9072
 5641TIP3    H241119   6.846   5.394   1.974 -2.0599  2.0906  0.1672
 5642TIP3   OH241120   3.852   5.750   1.336 -0.5716  0.0655  0.2374
 5642TIP3    H141121   3.767   5.708   1.323 -0.9202  1.0199 -0.6994
 5642TIP3    H241122   3.851   5.826   1.278  1.3355 -0.4618 -0.5789
 5643TIP3   OH241123   1.485   3.571   3.292 -0.3822 -0.4121  0.1592
 5643TIP3    H141124   1.563   3.586   3.238  0.0820 -0.9717  0.6639
 5643TIP3    H241125   1.443   3.657   3.298 -0.5094 -0.3580 -1.1813
 5644TIP3   OH241126   1.189   1.003   0.461 -0.4235 -0.3061  0.3608
 5644TIP3    H141127   1.127   0.932   0.470 -1.1071  0.1867 -0.3219
 5644TIP3    H241128   1.135   1.082   0.458 -0.0701 -0.0430 -3.1325
 5645TIP3   OH241129   5.188   7.648   1.718  0.0765 -0.5685 -0.2259
 5645TIP3    H141130   5.132   7.688   1.785  1.5883 -1.0383  1.4005
 5645TIP3    H241131   5.145   7.564   1.698 -1.2610  0.2848 -1.1072
 5646TIP3   OH241132   1.812   2.018   2.311 -0.3098 -0.4417  0.3120
 5646TIP3    H141133   1.804   2.038   2.404  1.0754  1.6462  0.0608
 5646TIP3    H241134   1.729   2.047   2.273 -0.1190  0.5958  0.6511
 5647TIP3   OH241135   5.393   3.866   2.097 -0.1205  0.2938  0.2361
 5647TIP3    H141136   5.462   3.920   2.058 -0.7592  1.9217  1.2550
 5647TIP3    H241137   5.405   3.876   2.191 -2.0574  1.0720  0.4471
 5648TIP3   OH241138   0.685   6.375   1.428 -0.1078 -0.7255  0.7246
 5648TIP3    H141139   0.738   6.454   1.438 -0.0636 -0.7777  0.9123
 5648TIP3    H241140   0.603   6.406   1.390  0.9764 -0.9766 -2.0344
 5649TIP3   OH241141   3.545   0.989   1.634  1.0909  0.4586 -0.0836
 5649TIP3    H141142   3.476   0.939   1.590  2.6738 -0.3300 -1.7744
 5649TIP3    H241143   3.537   0.964   1.726  1.0547 -1.9936 -0.7019
 5650TIP3   OH241144   2.089   1.369   1.020 -0.5625 -0.1899  0.3283
 5650TIP3    H141145   2.109   1.285   1.062 -0.1269 -0.2045  0.0955
 5650TIP3    H241146   1.993   1.369   1.011 -0.4516 -1.5268 -1.4213
 5651TIP3   OH241147   6.313   0.352   0.933 -0.6322  0.3899 -0.4905
 5651TIP3    H141148   6.359   0.301   1.000 -0.0087 -0.9555 -1.8847
 5651TIP3    H241149   6.346   0.441   0.945  2.1299 -0.4454 -1.1748
 5652TIP3   OH241150   0.996   7.517   1.908 -0.2306 -0.4570  0.3861
 5652TIP3    H141151   0.928   7.583   1.892  1.0661  0.8927  0.2245
 5652TIP3    H241152   1.032   7.540   1.993 -0.0088 -1.2206  0.5082
 5653TIP3   OH241153   1.261   3.249   0.933 -0.2193  0.2959 -0.8746
 5653TIP3    H141154   1.317   3.297   0.872  0.3275  0.1127 -0.5295
 5653TIP3    H241155   1.310   3.169   0.952  0.5095  1.1811  1.2462
 5654TIP3   OH241156   0.820   1.476   2.594 -0.1037  0.2099  0.0293
 5654TIP3    H141157   0.767   1.399   2.575 -1.1022  0.8463  0.1638
 5654TIP3    H241158   0.856   1.459   2.681 -0.4524 -0.0216  0.1288
 5655TIP3   OH241159   3.372   3.810   1.817  0.0401  0.6720  0.2005
 5655TIP3    H141160   3.342   3.901   1.820 -0.0242  0.6411  0.5435
 5655TIP3    H241161   3.292   3.758   1.815  0.0788  0.6333 -0.3623
 5656TIP3   OH241162   7.171   6.842   0.724 -0.5608 -0.0495 -0.3169
 5656TIP3    H141163   7.215   6.878   0.801 -0.7860  1.1555 -0.7424
 5656TIP3    H241164   7.081   6.827   0.753  0.0741 -2.7503  0.6310
 5657TIP3   OH241165   0.177   6.287   2.536 -0.3142 -0.2234  0.4053
 5657TIP3    H141166   0.100   6.321   2.493 -1.6759 -1.1184  2.0078
 5657TIP3    H241167   0.171   6.319   2.626  1.6821  0.4335  0.3685
 5658TIP3   OH241168   2.632   0.599   1.123  0.1652  0.5815 -0.2129
 5658TIP3    H141169   2.571   0.525   1.133  0.3661  0.6901  2.8137
 5658TIP3    H241170   2.599   0.647   1.047 -1.7732 -0.9840 -0.4485
 5659TIP3   OH241171   7.008   3.773   1.875  0.3668  0.3896  0.1202
 5659TIP3    H141172   7.075   3.816   1.929  0.3748  0.6615 -0.1089
 5659TIP3    H241173   7.058   3.724   1.810  0.3461  0.5355 -0.0065
 5660TIP3   OH241174   6.439   0.642   1.985  0.5609 -0.4058 -0.3721
 5660TIP3    H141175   6.461   0.657   2.077  0.5301  0.7169 -0.5330
 5660TIP3    H241176   6.508   0.688   1.936 -0.1238  0.0864 -0.8947
 5661TIP3   OH241177   3.177   1.646   2.345 -0.7062  0.6202 -0.0747
 5661TIP3    H141178   3.169   1.588   2.420  0.9558  0.2640 -0.1355
 5661TIP3    H241179   3.140   1.729   2.374  0.2239  0.5924  1.2894
 5662TIP3   OH241180   6.571   3.625   2.686 -0.0752  0.1678  0.3751
 5662TIP3    H141181   6.530   3.596   2.767 -0.0088  1.1702  0.7740
 5662TIP3    H241182   6.498   3.647   2.628 -0.1177  0.3716  0.5050
 5663TIP3   OH241183   4.432   4.512   0.683 -0.0060 -0.2921  0.0489
 5663TIP3    H141184   4.494   4.456   0.729  0.2348  0.2486  0.3937
 5663TIP3    H241185   4.486   4.577   0.639 -0.1966 -1.1031 -1.4340
 5664TIP3   OH241186   1.056   4.124   0.831 -0.4373 -0.9049  0.1200
 5664TIP3    H141187   1.094   4.193   0.778  1.2901 -1.2910  0.7986
 5664TIP3    H241188   0.982   4.165   0.875 -0.6359 -0.0408 -0.9617
 5665TIP3   OH241189   0.973   5.149   3.210  0.1374 -0.4392  0.5892
 5665TIP3    H141190   1.062   5.133   3.240  0.8534  2.7012  0.4780
 5665TIP3    H241191   0.945   5.065   3.172  3.5787 -1.1214 -0.8124
 5666TIP3   OH241192   3.492   4.561   1.190  0.4968 -0.1013 -0.1568
 5666TIP3    H141193   3.551   4.519   1.128 -0.5132 -1.7436 -0.0616
 5666TIP3    H241194   3.408   4.517   1.177 -0.2863  1.0379  0.8556
 5667TIP3   OH241195   5.907   6.995   2.461  0.0410  0.0612  0.5333
 5667TIP3    H141196   5.963   7.073   2.466 -0.4292  0.7651 -2.9186
 5667TIP3    H241197   5.908   6.971   2.369 -0.8877 -3.3231  1.2867
 5668TIP3   OH241198   0.915   5.388   3.086 -0.2312 -0.0592  0.7152
 5668TIP3    H141199   1.005   5.415   3.065 -0.4736  0.2069  0.0064
 5668TIP3    H241200   0.921   5.294   3.101  0.0129 -0.1901 -0.1844
 5669TIP3   OH241201   4.519   2.304   0.882  0.1414 -0.8668 -0.6029
 5669TIP3    H141202   4.486   2.345   0.962  0.3821 -0.2371 -0.8160
 5669TIP3    H241203   4.441   2.288   0.829  0.0101 -1.0185 -0.3647
 5670TIP3   OH241204   4.379   1.122   2.619  0.2412 -0.0895 -0.1845
 5670TIP3    H141205   4.471   1.105   2.635 -0.5739 -1.6819  4.0336
 5670TIP3    H241206   4.346   1.042   2.580  0.5609  0.4948 -1.7313
 5671TIP3   OH241207   7.382   1.668   1.920 -0.0445  0.1248 -0.4828
 5671TIP3    H141208   7.400   1.756   1.955 -1.1103 -0.0322  0.5382
 5671TIP3    H241209   7.296   1.677   1.878  0.8393  0.0970 -2.4150
 5672TIP3   OH241210   4.612   0.781   1.955 -0.4553 -0.0510 -0.3582
 5672TIP3    H141211   4.689   0.759   1.903  0.8968 -2.6551  2.4624
 5672TIP3    H241212   4.642   0.846   2.017 -0.0525 -1.9370  1.5378
 5673TIP3   OH241213   3.953   1.579   0.813 -0.4831  0.3625  0.2809
 5673TIP3    H141214   3.898   1.612   0.884  0.3954  0.8229  0.7623
 5673TIP3    H241215   3.892   1.531   0.757 -1.6528  2.1026 -0.0123
 5674TIP3   OH241216   0.472   5.191   0.772  0.3767 -0.4133 -0.7914
 5674TIP3    H141217   0.515   5.246   0.837 -0.8003 -0.2550 -0.1112
 5674TIP3    H241218   0.383   5.226   0.765 -0.0007 -1.4112 -1.3190
 5675TIP3   OH241219   1.084   3.429   1.102 -0.0018  0.4009  0.2097
 5675TIP3    H141220   1.171   3.468   1.092 -0.6236  2.0120  0.6096
 5675TIP3    H241221   1.082   3.400   1.193  0.6297 -1.0668 -0.2159
 5676TIP3   OH241222   5.936   0.591   2.158 -0.6829 -0.1131 -0.1844
 5676TIP3    H141223   5.989   0.666   2.184  0.6278 -0.8460 -0.6787
 5676TIP3    H241224   5.942   0.530   2.231  1.9937 -1.6416 -1.5415
 5677TIP3   OH241225   6.142   1.900   0.476 -0.1753  0.0730  0.8014
 5677TIP3    H141226   6.054   1.938   0.466 -0.7753 -1.0717  1.5321
 5677TIP3    H241227   6.129   1.806   0.467  1.2779 -0.0108 -0.8804
 5678TIP3   OH241228   3.019   5.150   1.126 -0.8778 -0.1659  0.4360
 5678TIP3    H141229   3.102   5.102   1.130 -0.0350  1.2904  1.0471
 5678TIP3    H241230   2.980   5.123   1.043  1.1440  0.6027 -0.8391
 5679TIP3   OH241231   5.439   6.043   2.678 -0.0854 -0.0197 -0.4305
 5679TIP3    H141232   5.373   6.113   2.677 -0.4973 -0.4016 -0.2172
 5679TIP3    H241233   5.506   6.075   2.738 -0.1465  0.3065 -0.5309
 5680TIP3   OH241234   1.446   3.073   1.077  0.3871 -0.2862 -0.2570
 5680TIP3    H141235   1.483   3.008   1.136 -0.7997 -0.0725  0.7623
 5680TIP3    H241236   1.521   3.122   1.044  1.0099  0.5907  2.2762
 5681TIP3   OH241237   6.501   2.285   2.460  0.2780 -0.2026 -0.1469
 5681TIP3    H141238   6.415   2.302   2.497  1.3389  1.7965  1.7069
 5681TIP3    H241239   6.490   2.296   2.366 -1.4731  0.0339  0.0521
 5682TIP3   OH241240   4.148   2.200   2.960  0.0845 -0.1346  0.5227
 5682TIP3    H141241   4.094   2.141   2.908 -0.7630  0.0750  1.1420
 5682TIP3    H241242   4.172   2.271   2.900 -0.7615  0.0348  0.3756
 5683TIP3   OH241243   0.159   5.953   2.117 -0.0644  0.4778  0.1115
 5683TIP3    H141244   0.168   6.040   2.156 -0.5759  0.3163  0.6229
 5683TIP3    H241245   0.092   5.910   2.171 -1.8048  0.6995 -1.7654
 5684TIP3   OH241246   5.822   5.847   0.765 -0.0740  0.1793 -0.3794
 5684TIP3    H141247   5.778   5.771   0.726  0.3103  0.0102 -0.4789
 5684TIP3    H241248   5.869   5.813   0.841  1.0602  0.1018 -1.0968
 5685TIP3   OH241249   5.238   6.843   1.815 -0.1203 -0.1819  0.0258
 5685TIP3    H141250   5.315   6.896   1.837 -0.6940 -0.1478  2.2860
 5685TIP3    H241251   5.270   6.753   1.812 -0.0929 -0.3038  2.0789
 5686TIP3   OH241252   3.042   1.254   0.993  0.0765  0.1717  0.2004
 5686TIP3    H141253   3.005   1.335   0.958 -1.3731 -0.5331  0.0122
 5686TIP3    H241254   3.112   1.231   0.932  0.0381  0.9179 -0.1293
 5687TIP3   OH241255   3.005   0.031   1.436 -0.1812  0.1770  0.5552
 5687TIP3    H141256   2.936  -0.007   1.491  0.9707 -1.7786  0.7189
 5687TIP3    H241257   2.990   0.126   1.442 -3.7198 -0.1307 -0.5640
 5688TIP3   OH241258   1.752   0.449   1.900  0.1044  0.3346  0.0155
 5688TIP3    H141259   1.801   0.457   1.819  0.4329  0.9089  0.2657
 5688TIP3    H241260   1.662   0.471   1.875 -0.0807 -0.9252 -0.4835
 5689TIP3   OH241261   4.096   2.202   1.670 -0.1705  0.7186 -0.1212
 5689TIP3    H141262   4.066   2.278   1.620  1.6633  2.0437  0.6618
 5689TIP3    H241263   4.166   2.165   1.616 -0.8181 -0.2086 -0.3310
 5690TIP3   OH241264   2.096   3.868   2.599  0.8092  0.5278  0.4133
 5690TIP3    H141265   2.005   3.847   2.622  0.8567 -3.0574 -2.0171
 5690TIP3    H241266   2.089   3.943   2.540 -0.5056  0.6954  0.7458
 5691TIP3   OH241267   5.630   6.379   1.943  0.5876  0.8409  0.5996
 5691TIP3    H141268   5.655   6.420   1.860  0.6209  0.2035  0.2926
 5691TIP3    H241269   5.537   6.360   1.934  0.4642  1.2689  0.9248
 5692TIP3   OH241270   5.145   1.601   1.445 -0.0896 -0.2788 -0.4218
 5692TIP3    H141271   5.094   1.527   1.477 -1.3233  0.3574 -0.8419
 5692TIP3    H241272   5.184   1.639   1.523 -1.5003  0.1067  0.1314
 5693TIP3   OH241273   1.439   3.514   1.902  0.5074 -0.2805  0.0616
 5693TIP3    H141274   1.400   3.555   1.979 -0.0253 -2.6165  1.0991
 5693TIP3    H241275   1.451   3.587   1.840 -0.1659  1.4519  1.8603
 5694TIP3   OH241276   3.364   5.875   2.388  0.4121 -0.2130  0.2124
 5694TIP3    H141277   3.457   5.852   2.398  0.5884  0.3886  0.0186
 5694TIP3    H241278   3.356   5.958   2.435  0.0852 -0.0050 -0.2110
 5695TIP3   OH241279   3.705   2.273   1.061  0.1483  0.0078 -0.7146
 5695TIP3    H141280   3.619   2.286   1.020  0.0342 -0.1727 -0.5360
 5695TIP3    H241281   3.689   2.283   1.154  0.8701  2.8610 -0.8283
 5696TIP3   OH241282   1.560   1.196   2.169 -0.0567 -0.1749 -0.1201
 5696TIP3    H141283   1.571   1.116   2.118 -0.3161 -0.1526 -0.2168
 5696TIP3    H241284   1.470   1.191   2.203  0.3593 -0.5335  0.9501
 5697TIP3   OH241285   4.471   5.558   1.454  0.0273  0.3964 -0.4259
 5697TIP3    H141286   4.526   5.544   1.377 -0.8904  0.8844 -1.1832
 5697TIP3    H241287   4.495   5.487   1.514  2.7992  1.6030  0.0507
 5698TIP3   OH241288   5.848   0.364   2.565 -0.6156  0.0663  0.2124
 5698TIP3    H141289   5.841   0.458   2.582 -0.4168 -0.1885  1.7806
 5698TIP3    H241290   5.757   0.335   2.552 -0.7241  0.3658  0.3037
 5699TIP3   OH241291   7.233   0.060   1.180  0.1954  0.1353 -0.1208
 5699TIP3    H141292   7.264  -0.026   1.208  0.3390 -0.4701 -2.0107
 5699TIP3    H241293   7.202   0.046   1.090 -0.7640  1.8346 -0.0886
 5700TIP3   OH241294   4.250   3.879   2.238 -0.0328  0.0541 -0.0474
 5700TIP3    H141295   4.254   3.812   2.170  0.4306 -0.7910  0.7838
 5700TIP3    H241296   4.170   3.858   2.287  0.5746 -0.4733  0.7629
 5701TIP3   OH241297   3.469   1.190   1.948 -0.8213  0.2194  0.0820
 5701TIP3    H141298   3.421   1.107   1.944  0.1956 -0.5181  2.0156
 5701TIP3    H241299   3.441   1.237   1.869 -2.3610 -1.4299 -0.4365
 5702TIP3   OH241300   0.936   5.052   1.663 -0.0569  0.5681  0.0501
 5702TIP3    H141301   0.841   5.051   1.672 -0.0932 -1.9655  0.1080
 5702TIP3    H241302   0.952   5.031   1.571  0.4768  1.0412  0.0267
 5703TIP3   OH241303   1.302   5.211   2.209  0.1101 -0.5951  0.2623
 5703TIP3    H141304   1.245   5.150   2.256  1.1196 -1.4776  0.3878
 5703TIP3    H241305   1.374   5.229   2.270  2.3571 -3.0862 -1.3983
 5704TIP3   OH241306   4.280   4.361   0.477 -0.6552 -0.2947  0.0536
 5704TIP3    H141307   4.306   4.420   0.548 -0.9420  0.7353 -0.6693
 5704TIP3    H241308   4.194   4.393   0.450 -0.5176 -0.6297 -0.8023
 5705TIP3   OH241309   3.155   1.691   1.156 -0.1136  0.0938 -0.2285
 5705TIP3    H141310   3.169   1.643   1.074  0.2532 -0.5847  0.2270
 5705TIP3    H241311   3.163   1.783   1.131  1.3488 -0.1394 -0.7163
 5706TIP3   OH241312   4.291   6.848   2.257 -0.0232 -0.1637  0.6317
 5706TIP3    H141313   4.229   6.913   2.291 -0.1601 -0.1957  0.4494
 5706TIP3    H241314   4.312   6.793   2.332 -0.0189  0.0046  0.7537
 5707TIP3   OH241315   7.350   6.371   1.649 -0.3633  0.3461 -0.4162
 5707TIP3    H141316   7.411   6.332   1.711 -1.0795  0.7585  0.5883
 5707TIP3    H241317   7.334   6.303   1.584  2.1507  0.6659 -1.4817
 5708TIP3   OH241318   6.611   1.480   1.464 -0.3287 -0.0955 -0.0908
 5708TIP3    H141319   6.652   1.548   1.410 -2.0596  0.3167 -0.9492
 5708TIP3    H241320   6.676   1.461   1.532  0.1305  2.5950  0.3427
 5709TIP3   OH241321   5.209   0.043   2.911  0.2786 -0.6093  0.5499
 5709TIP3    H141322   5.252   0.124   2.940  0.7578 -0.9010  0.6773
 5709TIP3    H241323   5.153   0.017   2.984  2.0076 -1.7184  1.5613
 5710TIP3   OH241324   5.046   2.319   2.106 -0.0322  0.4730  0.1547
 5710TIP3    H141325   5.016   2.228   2.098 -1.8036  1.0271  0.1115
 5710TIP3    H241326   5.121   2.325   2.047 -1.3397 -0.3654 -1.6989
 5711TIP3   OH241327   1.722   3.488   2.557 -0.1145 -0.2700 -0.1609
 5711TIP3    H141328   1.796   3.488   2.618 -0.0131  2.0790 -0.2153
 5711TIP3    H241329   1.657   3.546   2.597  0.1615  1.7983 -2.4679
 5712TIP3   OH241330   4.543   5.384   2.678  0.2925 -0.0014  0.1128
 5712TIP3    H141331   4.582   5.472   2.683  1.7729 -0.6462  0.4913
 5712TIP3    H241332   4.609   5.331   2.634  0.1128 -1.2759  1.3048
 5713TIP3   OH241333   2.214   7.354   1.391 -0.1406  0.6333 -0.0599
 5713TIP3    H141334   2.130   7.357   1.345  0.0804  0.6553 -0.4658
 5713TIP3    H241335   2.191   7.328   1.480 -0.2700 -2.8833 -0.9751
 5714TIP3   OH241336   6.823   2.878   1.558 -0.0526 -0.7071  0.2853
 5714TIP3    H141337   6.917   2.894   1.565 -0.3522  0.9608  1.1402
 5714TIP3    H241338   6.799   2.913   1.472  0.0320 -0.6725  0.2760
 5715TIP3   OH241339   4.165   0.767   2.760  0.1164  0.2599 -0.0283
 5715TIP3    H141340   4.245   0.744   2.807  1.8322  1.5574 -2.1284
 5715TIP3    H241341   4.150   0.859   2.783  0.4677  0.6387 -1.2814
 5716TIP3   OH241342   4.085   7.622   2.694 -0.6440  0.1208  0.1459
 5716TIP3    H141343   4.077   7.592   2.604 -1.1259  0.3550  0.1077
 5716TIP3    H241344   4.004   7.670   2.711 -1.1683 -1.0359  1.1334
 5717TIP3   OH241345   1.892   0.202   1.548 -0.1843 -0.1390  0.4222
 5717TIP3    H141346   1.959   0.149   1.505  0.0781  0.0925  0.5445
 5717TIP3    H241347   1.817   0.143   1.558 -0.2463 -0.2009 -0.3435
 5718TIP3   OH241348   5.742   3.299   2.323 -0.1688  0.4841  0.1259
 5718TIP3    H141349   5.668   3.352   2.354 -0.8200  0.0038 -0.5636
 5718TIP3    H241350   5.722   3.211   2.354 -0.1869  0.2411 -0.5686
 5719TIP3   OH241351   3.051   0.548   3.248  0.0522 -0.8574  0.1626
 5719TIP3    H141352   3.092   0.629   3.278  0.9881 -1.2170 -0.1101
 5719TIP3    H241353   3.123   0.498   3.209 -0.6163 -1.5908 -0.1458
 5720TIP3   OH241354   3.444   1.146   1.274  0.3191 -0.0487 -0.2517
 5720TIP3    H141355   3.476   1.193   1.351  0.2500 -0.0100 -0.2466
 5720TIP3    H241356   3.400   1.213   1.222 -0.1390 -0.1883 -0.0459
 5721TIP3   OH241357   2.093   3.215   1.076 -0.3497 -0.2204 -0.3787
 5721TIP3    H141358   2.083   3.122   1.094  0.6196 -0.2563  0.0072
 5721TIP3    H241359   2.037   3.258   1.142 -1.2499 -0.5274 -0.9193
 5722TIP3   OH241360   1.582   6.736   1.790 -0.4025  0.0705 -0.5779
 5722TIP3    H141361   1.572   6.788   1.710 -1.1834  0.9368  0.0631
 5722TIP3    H241362   1.643   6.667   1.766  2.7688  2.6907 -0.8134
 5723TIP3   OH241363   6.263   5.734   1.716  1.0725 -0.5350  0.5259
 5723TIP3    H141364   6.303   5.818   1.695 -1.1425  0.3247 -0.6259
 5723TIP3    H241365   6.250   5.691   1.631 -1.2484 -0.3094  0.6939
 5724TIP3   OH241366   6.306   2.235   1.754  0.9717 -0.0433  0.6893
 5724TIP3    H141367   6.299   2.140   1.752 -0.2353  0.0508 -0.5121
 5724TIP3    H241368   6.357   2.257   1.676  0.7461  0.3450  0.6495
 5725TIP3   OH241369   0.100   2.318   1.822  0.1724 -0.5417  0.2922
 5725TIP3    H141370   0.013   2.298   1.787 -0.3675  1.1900  0.5156
 5725TIP3    H241371   0.160   2.270   1.766 -0.9503 -2.9981  1.0428
 5726TIP3   OH241372   2.922   5.413   2.578 -0.0468  0.0686 -0.4576
 5726TIP3    H141373   2.964   5.487   2.621  2.9786 -1.2403 -0.9441
 5726TIP3    H241374   2.916   5.438   2.486  0.2086  0.0392 -0.4825
 5727TIP3   OH241375   3.273   0.292   1.770 -0.3163  0.2664 -1.1922
 5727TIP3    H141376   3.358   0.250   1.776  0.2276  1.5313  0.9562
 5727TIP3    H241377   3.210   0.220   1.771  0.6603 -0.5974 -0.2028
 5728TIP3   OH241378   1.439   4.684   0.993  0.0751  0.1760  0.1006
 5728TIP3    H141379   1.393   4.654   0.914  0.2764  0.2424 -0.0421
 5728TIP3    H241380   1.469   4.772   0.971  1.6454 -0.4546 -0.3835
 5729TIP3   OH241381   4.011   6.698   1.787 -0.4051  0.0606 -0.0773
 5729TIP3    H141382   3.974   6.753   1.856  0.8137 -0.8916  1.4054
 5729TIP3    H241383   4.054   6.627   1.834  1.5281  0.0238 -1.7779
 5730TIP3   OH241384   7.487   0.884   1.480 -0.3951 -0.0104  0.1673
 5730TIP3    H141385   7.548   0.901   1.552 -1.0811  1.3055  0.4784
 5730TIP3    H241386   7.415   0.837   1.520 -0.3539 -0.0907  0.1473
 5731TIP3   OH241387   5.545   4.992   1.325  0.1860  0.5873  0.2729
 5731TIP3    H141388   5.475   4.991   1.260  0.9112 -0.1626 -0.5322
 5731TIP3    H241389   5.507   5.034   1.401 -1.3854 -0.5108  0.1385
 5732TIP3   OH241390   1.712   4.958   2.721 -0.2372 -0.2329 -0.1070
 5732TIP3    H141391   1.638   4.901   2.703 -1.0538  1.2323 -1.6194
 5732TIP3    H241392   1.699   4.986   2.812 -0.9772 -0.7766 -0.0387
 5733TIP3   OH241393   1.287   6.865   1.810 -0.5142  0.5861  0.3490
 5733TIP3    H141394   1.374   6.872   1.771 -0.7406 -1.7907 -0.7422
 5733TIP3    H241395   1.302   6.823   1.895 -0.5815  0.3501  0.2438
 5734TIP3   OH241396   4.239   5.645   1.277  0.5526  0.1219  0.0473
 5734TIP3    H141397   4.185   5.697   1.337  0.7866  1.1400 -0.5926
 5734TIP3    H241398   4.318   5.626   1.328 -0.1245 -0.8596  0.7776
 5735TIP3   OH241399   1.248   3.774   1.073  0.5504 -0.0325  0.1827
 5735TIP3    H141400   1.152   3.768   1.073  0.4911  0.5855 -0.8539
 5735TIP3    H241401   1.278   3.687   1.099 -0.2837 -0.2289  0.5318
 5736TIP3   OH241402   0.733   4.137   0.673  0.0642 -0.5128 -0.4386
 5736TIP3    H141403   0.733   4.162   0.766 -2.7912  0.4065 -0.5712
 5736TIP3    H241404   0.797   4.066   0.667  1.5258  0.4886  1.8743
 5737TIP3   OH241405   1.058   5.032   1.920 -0.7076  0.0911 -0.7287
 5737TIP3    H141406   1.151   5.015   1.906 -0.5529  0.7787 -0.5580
 5737TIP3    H241407   1.023   5.043   1.832 -0.4194  0.8752 -0.7529
 5738TIP3   OH241408   2.633   2.197   3.386 -0.3802  0.4080  0.0868
 5738TIP3    H141409   2.625   2.110   3.424 -0.0423  0.4712  0.3056
 5738TIP3    H241410   2.555   2.244   3.415 -0.8171  0.0293 -0.4373
 5739TIP3   OH241411   7.356   3.771   2.909  0.0147  0.6682 -0.0224
 5739TIP3    H141412   7.273   3.811   2.881  1.3493  2.8302 -1.1404
 5739TIP3    H241413   7.361   3.790   3.003 -1.4084 -0.8419  0.4202
 5740TIP3   OH241414   7.134   1.402   3.086 -0.2448 -0.1787 -0.8471
 5740TIP3    H141415   7.136   1.471   3.020  0.9656  0.5955 -0.0214
 5740TIP3    H241416   7.144   1.321   3.035  1.9257  0.4705 -1.5472
 5741TIP3   OH241417   4.449   5.026   1.471  0.1234  0.0473  0.3288
 5741TIP3    H141418   4.412   4.939   1.453 -0.6563  0.5200 -0.4513
 5741TIP3    H241419   4.544   5.013   1.465 -0.0183 -0.2572 -2.3487
 5742TIP3   OH241420   0.753   1.770   2.801 -0.0206  0.0329  0.4107
 5742TIP3    H141421   0.727   1.862   2.802  0.0046  0.0698 -0.6834
 5742TIP3    H241422   0.697   1.728   2.867 -0.7328  0.6507  0.2164
 5743TIP3   OH241423   4.686   7.545   8.585  0.2648 -0.0131 -0.1744
 5743TIP3    H141424   4.649   7.594   8.511  2.1446  1.2114 -0.3986
 5743TIP3    H241425   4.611   7.516   8.635 -1.0274  0.3689 -1.7999
 5744TIP3   OH241426   7.482   4.490   2.725 -0.1572 -0.6738  0.2035
 5744TIP3    H141427   7.560   4.536   2.755 -0.7086 -0.3694  1.2533
 5744TIP3    H241428   7.463   4.527   2.639 -0.2472  0.6665  0.7714
 5745TIP3   OH241429   7.099   0.268   1.488 -0.0425 -0.0528  0.1418
 5745TIP3    H141430   7.104   0.352   1.442  1.0280  1.0497  2.1254
 5745TIP3    H241431   7.008   0.240   1.477 -0.1824  0.8809 -1.3684
 5746TIP3   OH241432   0.688   1.025   0.513 -0.4968 -0.0777 -0.0384
 5746TIP3    H141433   0.636   1.085   0.461  0.4435  1.3033  0.5511
 5746TIP3    H241434   0.628   0.991   0.579 -1.1494 -0.1515 -0.6655
 5747TIP3   OH241435   5.571   0.394   1.885 -0.1283 -0.1093 -0.3392
 5747TIP3    H141436   5.658   0.368   1.856  0.4174 -0.4557  1.4920
 5747TIP3    H241437   5.529   0.311   1.910 -0.1302  0.2614  0.9417
 5748TIP3   OH241438   0.232   1.440   0.591  0.1911  0.6708 -0.1609
 5748TIP3    H141439   0.262   1.349   0.592  1.0516  0.8561 -2.4693
 5748TIP3    H241440   0.140   1.434   0.565 -0.3638  0.4087  1.6797
 5749TIP3   OH241441   1.049   3.965   2.424  0.5261  0.1639 -0.3090
 5749TIP3    H141442   1.128   3.978   2.476  1.2471  0.8908 -1.5539
 5749TIP3    H241443   1.015   4.053   2.410 -1.3846 -0.2097  1.4580
 5750TIP3   OH241444   5.794   1.158   3.081 -0.0995  0.1597 -0.2541
 5750TIP3    H141445   5.717   1.105   3.103 -1.2315  1.8197 -0.0365
 5750TIP3    H241446   5.836   1.174   3.165  0.4613 -0.6723 -0.3629
 5751TIP3   OH241447   2.460   3.304   3.528  0.0041  0.1266  0.0081
 5751TIP3    H141448   2.368   3.305   3.553  0.0297  0.0891  0.1047
 5751TIP3    H241449   2.507   3.285   3.609  0.0385 -0.8388 -0.2318
 5752TIP3   OH241450   1.636   7.283   0.426 -0.1190  0.0807 -0.1909
 5752TIP3    H141451   1.672   7.366   0.458  2.9997 -1.7423  1.5050
 5752TIP3    H241452   1.667   7.277   0.336  0.4510  0.3399 -0.0186
 5753TIP3   OH241453   0.437   0.184   2.037 -0.1820 -0.1475 -0.1893
 5753TIP3    H141454   0.491   0.255   2.004  0.5205  0.1658  1.5084
 5753TIP3    H241455   0.493   0.106   2.031  0.0086 -0.0597  0.3694
 5754TIP3   OH241456   1.558   3.929   1.032  0.2784  0.2207  0.1788
 5754TIP3    H141457   1.489   3.877   0.991  1.0697 -0.7174  0.0050
 5754TIP3    H241458   1.517   4.014   1.049 -0.3217  0.3861 -1.8083
 5755TIP3   OH241459   2.886   2.206   2.851 -0.3403 -0.4280 -0.3630
 5755TIP3    H141460   2.922   2.284   2.809  0.9894 -0.1004  1.2971
 5755TIP3    H241461   2.955   2.176   2.910 -1.2651 -2.2053 -0.1063
 5756TIP3   OH241462   5.530   2.419   1.701  0.0757 -0.2073 -0.2108
 5756TIP3    H141463   5.478   2.388   1.775 -0.1037 -0.4672 -0.4451
 5756TIP3    H241464   5.621   2.413   1.732  0.0213 -0.6007 -0.1180
 5757TIP3   OH241465   7.379   5.992   1.217 -0.0399 -0.6548  0.0679
 5757TIP3    H141466   7.444   5.922   1.222 -0.5197 -1.0493  1.1101
 5757TIP3    H241467   7.295   5.947   1.212 -0.3099 -0.1526 -0.0407
 5758TIP3   OH241468   0.375   3.329   2.233 -0.1356  0.1858  0.1849
 5758TIP3    H141469   0.432   3.300   2.304  0.4980  0.6952 -0.1106
 5758TIP3    H241470   0.395   3.271   2.160 -1.0057 -0.5381  0.4897
 5759TIP3   OH241471   6.024   7.034   2.190  0.1593  0.0747 -0.4876
 5759TIP3    H141472   6.075   7.102   2.147  0.9721 -0.5942 -0.5994
 5759TIP3    H241473   6.076   6.954   2.180 -0.4417 -0.4259  0.2549
 5760TIP3   OH241474   7.613   2.131   2.598  0.0331  0.7857 -0.5241
 5760TIP3    H141475   7.544   2.064   2.602 -0.4472  1.2465 -0.9805
 5760TIP3    H241476   7.600   2.183   2.678 -0.3495  1.0639 -0.7644
 5761TIP3   OH241477   1.703   4.870   1.598  0.0338  0.4184 -0.1653
 5761TIP3    H141478   1.759   4.852   1.674 -0.8268 -0.4089  0.3066
 5761TIP3    H241479   1.728   4.958   1.570  2.1925 -0.2656 -0.5505
 5762TIP3   OH241480   2.881   1.130   1.428 -0.0977  0.2682  0.2276
 5762TIP3    H141481   2.906   1.040   1.411 -2.2206 -0.0228 -1.8225
 5762TIP3    H241482   2.811   1.124   1.492  1.0509  0.6694  1.5875
 5763TIP3   OH241483   1.505   7.633   0.898 -0.2808 -0.3559  0.2446
 5763TIP3    H141484   1.412   7.646   0.881  0.2135  1.3044 -1.5799
 5763TIP3    H241485   1.514   7.640   0.993 -1.8115  1.0660  0.3285
 5764TIP3   OH241486   3.228   2.894   0.659 -0.2435  0.2870 -0.4316
 5764TIP3    H141487   3.243   2.840   0.736  0.3250  0.3154 -0.5213
 5764TIP3    H241488   3.275   2.975   0.677  0.7252 -0.0757 -1.2126
 5765TIP3   OH241489   7.463   2.910   1.010 -0.0782 -0.3143 -0.0018
 5765TIP3    H141490   7.497   2.833   0.964 -1.4468 -1.0103  0.0933
 5765TIP3    H241491   7.536   2.972   1.012  0.8231 -1.3302 -0.7220
 5766TIP3   OH241492   4.429   5.076   2.113 -0.3417 -0.3619 -0.0235
 5766TIP3    H141493   4.335   5.094   2.115 -0.1681  0.9664 -1.5345
 5766TIP3    H241494   4.448   5.062   2.020  1.2160  0.9320  0.0598
 5767TIP3   OH241495   0.199   6.858   1.228  0.1425 -0.1272  0.5288
 5767TIP3    H141496   0.180   6.952   1.231  0.8080  0.0427 -0.3595
 5767TIP3    H241497   0.281   6.851   1.179  0.9697 -1.0482  1.9647
 5768TIP3   OH241498   0.020   4.159   2.964 -0.3931 -0.5526 -0.0848
 5768TIP3    H141499   0.020   4.081   2.909  1.1662 -0.1447 -0.7080
 5768TIP3    H241500   0.050   4.229   2.907  0.1782  0.1047  0.9973
 5769TIP3   OH241501   4.592   6.791   2.019  0.4285  0.4947  0.2904
 5769TIP3    H141502   4.599   6.867   1.961  0.8379  0.0828 -0.2093
 5769TIP3    H241503   4.570   6.719   1.961  3.8476 -0.5663  0.1122
 5770TIP3   OH241504   1.130   2.780   2.066  0.1677  0.1447  0.0073
 5770TIP3    H141505   1.151   2.730   1.987 -1.8636 -0.2551 -0.3276
 5770TIP3    H241506   1.091   2.716   2.126 -1.6894  1.1196 -0.1017
 5771TIP3   OH241507   1.683   5.767   2.239  0.5685 -0.2915 -0.2079
 5771TIP3    H141508   1.659   5.674   2.235 -2.8394  0.4956 -0.6501
 5771TIP3    H241509   1.702   5.791   2.148 -1.6180  0.0821 -0.6153
 5772TIP3   OH241510   1.447   5.416   1.958  0.7503 -0.5283 -0.0615
 5772TIP3    H141511   1.401   5.332   1.948  0.1484 -0.1771 -0.2723
 5772TIP3    H241512   1.462   5.445   1.868 -2.2414  1.3197 -0.0951
 5773TIP3   OH241513   5.927   7.407   2.734 -0.7245 -0.0557 -0.0379
 5773TIP3    H141514   5.867   7.366   2.797  0.0136  0.3002  0.9238
 5773TIP3    H241515   5.897   7.376   2.649 -0.6798 -1.9807  0.5970
 5774TIP3   OH241516   1.821   7.001   0.938 -0.6912 -0.7893 -0.0855
 5774TIP3    H141517   1.882   6.930   0.957  0.9529  0.7940  0.9827
 5774TIP3    H241518   1.767   7.009   1.017 -0.4118 -0.4483  0.0776
 5775TIP3   OH241519   0.716   0.439   1.304  0.3236 -0.2240  0.2966
 5775TIP3    H141520   0.660   0.364   1.284  0.5657 -0.1864 -0.5814
 5775TIP3    H241521   0.730   0.434   1.398 -0.2544 -0.8627  0.3601
 5776TIP3   OH241522   4.721   3.337   2.078  0.0149  0.1490 -0.2496
 5776TIP3    H141523   4.732   3.245   2.100 -2.0498  0.4361  2.4428
 5776TIP3    H241524   4.650   3.338   2.014 -1.9176 -0.0280  1.8044
 5777TIP3   OH241525   2.711   0.048   0.582  0.2324  0.0174  0.1984
 5777TIP3    H141526   2.724   0.074   0.673 -0.1736  0.6520  0.0840
 5777TIP3    H241527   2.703  -0.047   0.585  2.3279 -0.1793  0.5568
 5778TIP3   OH241528   4.224   7.623   1.581 -0.6618 -0.1950 -0.1763
 5778TIP3    H141529   4.267   7.686   1.639 -1.6866  1.9897 -1.6964
 5778TIP3    H241530   4.294   7.560   1.560 -0.2982 -1.3047  3.5102
 5779TIP3   OH241531   2.635   7.154   2.484 -0.0241 -0.1382  0.3438
 5779TIP3    H141532   2.569   7.117   2.543 -1.4456  0.3487 -0.8967
 5779TIP3    H241533   2.624   7.249   2.494 -0.6759 -0.0352 -1.0744
 5780TIP3   OH241534   5.011   7.039   1.325 -0.2683 -0.1034 -0.6641
 5780TIP3    H141535   5.045   7.126   1.346 -1.8383  0.6708 -1.1724
 5780TIP3    H241536   5.051   6.981   1.390  0.5383  1.0479 -0.1045
 5781TIP3   OH241537   4.333   7.411   2.669 -0.2993 -0.0820 -0.0945
 5781TIP3    H141538   4.307   7.335   2.616  0.2782 -0.4403  0.1279
 5781TIP3    H241539   4.373   7.471   2.607  1.2924 -0.9279  0.0714
 5782TIP3   OH241540   5.648   2.032   2.227  0.1638 -0.2220  0.1866
 5782TIP3    H141541   5.716   2.086   2.269  0.3103 -0.3044  0.0561
 5782TIP3    H241542   5.600   1.993   2.301 -0.0142  0.1754  0.2821
 5783TIP3   OH241543   0.334   1.419   2.128  0.4050 -0.3781 -0.3889
 5783TIP3    H141544   0.313   1.326   2.121  0.5620 -0.4285 -0.1678
 5783TIP3    H241545   0.406   1.423   2.189  0.0614 -0.0638 -0.0008
 5784TIP3   OH241546   5.154   7.105   2.188  0.2352 -0.2161  0.8603
 5784TIP3    H141547   5.212   7.117   2.264  0.4720 -0.9742  0.8012
 5784TIP3    H241548   5.068   7.136   2.219  0.6525  0.9299  0.9456
 5785TIP3   OH241549   1.287   5.204   1.714 -0.7765 -0.3396  0.3174
 5785TIP3    H141550   1.301   5.141   1.785  0.6600  0.7494  1.0434
 5785TIP3    H241551   1.280   5.150   1.635 -0.9502 -1.4784  1.0780
 5786TIP3   OH241552   2.082   2.069   1.742 -0.2597  0.2132  0.5521
 5786TIP3    H141553   2.034   2.147   1.713  0.6808  0.8740  0.7363
 5786TIP3    H241554   2.146   2.102   1.805  0.7897 -0.5676 -0.0666
 5787TIP3   OH241555   2.790   4.624   1.054 -0.4893  0.1294  0.2794
 5787TIP3    H141556   2.747   4.556   1.105 -1.4643  1.5754  1.4847
 5787TIP3    H241557   2.792   4.700   1.112 -0.5441  1.5016 -1.4200
 5788TIP3   OH241558   0.301   5.947   2.865 -0.3911 -0.8976  0.4174
 5788TIP3    H141559   0.326   5.981   2.951 -1.0336 -1.0837  0.6859
 5788TIP3    H241560   0.349   5.864   2.858  1.2376  0.0709 -0.2743
 5789TIP3   OH241561   1.183   7.113   1.739  0.5934  0.8410  0.4084
 5789TIP3    H141562   1.148   7.159   1.815 -1.2125  0.3460 -0.0639
 5789TIP3    H241563   1.206   7.026   1.772  0.3864  0.8304  0.5272
 5790TIP3   OH241564   4.231   1.430   2.969  0.0249 -0.3263 -0.4502
 5790TIP3    H141565   4.295   1.413   3.038 -0.2182 -0.6739 -0.3085
 5790TIP3    H241566   4.163   1.364   2.982 -0.4850  0.1877 -0.4457
 5791TIP3   OH241567   1.590   5.274   0.870 -0.3738 -0.2154 -0.0912
 5791TIP3    H141568   1.597   5.277   0.774 -1.8486  1.8039 -0.1968
 5791TIP3    H241569   1.578   5.181   0.890 -0.8300 -0.5984 -1.9333
 5792TIP3   OH241570   7.515   2.640   1.365 -0.3862  0.3476  0.0493
 5792TIP3    H141571   7.467   2.596   1.296  0.6999 -0.3433 -0.2879
 5792TIP3    H241572   7.458   2.634   1.442 -0.1987 -1.8063  0.0614
 5793TIP3   OH241573   7.069   6.675   2.105  0.4537  0.1785  0.3528
 5793TIP3    H141574   7.060   6.755   2.053 -0.7017  0.1288  0.4616
 5793TIP3    H241575   7.126   6.619   2.054 -1.8834 -0.5081 -1.6621
 5794TIP3   OH241576   4.126   4.458   1.873  0.3338 -0.4053  0.4923
 5794TIP3    H141577   4.055   4.425   1.927 -0.6261 -2.5312 -1.9027
 5794TIP3    H241578   4.089   4.533   1.827 -0.1458 -1.0586 -0.1987
 5795TIP3   OH241579   4.771   3.734   1.507  0.5870  0.4160  0.7847
 5795TIP3    H141580   4.856   3.692   1.496  1.2660  1.6008  1.4067
 5795TIP3    H241581   4.719   3.668   1.555  1.0678 -0.3933  0.2254
 5796TIP3   OH241582   6.933   1.528   2.045 -0.6966 -0.2523  0.5686
 5796TIP3    H141583   6.885   1.455   2.005 -1.5639  0.3315  0.5300
 5796TIP3    H241584   6.869   1.571   2.101 -0.2588  0.6174  0.4203
 5797TIP3   OH241585   5.356   4.362   2.098 -0.4186 -0.3761  0.1237
 5797TIP3    H141586   5.342   4.306   2.175 -5.2853  1.8868  1.2659
 5797TIP3    H241587   5.389   4.444   2.134  0.0748 -0.2334 -0.6295
 5798TIP3   OH241588   5.340   4.136   3.212  0.1789 -0.2194  0.1659
 5798TIP3    H141589   5.269   4.192   3.180  0.1729 -0.5522 -0.4088
 5798TIP3    H241590   5.418   4.191   3.211 -0.0081  0.0570  0.5149
 5799TIP3   OH241591   4.869   1.868   2.197  0.0116  0.1778 -0.1198
 5799TIP3    H141592   4.791   1.869   2.142 -0.3298  0.1069  0.3475
 5799TIP3    H241593   4.835   1.872   2.287  0.5038 -0.8885  0.1255
 5800TIP3   OH241594   2.478   3.366   0.867 -0.3775 -0.7144  0.2854
 5800TIP3    H141595   2.385   3.377   0.845 -0.5062 -0.9781  0.6893
 5800TIP3    H241596   2.518   3.335   0.785 -0.5572 -0.1484 -0.0225
 5801TIP3   OH241597   2.988   2.097   3.172 -0.0074  0.1183 -0.9379
 5801TIP3    H141598   2.904   2.141   3.182 -0.1595 -0.1445 -1.0458
 5801TIP3    H241599   3.037   2.152   3.111  0.8186  1.5772  0.9266
 5802TIP3   OH241600   1.091   5.382   2.222  0.6543  0.8177  0.4125
 5802TIP3    H141601   1.037   5.335   2.159  0.1323  0.5181  1.0772
 5802TIP3    H241602   1.174   5.334   2.224 -0.2721 -0.8339  1.9604
 5803TIP3   OH241603   5.349   4.515   2.708  0.0215  0.2902  0.0110
 5803TIP3    H141604   5.320   4.490   2.796  0.9558  1.4200  0.6710
 5803TIP3    H241605   5.369   4.609   2.716  0.4012  0.3352 -1.3392
 5804TIP3   OH241606   4.361   2.689   0.502 -0.1024  0.2458 -0.2174
 5804TIP3    H141607   4.277   2.657   0.468 -0.5992 -0.4531  1.5543
 5804TIP3    H241608   4.403   2.612   0.540  0.1077  1.0732  1.3044
 5805TIP3   OH241609   6.045   6.554   2.229  0.3742  0.5322  0.3168
 5805TIP3    H141610   6.085   6.519   2.149 -0.8275 -0.0894 -0.0394
 5805TIP3    H241611   5.950   6.544   2.214  0.1031  1.3694  1.3885
 5806TIP3   OH241612   5.605   3.570   0.814 -0.3656 -0.4507 -0.2820
 5806TIP3    H141613   5.696   3.596   0.828 -0.3512 -0.8916  0.4975
 5806TIP3    H241614   5.608   3.476   0.800 -0.7414 -0.5355  0.1656
 5807TIP3   OH241615   2.256   2.089   3.028  0.4383  0.1375  0.0274
 5807TIP3    H141616   2.335   2.041   3.002  0.5894  0.8192 -0.7904
 5807TIP3    H241617   2.186   2.023   3.025  0.8364 -0.2853 -0.0041
 5808TIP3   OH241618   5.045   0.267   0.567  0.1594 -0.2487  0.1403
 5808TIP3    H141619   5.062   0.333   0.634  1.4187 -0.9047  0.5093
 5808TIP3    H241620   5.034   0.317   0.486  1.3635  0.4155  0.3659
 5809TIP3   OH241621   4.301   1.126   2.187  0.0159  0.5032 -0.7416
 5809TIP3    H141622   4.295   1.040   2.144  0.7867  1.2010 -2.3170
 5809TIP3    H241623   4.350   1.180   2.126  1.8958  1.3605  1.3674
 5810TIP3   OH241624   7.423   0.918   0.915  0.1432 -0.3205 -0.4232
 5810TIP3    H141625   7.442   1.006   0.884  1.1985 -0.2390  0.3605
 5810TIP3    H241626   7.410   0.928   1.009 -1.3005 -0.7931 -0.5448
 5811TIP3   OH241627   4.023   5.446   3.226 -0.0261  0.1151  0.0938
 5811TIP3    H141628   4.083   5.398   3.284  0.8447 -0.1614 -1.0076
 5811TIP3    H241629   3.936   5.431   3.264  0.2695 -1.9744  0.0610
 5812TIP3   OH241630   3.286   1.483   2.136 -0.2867  0.5132 -0.5681
 5812TIP3    H141631   3.223   1.534   2.188  0.3514  0.5600  0.1755
 5812TIP3    H241632   3.236   1.409   2.103 -0.8376  0.7776 -0.3387
 5813TIP3   OH241633   1.152   5.155   4.016  0.3933  0.1544  0.3345
 5813TIP3    H141634   1.172   5.086   3.953 -2.0010 -0.7793  0.4707
 5813TIP3    H241635   1.153   5.236   3.965 -1.3441 -0.5596 -0.9448
 5814TIP3   OH241636   5.878   4.559   3.249  0.0209 -0.0289  0.1023
 5814TIP3    H141637   5.848   4.649   3.255 -1.3723 -0.4917  0.3189
 5814TIP3    H241638   5.934   4.558   3.171  0.7214  1.1885  0.5673
 5815TIP3   OH241639   1.201   5.947   0.873 -0.1970 -0.2992  0.5072
 5815TIP3    H141640   1.141   5.928   0.944  0.3399 -0.4121  0.9405
 5815TIP3    H241641   1.287   5.950   0.915 -0.0754  1.5405  0.2098
 5816TIP3   OH241642   2.843   7.297   0.685  0.1236 -0.2312 -0.1298
 5816TIP3    H141643   2.794   7.326   0.608 -1.3897 -2.3044 -0.0026
 5816TIP3    H241644   2.859   7.378   0.735 -1.4418  0.7653 -1.1546
 5817TIP3   OH241645   6.699   7.215   3.350  0.1285 -0.8139 -0.1589
 5817TIP3    H141646   6.615   7.250   3.319  0.4437 -1.4446 -1.8199
 5817TIP3    H241647   6.761   7.239   3.282  1.0063 -1.6543  0.3307
 5818TIP3   OH241648   0.294   1.237   1.623  0.6327  0.1135 -0.2605
 5818TIP3    H141649   0.236   1.264   1.694  1.3435  3.5836 -0.8013
 5818TIP3    H241650   0.337   1.159   1.655 -1.4236 -0.3036  1.7573
 5819TIP3   OH241651   4.027   0.183   1.626 -0.3389 -0.0196 -0.2222
 5819TIP3    H141652   4.096   0.236   1.666  0.8810  0.4776 -2.7488
 5819TIP3    H241653   4.070   0.100   1.605 -1.3250 -0.7862  0.6918
 5820TIP3   OH241654   7.363   4.086   2.135  0.0110  0.1185 -0.0249
 5820TIP3    H141655   7.423   4.076   2.061 -1.8921  2.0164 -1.9496
 5820TIP3    H241656   7.387   4.170   2.175  1.0437 -0.9032  1.6169
 5821TIP3   OH241657   7.410   3.875   1.078 -0.3869  0.3270  0.1733
 5821TIP3    H141658   7.496   3.909   1.101  0.2994 -0.0394 -1.6975
 5821TIP3    H241659   7.399   3.897   0.986 -2.4307  0.5897  0.4265
 5822TIP3   OH241660   6.244   7.574   3.295 -0.1408 -0.0491  0.2084
 5822TIP3    H141661   6.211   7.631   3.226  1.8609 -0.7408 -1.4447
 5822TIP3    H241662   6.211   7.487   3.273 -1.3971  0.0729  1.4859
 5823TIP3   OH241663   5.272   0.944   0.552  0.0156 -0.0019  0.7255
 5823TIP3    H141664   5.246   0.882   0.620 -2.2171  1.1667  1.0570
 5823TIP3    H241665   5.217   1.021   0.568 -1.2085  0.0743 -2.8354
 5824TIP3   OH241666   4.513   6.996   1.140  0.2880 -0.1260  0.4600
 5824TIP3    H141667   4.526   6.942   1.062 -1.0496 -0.8536  0.7095
 5824TIP3    H241668   4.418   6.995   1.154  0.2405  2.0674  0.6456
 5825TIP3   OH241669   0.618   4.795   0.678  0.0417  0.1266  0.1883
 5825TIP3    H141670   0.707   4.760   0.681  0.1299  0.3425  0.0667
 5825TIP3    H241671   0.629   4.889   0.664 -0.2470 -0.1253 -1.9419
 5826TIP3   OH241672   6.947   1.102   1.648 -0.1823  0.2453 -0.1715
 5826TIP3    H141673   6.992   1.051   1.715 -3.3850 -0.3292  1.7623
 5826TIP3    H241674   7.010   1.169   1.622  1.9945 -0.9301  1.7279
 5827TIP3   OH241675   2.960   2.328   1.884 -0.0386  0.1390  0.2844
 5827TIP3    H141676   2.958   2.387   1.959  0.0835  1.0439 -0.3941
 5827TIP3    H241677   3.031   2.267   1.902  0.4543  0.7926  0.5861
 5828TIP3   OH241678   0.725   7.395   2.559  0.0009  0.2769 -0.3634
 5828TIP3    H141679   0.706   7.479   2.602  0.2267  0.3273 -0.3582
 5828TIP3    H241680   0.692   7.329   2.620 -1.0571  0.3789 -0.8092
 5829TIP3   OH241681   0.583   7.327   0.497  0.3041  0.2429  0.2630
 5829TIP3    H141682   0.510   7.266   0.506 -0.1761  0.1307 -3.2717
 5829TIP3    H241683   0.661   7.272   0.493  0.0688 -0.0272 -0.8695
 5830TIP3   OH241684   5.754   7.193   2.818  0.2113 -0.9647 -0.0965
 5830TIP3    H141685   5.723   7.115   2.772  1.4447 -0.4152 -1.9688
 5830TIP3    H241686   5.823   7.161   2.876 -1.1493 -1.6240  1.2219
 5831TIP3   OH241687   5.056   5.285   2.081 -0.0281  0.3084  0.4128
 5831TIP3    H141688   5.129   5.336   2.045  0.9584 -2.0040 -1.0636
 5831TIP3    H241689   5.098   5.212   2.126 -1.4353 -0.6174  0.2677
 5832TIP3   OH241690   0.283   7.012   2.266  0.2533  0.2188  0.2328
 5832TIP3    H141691   0.332   7.046   2.341  0.8037 -0.0692  0.0140
 5832TIP3    H241692   0.229   6.942   2.302 -0.8195  1.2568  0.6680
 5833TIP3   OH241693   5.235   6.369   3.054 -0.1574 -0.5486 -0.2365
 5833TIP3    H141694   5.210   6.442   2.996  0.9264  0.1418  0.1311
 5833TIP3    H241695   5.221   6.403   3.143  2.7112  0.1899  0.0352
 5834TIP3   OH241696   5.569   7.324   0.960 -0.3444 -0.9992  0.6534
 5834TIP3    H141697   5.626   7.346   1.034  0.2011  0.6397 -0.2064
 5834TIP3    H241698   5.617   7.356   0.883 -2.6643  1.0199 -0.0630
 5835TIP3   OH241699   1.114   2.424   0.453  0.1588 -0.0451  0.3539
 5835TIP3    H141700   1.136   2.484   0.382  1.2589 -0.7790  0.0545
 5835TIP3    H241701   1.175   2.447   0.524  0.8461 -1.0180  0.1065
 5836TIP3   OH241702   2.687   5.270   0.808 -0.5072 -0.4382  0.8821
 5836TIP3    H141703   2.680   5.303   0.719  0.7292 -0.0702  0.9034
 5836TIP3    H241704   2.691   5.350   0.862 -0.8904 -0.6582  1.2478
 5837TIP3   OH241705   7.439   5.546   1.085  0.0237  0.6722  0.3310
 5837TIP3    H141706   7.520   5.501   1.105 -1.4898 -1.8169  1.2860
 5837TIP3    H241707   7.402   5.570   1.170 -0.8139  0.6532 -0.0140
 5838TIP3   OH241708   3.582   7.125   1.876  0.5216 -0.0749  0.2550
 5838TIP3    H141709   3.558   7.071   1.951  0.3603  1.4022  1.3015
 5838TIP3    H241710   3.510   7.187   1.866 -0.8730 -1.9661 -2.9219
 5839TIP3   OH241711   2.635   4.414   1.236  0.2061  0.1081 -0.1742
 5839TIP3    H141712   2.684   4.400   1.317  1.8724 -0.2859 -1.1891
 5839TIP3    H241713   2.549   4.377   1.253  1.0514 -1.4843  0.8834
 5840TIP3   OH241714   2.689   7.343   1.256  0.4972 -0.2202  1.1315
 5840TIP3    H141715   2.600   7.325   1.224  1.0455  0.4188 -0.9187
 5840TIP3    H241716   2.742   7.272   1.219  1.0833  0.2187  1.1220
 5841TIP3   OH241717   2.855   4.334   0.885 -0.1827 -0.0781  0.3324
 5841TIP3    H141718   2.863   4.302   0.975  0.0715 -0.6824  0.0989
 5841TIP3    H241719   2.761   4.331   0.867 -0.1165 -1.2942  0.1086
 5842TIP3   OH241720   5.689   0.811   0.508  0.0535  0.3259 -0.7608
 5842TIP3    H141721   5.646   0.831   0.591  0.4262 -1.1757 -0.1814
 5842TIP3    H241722   5.632   0.850   0.442 -2.6557 -2.1551 -0.0941
 5843TIP3   OH241723   1.953   3.103   2.425  0.2333 -0.3040 -0.1934
 5843TIP3    H141724   1.888   3.173   2.428  0.8184  0.2330  0.3914
 5843TIP3    H241725   2.037   3.147   2.441  0.7083 -1.0234 -0.6407
 5844TIP3   OH241726   4.310   3.968   1.588 -0.1842 -0.6711 -0.1261
 5844TIP3    H141727   4.365   3.890   1.585  1.8447  0.5280  2.5902
 5844TIP3    H241728   4.339   4.020   1.513  0.1907 -1.4259 -0.5183
 5845TIP3   OH241729   0.927   6.629   2.517  0.2061  0.4510  0.3487
 5845TIP3    H141730   0.959   6.573   2.446  3.4945  2.4028  0.0899
 5845TIP3    H241731   0.927   6.572   2.594 -1.7177 -1.2301 -0.8072
 5846TIP3   OH241732   1.460   5.221   0.356 -0.0168  0.2408 -0.5935
 5846TIP3    H141733   1.444   5.242   0.264 -0.3779 -0.8855 -0.7953
 5846TIP3    H241734   1.405   5.282   0.404  0.9091  1.5082 -1.0762
 5847TIP3   OH241735   6.364   7.525   1.116 -0.0068 -0.0194  0.0541
 5847TIP3    H141736   6.296   7.489   1.174 -0.6988  0.1555 -0.6282
 5847TIP3    H241737   6.322   7.600   1.074  1.4066  1.6106  1.4367
 5848TIP3   OH241738   1.494   1.892   2.455  0.4375  0.3937 -0.0147
 5848TIP3    H141739   1.497   1.939   2.539 -1.7517  0.1463  0.2572
 5848TIP3    H241740   1.446   1.811   2.475  0.0417  0.2461 -1.4568
 5849TIP3   OH241741   2.708   4.362   1.517 -0.4027 -0.1386 -0.4262
 5849TIP3    H141742   2.736   4.438   1.567 -0.6393  0.5085 -1.2426
 5849TIP3    H241743   2.636   4.325   1.567 -1.5306  1.2806 -0.9098
 5850TIP3   OH241744   5.918   1.026   2.146  0.0633 -0.1814  0.0476
 5850TIP3    H141745   5.959   1.096   2.094 -1.3653  1.1621  0.6569
 5850TIP3    H241746   5.826   1.030   2.122  0.0022 -2.1309 -0.1540
 5851TIP3   OH241747   7.069   0.458   0.967  0.6599 -0.1416 -0.5495
 5851TIP3    H141748   7.052   0.552   0.977  2.1753  0.3388 -1.9875
 5851TIP3    H241749   7.119   0.452   0.885 -0.5017 -2.3505 -1.1668
 5852TIP3   OH241750   1.630   1.386   1.517  0.0755 -0.0097  0.2750
 5852TIP3    H141751   1.625   1.307   1.464  1.0176  0.6169 -0.8114
 5852TIP3    H241752   1.543   1.395   1.555 -0.5371 -0.6839 -0.9011
 5853TIP3   OH241753   2.033   5.871   2.078 -0.1412  0.2076 -0.2521
 5853TIP3    H141754   1.940   5.890   2.091 -0.1911 -0.9432  1.2026
 5853TIP3    H241755   2.035   5.813   2.002 -0.5625  0.6074 -0.5764
 5854TIP3   OH241756   0.277   3.744   0.609 -0.3994  0.5111 -0.7565
 5854TIP3    H141757   0.194   3.782   0.583 -1.4619  0.4137  2.1492
 5854TIP3    H241758   0.325   3.817   0.649 -0.0920  0.0526 -0.2825
 5855TIP3   OH241759   1.640   2.880   1.157  0.0072  0.3749 -0.2597
 5855TIP3    H141760   1.630   2.812   1.091 -2.0591 -0.2824  0.6704
 5855TIP3    H241761   1.623   2.837   1.240  1.6006  1.4040  0.6604
 5856TIP3   OH241762   4.195   1.271   0.498 -0.1364  0.1868  0.4165
 5856TIP3    H141763   4.286   1.244   0.488 -0.0371  0.5203  0.4333
 5856TIP3    H241764   4.166   1.227   0.578 -0.5904 -1.5407 -0.6423
 5857TIP3   OH241765   7.153   1.653   2.318 -0.2981  0.3423  0.0104
 5857TIP3    H141766   7.243   1.625   2.302 -0.0262  1.5968 -0.8714
 5857TIP3    H241767   7.154   1.689   2.407 -0.3596 -1.1754  0.6566
 5858TIP3   OH241768   4.878   6.526   2.831  0.1135 -0.7452 -0.3904
 5858TIP3    H141769   4.882   6.568   2.917  1.2423 -2.1567  0.2890
 5858TIP3    H241770   4.935   6.579   2.776 -1.3385  0.7135 -0.5603
 5859TIP3   OH241771   0.923   2.099   2.261 -0.0362  0.5145 -0.0524
 5859TIP3    H141772   0.987   2.055   2.205 -0.5050 -3.6681  2.3122
 5859TIP3    H241773   0.840   2.053   2.245 -0.7712  0.9502  2.0638
 5860TIP3   OH241774   5.516   2.108   2.924 -0.5384 -0.2402 -0.5692
 5860TIP3    H141775   5.443   2.081   2.980 -0.5524 -0.1949 -0.5663
 5860TIP3    H241776   5.591   2.114   2.983 -0.3958 -0.8761 -0.6732
 5861TIP3   OH241777   7.381   5.867   0.435  0.0897 -0.1709 -0.0051
 5861TIP3    H141778   7.475   5.855   0.447  0.1226  2.0479  3.5495
 5861TIP3    H241779   7.342   5.785   0.465  0.8334 -0.4427  0.2309
 5862TIP3   OH241780   4.433   6.008   1.787  0.1530 -0.0671  0.0007
 5862TIP3    H141781   4.398   5.936   1.735  1.9001 -0.8692 -0.1521
 5862TIP3    H241782   4.427   5.978   1.878  2.3049 -1.1356 -0.1571
 5863TIP3   OH241783   2.297   4.161   1.751 -0.7372  0.3718  0.3609
 5863TIP3    H141784   2.250   4.078   1.747 -1.7946  0.8919  1.4931
 5863TIP3    H241785   2.387   4.139   1.726 -0.8731 -1.2149  1.1597
 5864TIP3   OH241786   2.657   5.264   1.958 -0.2294  0.4161 -0.2291
 5864TIP3    H141787   2.615   5.315   1.889  0.9327  0.2982 -1.0550
 5864TIP3    H241788   2.621   5.299   2.039 -2.6904 -0.3699 -0.8922
 5865TIP3   OH241789   4.907   3.017   0.660  0.1072 -0.3436  0.1044
 5865TIP3    H141790   4.879   3.102   0.626  0.6189 -0.5222 -0.7779
 5865TIP3    H241791   4.992   3.035   0.700  0.9377 -0.7084 -1.4211
 5866TIP3   OH241792   0.176   5.842   1.588  0.2453 -0.0095 -0.3504
 5866TIP3    H141793   0.221   5.841   1.673 -0.1459  1.7115 -0.0870
 5866TIP3    H241794   0.085   5.858   1.609  0.0134 -0.3252 -1.0775
 5867TIP3   OH241795   4.780   5.735   1.244  0.7894  0.3645  0.3331
 5867TIP3    H141796   4.740   5.816   1.212 -1.3451 -1.0742 -0.8693
 5867TIP3    H241797   4.742   5.722   1.331 -0.0777 -0.1095 -0.1043
 5868TIP3   OH241798   3.420   0.499   1.302 -0.3805 -0.2699  0.4033
 5868TIP3    H141799   3.509   0.513   1.268 -0.1547 -2.4678 -0.0452
 5868TIP3    H241800   3.379   0.585   1.298  0.7966  0.2646 -2.0828
 5869TIP3   OH241801   6.249   5.560   0.732  0.4471 -0.0380 -0.2719
 5869TIP3    H141802   6.335   5.537   0.767  0.9007 -0.2931 -1.4806
 5869TIP3    H241803   6.268   5.622   0.662 -0.5992  2.2311  1.3484
 5870TIP3   OH241804   2.689   3.102   2.184 -0.1145  0.0215 -0.0393
 5870TIP3    H141805   2.603   3.133   2.155 -0.2792 -0.7699 -0.4285
 5870TIP3    H241806   2.741   3.181   2.195 -1.4534  0.6959  2.0799
 5871TIP3   OH241807   0.876   2.760   1.356 -0.2127 -0.2661 -0.2805
 5871TIP3    H141808   0.954   2.781   1.304  0.1124 -0.4291  0.1325
 5871TIP3    H241809   0.897   2.791   1.444 -0.4735 -0.6213 -0.0887
 5872TIP3   OH241810   3.147   3.615   3.127  0.2374  0.2346 -0.0227
 5872TIP3    H141811   3.158   3.557   3.052  1.1488 -1.1424  1.1002
 5872TIP3    H241812   3.052   3.629   3.133  0.1460  0.3130 -1.3537
 5873TIP3   OH241813   1.278   6.795   0.653  0.3567  0.0806  0.7189
 5873TIP3    H141814   1.364   6.794   0.695  0.6460 -0.4533  0.1420
 5873TIP3    H241815   1.236   6.714   0.683  0.7190 -0.5058 -0.2861
 5874TIP3   OH241816   7.467   3.395   1.506  0.2854  0.4662 -0.3583
 5874TIP3    H141817   7.435   3.467   1.453 -1.5468  0.8293  1.1365
 5874TIP3    H241818   7.542   3.431   1.554  0.6590  0.7389 -1.1387
 5875TIP3   OH241819   3.593   3.945   0.778  0.1342  0.2838  0.3477
 5875TIP3    H141820   3.505   3.921   0.749 -0.5915  0.6441  2.1239
 5875TIP3    H241821   3.628   3.998   0.707 -1.0171  0.0076 -0.4637
 5876TIP3   OH241822   4.451   0.820   1.388  0.5659  0.1970 -0.2741
 5876TIP3    H141823   4.527   0.811   1.445  0.6048  0.1838 -0.3276
 5876TIP3    H241824   4.395   0.746   1.411  0.0738  0.8100  0.5104
 5877TIP3   OH241825   4.432   6.054   1.293  1.2921  0.7161  0.7388
 5877TIP3    H141826   4.380   5.995   1.348  1.6170 -0.8058 -0.5118
 5877TIP3    H241827   4.367   6.104   1.243  1.0093  0.3519  0.7384
 5878TIP3   OH241828   2.587   5.908   2.248 -0.2998  0.0027 -0.2629
 5878TIP3    H141829   2.584   5.954   2.332 -0.0557  0.7211 -0.6406
 5878TIP3    H241830   2.497   5.877   2.234 -0.3003 -0.2890  0.3500
 5879TIP3   OH241831   0.848   3.219   2.501 -0.2069  0.3346 -0.4100
 5879TIP3    H141832   0.855   3.150   2.434  2.0299 -1.0876  1.1121
 5879TIP3    H241833   0.939   3.243   2.519 -0.8163  1.6024  1.2057
 5880TIP3   OH241834   1.873   4.161   2.600  0.6875  0.0579  0.0299
 5880TIP3    H141835   1.833   4.240   2.563  0.3119 -0.0124  0.2834
 5880TIP3    H241836   1.936   4.133   2.534  1.8288  1.3563  0.5117
 5881TIP3   OH241837   7.114   3.916   2.874  0.2986  0.8364  0.4620
 5881TIP3    H141838   7.047   3.959   2.928 -0.5096 -1.2337  1.2060
 5881TIP3    H241839   7.093   3.941   2.785 -0.4376  1.5653  0.8274
 5882TIP3   OH241840   1.354   7.010   1.515 -0.0930  0.1794  0.2786
 5882TIP3    H141841   1.340   7.072   1.443  0.0012  0.3032  0.3672
 5882TIP3    H241842   1.308   7.049   1.589 -1.2325 -0.5320 -0.0157
 5883TIP3   OH241843   0.933   0.397   2.226  0.2800  0.0360 -0.0371
 5883TIP3    H141844   0.921   0.306   2.254  2.3032 -0.6866 -1.2947
 5883TIP3    H241845   0.996   0.433   2.289  1.1066 -0.1082 -0.7624
 5884TIP3   OH241846   4.752   7.572   3.107 -0.3308 -0.1857 -0.1363
 5884TIP3    H141847   4.736   7.484   3.141 -0.8028  0.4592  1.3986
 5884TIP3    H241848   4.667   7.600   3.072 -0.1193 -0.4176 -0.8579
 5885TIP3   OH241849   3.240   3.453   2.876 -0.0599 -0.2211  0.0134
 5885TIP3    H141850   3.267   3.392   2.944 -0.6960  0.2779  0.7406
 5885TIP3    H241851   3.223   3.399   2.800  2.8297 -0.5727 -0.4857
 5886TIP3   OH241852   5.664   2.772   1.399 -0.3461 -0.0053 -0.4698
 5886TIP3    H141853   5.698   2.749   1.312 -2.3534 -2.7105 -0.6659
 5886TIP3    H241854   5.720   2.724   1.460 -0.7361 -0.4418 -0.4572
 5887TIP3   OH241855   1.978   6.387   2.228  0.0167  0.2931 -0.2687
 5887TIP3    H141856   2.024   6.412   2.148 -2.1490  1.2618 -1.2872
 5887TIP3    H241857   1.887   6.413   2.213 -0.5828 -0.0441  2.2881
 5888TIP3   OH241858   4.133   7.368   1.947 -0.3073  0.3687  0.3255
 5888TIP3    H141859   4.109   7.382   1.855  0.0361  1.5203  0.3980
 5888TIP3    H241860   4.109   7.277   1.964 -1.2872  0.4251 -0.6200
 5889TIP3   OH241861   5.533   4.282   3.133  0.0730  0.5913 -0.0850
 5889TIP3    H141862   5.576   4.296   3.217  0.0405 -0.6188  0.1586
 5889TIP3    H241863   5.602   4.250   3.076  0.2564  2.1135 -0.7548
 5890TIP3   OH241864   1.712   3.554   1.647 -0.3163  0.2628  0.3933
 5890TIP3    H141865   1.759   3.554   1.730  1.2299  0.4182 -0.4583
 5890TIP3    H241866   1.690   3.646   1.632  0.4193  0.3878  0.0731
 5891TIP3   OH241867   4.432   6.505   1.445 -0.0996 -0.2859 -0.6254
 5891TIP3    H141868   4.489   6.428   1.447  0.0807 -0.1705 -1.0912
 5891TIP3    H241869   4.377   6.492   1.368  0.3850  0.3699 -1.0901
 5892TIP3   OH241870   6.245   0.483   1.598  0.2207 -0.2232  0.1357
 5892TIP3    H141871   6.338   0.464   1.596  0.4063 -0.0484  3.0286
 5892TIP3    H241872   6.239   0.578   1.594  0.3680 -0.0936  1.9937
 5893TIP3   OH241873   5.467   7.139   2.683 -0.2599  0.0822 -0.3564
 5893TIP3    H141874   5.519   7.062   2.705 -1.3873 -0.8186 -0.7543
 5893TIP3    H241875   5.377   7.115   2.706 -1.1426  0.0502 -3.4228
 5894TIP3   OH241876   0.290   5.352   2.975  0.1727 -0.4851  0.2520
 5894TIP3    H141877   0.275   5.378   2.884 -0.5125 -1.5163  0.0510
 5894TIP3    H241878   0.207   5.314   3.003  0.4152 -0.2888  1.2728
 5895TIP3   OH241879   2.712   6.096   2.070  0.1017 -0.4603 -0.6770
 5895TIP3    H141880   2.687   6.042   2.145  0.4849  0.0907 -0.1385
 5895TIP3    H241881   2.807   6.102   2.076 -0.0048  1.1354 -0.0989
 5896TIP3   OH241882   5.578   6.454   0.894  0.2412  0.2965  0.0611
 5896TIP3    H141883   5.486   6.437   0.913  0.2387  0.3047  0.0566
 5896TIP3    H241884   5.576   6.530   0.837  0.2224  0.0217 -0.3116
 5897TIP3   OH241885   3.225   2.002   2.753  0.0361  0.2337 -0.1229
 5897TIP3    H141886   3.311   1.993   2.793 -0.0430 -0.2074 -0.0483
 5897TIP3    H241887   3.210   1.918   2.709 -0.0442  0.5743 -0.7494
 5898TIP3   OH241888   0.076   3.594   1.930 -0.0596 -0.7694  0.3766
 5898TIP3    H141889   0.071   3.522   1.992 -1.8170 -1.1992 -0.2234
 5898TIP3    H241890   0.169   3.600   1.908  0.1421 -2.8894  0.4113
 5899TIP3   OH241891   5.891   7.657   1.624  0.3170 -0.3277  0.8591
 5899TIP3    H141892   5.903   7.622   1.712 -0.5398 -2.5985  0.1423
 5899TIP3    H241893   5.953   7.609   1.569  0.1124  0.3033  0.0517
 5900TIP3   OH241894   1.615   1.133   1.382  0.2665  0.0735  0.0580
 5900TIP3    H141895   1.629   1.060   1.442 -0.1419  0.8723  1.1704
 5900TIP3    H241896   1.682   1.123   1.315 -0.2236 -1.7111 -0.2210
 5901TIP3   OH241897   6.804   5.647   2.131  0.0689  0.1768 -0.2739
 5901TIP3    H141898   6.719   5.677   2.098 -0.1369 -1.1569 -1.0549
 5901TIP3    H241899   6.837   5.590   2.061 -0.1115 -2.2841  1.5025
 5902TIP3   OH241900   5.022   2.046   2.067  0.3163 -0.5112 -0.0247
 5902TIP3    H141901   4.973   1.993   2.130  0.0227 -0.8283 -0.5233
 5902TIP3    H241902   4.999   2.010   1.982  1.1619 -0.4579 -0.2840
 5903TIP3   OH241903   2.803   4.778   2.531 -0.7490 -0.2743  0.3763
 5903TIP3    H141904   2.763   4.736   2.455  0.6955  0.7561 -1.0207
 5903TIP3    H241905   2.784   4.871   2.520  1.1624  0.1356  0.1435
 5904TIP3   OH241906   5.742   0.548   0.620  0.0904 -0.2741 -0.8560
 5904TIP3    H141907   5.817   0.585   0.667 -2.9314  2.4742  2.3433
 5904TIP3    H241908   5.713   0.620   0.563 -1.1351 -0.6478 -0.7176
 5905TIP3   OH241909   4.373   4.873   2.458 -0.5265 -0.1054 -0.3179
 5905TIP3    H141910   4.326   4.790   2.451  0.4751 -0.7134 -0.0179
 5905TIP3    H241911   4.432   4.873   2.384 -1.9729  1.3305 -1.5434
 5906TIP3   OH241912   2.599   2.748   0.897  0.6575 -0.6377  0.2649
 5906TIP3    H141913   2.547   2.753   0.977  0.0834 -1.7684 -0.0133
 5906TIP3    H241914   2.608   2.839   0.868 -0.7918 -0.3770  0.5591
 5907TIP3   OH241915   7.007   2.291   1.376 -0.3539 -0.0545 -0.7285
 5907TIP3    H141916   6.938   2.338   1.328 -2.1631  1.1199  2.6659
 5907TIP3    H241917   7.032   2.351   1.446  2.4550 -1.4614 -0.3994
 5908TIP3   OH241918   0.789   1.211   0.770  0.2165 -0.1220  0.5234
 5908TIP3    H141919   0.817   1.152   0.700 -0.3534 -1.9052  1.7178
 5908TIP3    H241920   0.720   1.264   0.731  0.1631 -0.8368 -0.3684
 5909TIP3   OH241921   1.252   2.605   1.888  0.2285 -0.2045  0.0728
 5909TIP3    H141922   1.214   2.518   1.872  1.3724 -1.1087  1.9052
 5909TIP3    H241923   1.311   2.619   1.814 -1.0856 -0.2752 -1.0336
 5910TIP3   OH241924   5.437   6.690   2.976  0.2968 -0.0447 -0.4377
 5910TIP3    H141925   5.416   6.749   2.904 -1.2587  0.3174  0.2900
 5910TIP3    H241926   5.353   6.652   3.002  1.0263 -1.2524  0.2653
 5911TIP3   OH241927   1.933   3.546   2.345 -0.0386  0.1788  0.1895
 5911TIP3    H141928   1.882   3.475   2.383  0.2761  1.4181  3.2074
 5911TIP3    H241929   2.024   3.518   2.357  0.0717  0.8092  0.9113
 5912TIP3   OH241930   7.305   7.399   1.648 -0.0432 -0.1314 -0.4680
 5912TIP3    H141931   7.331   7.492   1.649 -1.0922  0.2064 -1.5905
 5912TIP3    H241932   7.381   7.353   1.682  0.4230  1.1624  0.3333
 5913TIP3   OH241933   5.185   0.767   0.738 -0.1152 -0.2989  0.8653
 5913TIP3    H141934   5.126   0.717   0.682  2.6443 -2.4002 -0.4208
 5913TIP3    H241935   5.185   0.719   0.821  0.3880 -0.8078  0.5784
 5914TIP3   OH241936   7.264   4.941   0.979 -0.0602 -0.0808 -0.3941
 5914TIP3    H141937   7.195   4.977   0.924  0.5846  0.9726 -0.5326
 5914TIP3    H241938   7.301   4.869   0.928 -0.1820  0.2001 -0.8840
 5915TIP3   OH241939   7.675   3.186   0.596  0.6578  0.0822  0.1606
 5915TIP3    H141940   7.647   3.098   0.622  0.6198 -0.0725 -0.3990
 5915TIP3    H241941   7.604   3.219   0.542  0.8471  0.3077  0.0495
 5916TIP3   OH241942   2.533   3.288   3.270  0.8238 -0.5003  0.3267
 5916TIP3    H141943   2.449   3.263   3.231  0.6481  2.2283 -1.3332
 5916TIP3    H241944   2.522   3.270   3.364 -1.4774 -0.5791  0.1046
 5917TIP3   OH241945   3.709   2.893   1.546  0.3472 -0.0883 -0.8928
 5917TIP3    H141946   3.682   2.985   1.538  1.0093  0.4268  1.7452
 5917TIP3    H241947   3.628   2.846   1.565  0.1351  0.0850 -1.3499
 5918TIP3   OH241948   3.310   1.582   1.365 -0.7745  0.9668  0.0111
 5918TIP3    H141949   3.340   1.661   1.408  1.0134 -0.4840  1.5633
 5918TIP3    H241950   3.271   1.613   1.283  3.6697  3.2300 -1.5924
 5919TIP3   OH241951   0.364   4.948   1.543 -0.5038 -0.3234 -0.6270
 5919TIP3    H141952   0.430   4.884   1.515  0.7420  0.6077  0.1015
 5919TIP3    H241953   0.281   4.905   1.525  0.2500 -2.9836  1.6259
 5920TIP3   OH241954   5.607   3.966   1.917  0.4325  0.5513  0.3419
 5920TIP3    H141955   5.617   4.061   1.921 -0.6951  0.8907 -2.4568
 5920TIP3    H241956   5.689   3.931   1.952  0.8713  2.5259  1.4099
 5921TIP3   OH241957   3.904   5.093   0.965  0.2496  0.4905 -0.5712
 5921TIP3    H141958   3.967   5.026   0.991  0.4581  0.0861 -2.0074
 5921TIP3    H241959   3.836   5.090   1.032  0.4182 -0.9382 -0.4334
 5922TIP3   OH241960   1.478   6.340   1.499 -0.3819  0.1762 -0.0833
 5922TIP3    H141961   1.487   6.434   1.511 -1.9522  0.3585 -0.2088
 5922TIP3    H241962   1.394   6.329   1.454 -0.8675 -1.3749  1.1335
 5923TIP3   OH241963   5.229   2.700   0.675  0.2113  0.3497  0.0391
 5923TIP3    H141964   5.239   2.608   0.653  0.2504  0.2925  0.2944
 5923TIP3    H241965   5.135   2.717   0.667  0.2772  0.4543 -0.6484
 5924TIP3   OH241966   3.397   7.256   1.534 -0.3786  0.0736 -0.1889
 5924TIP3    H141967   3.302   7.262   1.534 -0.5139 -1.5778 -0.0801
 5924TIP3    H241968   3.427   7.341   1.566 -1.8207  0.4700  0.1515
 5925TIP3   OH241969   5.452   3.868   1.712 -0.1283 -0.0773 -0.3655
 5925TIP3    H141970   5.396   3.806   1.757 -2.5675  2.9460  1.1432
 5925TIP3    H241971   5.503   3.910   1.781 -0.9606  1.8193 -0.8362
 5926TIP3   OH241972   1.890   0.369   0.392 -0.0420  0.2601  0.1421
 5926TIP3    H141973   1.852   0.336   0.474  1.2430  0.4581  0.8536
 5926TIP3    H241974   1.982   0.343   0.397 -0.3527 -1.6331 -2.2525
 5927TIP3   OH241975   1.889   5.029   0.515 -0.1840 -0.7116  0.4485
 5927TIP3    H141976   1.809   5.000   0.558  0.3705 -1.2651  1.1310
 5927TIP3    H241977   1.871   5.119   0.489  0.3318  0.6497  4.2054
 5928TIP3   OH241978   5.754   2.057   1.690  0.4857  0.4863 -0.3616
 5928TIP3    H141979   5.824   1.995   1.710 -1.3795 -1.6867 -0.1015
 5928TIP3    H241980   5.772   2.133   1.745  2.8508  0.2040 -0.6617
 5929TIP3   OH241981   6.624   2.227   1.311 -0.3509  0.2748  0.7132
 5929TIP3    H141982   6.688   2.294   1.287 -0.0114 -0.3828 -0.2977
 5929TIP3    H241983   6.626   2.165   1.238 -2.4498  0.4442  0.4554
 5930TIP3   OH241984   6.923   3.561   1.593 -0.7108 -0.0646  0.3492
 5930TIP3    H141985   7.007   3.574   1.637 -0.6474  1.5129 -0.1775
 5930TIP3    H241986   6.940   3.494   1.527  0.3290  0.7539 -0.2362
 5931TIP3   OH241987   0.581   3.386   1.896  0.7707  0.2890 -0.0548
 5931TIP3    H141988   0.493   3.372   1.929  0.3349 -0.0368 -1.2979
 5931TIP3    H241989   0.617   3.454   1.953  0.4501 -0.9537  1.7199
 5932TIP3   OH241990   2.772   0.885   1.883  0.1496  0.1111 -0.1238
 5932TIP3    H141991   2.691   0.898   1.933 -0.1095  2.0628 -0.9510
 5932TIP3    H241992   2.792   0.792   1.893 -2.0245 -0.3597  0.3599
 5933TIP3   OH241993   6.872   4.760   0.816  0.5824 -0.1128 -0.6814
 5933TIP3    H141994   6.794   4.808   0.787 -0.0575 -0.6455  0.1163
 5933TIP3    H241995   6.944   4.820   0.797  0.2195 -0.3451 -3.1717
 5934TIP3   OH241996   1.800   0.562   1.040  0.6086  0.4308  0.4068
 5934TIP3    H141997   1.710   0.552   1.009  0.2991  0.1928  1.3500
 5934TIP3    H241998   1.790   0.594   1.130  1.4791  1.6173  0.1111
 5935TIP3   OH241999   2.922   0.418   0.739  0.0570 -0.7525 -0.8120
 5935TIP3    H142000   2.944   0.328   0.713 -0.2137 -2.0620  2.9473
 5935TIP3    H242001   2.827   0.423   0.732 -0.1908 -1.6838  1.3593
 5936TIP3   OH242002   0.383   3.138   1.595 -0.7570 -0.3156  0.3830
 5936TIP3    H142003   0.384   3.232   1.613  1.0373 -0.3438  0.5502
 5936TIP3    H242004   0.310   3.126   1.534  0.1389  1.4750 -1.1299
 5937TIP3   OH242005   5.726   1.484   1.119  0.4684  0.1477  0.0280
 5937TIP3    H142006   5.725   1.444   1.032  1.3243 -0.4405  0.2780
 5937TIP3    H242007   5.811   1.527   1.124  1.1009 -1.1557  1.1540
 5938TIP3   OH242008   0.035   7.200   1.461 -0.2573  0.6747 -0.2457
 5938TIP3    H142009   0.065   7.291   1.453 -0.2429  0.7367  0.4361
 5938TIP3    H242010  -0.031   7.203   1.531  0.7680 -0.0817  0.7824
 5939TIP3   OH242011   2.714   1.859   1.877 -0.0370 -0.1518 -0.5678
 5939TIP3    H142012   2.801   1.868   1.838  0.0061  2.4953 -0.0377
 5939TIP3    H242013   2.712   1.769   1.911  2.6227 -0.1756 -0.2707
 5940TIP3   OH242014   1.672   4.684   3.107 -0.9613  0.2867  0.1226
 5940TIP3    H142015   1.643   4.634   3.183 -1.4884 -0.9142 -0.8431
 5940TIP3    H242016   1.650   4.629   3.032  1.4149  0.5096 -0.8267
 5941TIP3   OH242017   4.358   2.796   1.777 -0.0294  0.3196 -0.1296
 5941TIP3    H142018   4.324   2.817   1.864  0.2038 -0.9525  0.2849
 5941TIP3    H242019   4.453   2.809   1.786  0.0409 -0.2234 -0.0632
 5942TIP3   OH242020   2.278   1.686   1.587 -0.5753  0.2680 -0.4332
 5942TIP3    H142021   2.331   1.695   1.667  0.7258  2.4341 -1.4360
 5942TIP3    H242022   2.336   1.641   1.525 -0.6847  0.7153 -0.8679
 5943TIP3   OH242023   4.248   0.911   2.036  0.0189 -0.5237 -0.0912
 5943TIP3    H142024   4.168   0.906   2.088 -1.7879 -1.2147 -2.7623
 5943TIP3    H242025   4.282   0.821   2.037 -0.2651 -0.6350 -0.4797
 5944TIP3   OH242026   4.662   2.927   0.524 -0.2728  0.0511 -0.2260
 5944TIP3    H142027   4.742   2.967   0.558 -0.0416  1.0189 -1.7979
 5944TIP3    H242028   4.636   2.983   0.451 -2.2808 -0.3616  0.1031
 5945TIP3   OH242029   5.048   7.648   3.165  0.2534  0.2275 -0.3048
 5945TIP3    H142030   4.977   7.584   3.170 -0.0499  0.6340  2.6670
 5945TIP3    H242031   5.128   7.597   3.177  0.2705  0.0855 -0.9775
 5946TIP3   OH242032   4.797   5.586   1.517 -0.0087  0.1115  0.3362
 5946TIP3    H142033   4.750   5.504   1.533 -0.2722  0.6776  2.9918
 5946TIP3    H242034   4.886   5.570   1.551  0.9240 -0.0267 -2.0060
 5947TIP3   OH242035   2.947   5.149   1.978  0.3403  0.1041  0.5034
 5947TIP3    H142036   2.853   5.142   1.962  0.3873 -0.2919  0.4030
 5947TIP3    H242037   2.967   5.241   1.962  0.2733 -0.1475 -1.1127
 5948TIP3   OH242038   2.956   3.492   1.149 -0.2987  0.0633  0.0533
 5948TIP3    H142039   2.909   3.463   1.071  2.1912 -0.9781 -1.1865
 5948TIP3    H242040   3.019   3.422   1.167  2.0070  2.0844  0.4805
 5949TIP3   OH242041   6.982   3.459   1.112 -0.2661  0.4201  0.6200
 5949TIP3    H142042   7.026   3.392   1.060  0.1201  0.8654  0.3740
 5949TIP3    H242043   7.004   3.437   1.203  0.9341  0.9748  0.4704
 5950TIP3   OH242044   3.881   0.079   2.840 -0.5068  0.2381  0.0960
 5950TIP3    H142045   3.936   0.038   2.907  0.2542  1.1258  0.0422
 5950TIP3    H242046   3.798   0.097   2.885  0.2217  1.4495  1.0413
 5951TIP3   OH242047   5.252   6.240   2.091  0.1885  0.0636 -0.4146
 5951TIP3    H142048   5.289   6.155   2.070  0.9813  0.8470 -2.4621
 5951TIP3    H242049   5.246   6.241   2.187  1.0509 -1.8980 -0.2992
 5952TIP3   OH242050   0.073   1.265   0.811  0.0012  0.3819 -0.2360
 5952TIP3    H142051   0.113   1.212   0.881 -0.5141 -0.2939 -0.4395
 5952TIP3    H242052   0.104   1.354   0.828 -1.3319  0.5237  1.7727
 5953TIP3   OH242053   0.517   1.680   1.245 -0.0848  0.0319  0.0126
 5953TIP3    H142054   0.501   1.665   1.338  1.8591  2.0212  0.7697
 5953TIP3    H242055   0.595   1.736   1.243 -1.4007  2.0063 -2.6977
 5954TIP3   OH242056   0.756   1.521   1.417  0.4729  0.5343 -0.5312
 5954TIP3    H142057   0.789   1.592   1.363  2.5595  0.7832  0.9656
 5954TIP3    H242058   0.762   1.443   1.362  0.7248  1.0819 -1.2876
 5955TIP3   OH242059   7.508   2.434   0.661  0.2139  0.6007 -0.3845
 5955TIP3    H142060   7.456   2.455   0.739 -0.1722  0.6366 -0.6539
 5955TIP3    H242061   7.557   2.514   0.643  1.5333  0.1070  0.7669
 5956TIP3   OH242062   7.144   0.055   8.400 -0.1473 -0.3758  1.0161
 5956TIP3    H142063   7.175  -0.008   8.335 -1.1719 -0.1835  0.3081
 5956TIP3    H242064   7.218   0.113   8.415  0.4685 -1.1165  0.8809
 5957TIP3   OH242065   5.586   2.411   2.540  0.1320 -0.0203 -0.4628
 5957TIP3    H142066   5.505   2.416   2.591  0.1327  0.4582 -0.5085
 5957TIP3    H242067   5.625   2.327   2.566  0.4922  0.5366  0.8567
 5958TIP3   OH242068   5.394   1.840   0.973 -0.4478 -0.4616  0.4205
 5958TIP3    H142069   5.438   1.873   1.052 -0.7731  0.5999  0.1730
 5958TIP3    H242070   5.440   1.882   0.901 -1.8287  0.6583  0.1528
 5959TIP3   OH242071   4.177   3.825   0.784 -0.1991 -0.1992  0.1691
 5959TIP3    H142072   4.142   3.744   0.821  0.3481 -0.2679  0.5494
 5959TIP3    H242073   4.163   3.890   0.853  2.3296 -0.6758  1.2236
 5960TIP3   OH242074   3.331   5.120   1.902 -0.0130 -0.7521 -0.1935
 5960TIP3    H142075   3.291   5.204   1.877 -0.5611 -1.4225 -1.6597
 5960TIP3    H242076   3.304   5.107   1.993 -1.9975 -0.4945 -0.6903
 5961TIP3   OH242077   0.963   2.952   1.527 -0.6585  0.0790  0.1196
 5961TIP3    H142078   0.946   3.041   1.497  2.5825  0.7328 -0.1903
 5961TIP3    H242079   0.980   2.961   1.621 -2.8592 -0.7177  0.6717
 5962TIP3   OH242080   2.685   7.044   2.883 -0.5268 -0.1231  0.0517
 5962TIP3    H142081   2.654   6.954   2.877 -0.9956 -0.1085  1.7577
 5962TIP3    H242082   2.605   7.097   2.884 -0.2574  0.3134 -0.8823
 5963TIP3   OH242083   1.911   5.682   3.605 -0.0058  0.3049 -0.4282
 5963TIP3    H142084   1.931   5.775   3.601  0.0312  0.2721 -1.1400
 5963TIP3    H242085   1.838   5.670   3.544  1.2163 -0.4217 -1.8421
 5964TIP3   OH242086   7.617   5.412   1.864  0.2583  0.2013 -0.2921
 5964TIP3    H142087   7.638   5.375   1.950 -0.6047  0.3176 -0.0134
 5964TIP3    H242088   7.587   5.336   1.813 -1.5432  0.4662  0.2895
 5965TIP3   OH242089   4.854   6.994   1.598 -0.6111 -0.2169 -0.3206
 5965TIP3    H142090   4.890   6.912   1.632 -0.2792 -0.3358 -0.9465
 5965TIP3    H242091   4.905   7.011   1.518 -0.7286  0.5590 -0.2303
 5966TIP3   OH242092   1.279   0.300   1.373 -0.3191  0.5353  0.6045
 5966TIP3    H142093   1.192   0.284   1.336  1.1042 -0.1251 -2.7670
 5966TIP3    H242094   1.295   0.393   1.357  1.7751 -0.3828 -4.5185
 5967TIP3   OH242095   3.348   2.891   2.234  0.7567  0.0205  0.9400
 5967TIP3    H142096   3.349   2.986   2.245 -0.0518  0.0636  0.7178
 5967TIP3    H242097   3.387   2.877   2.148 -1.0786  0.3360 -0.0077
 5968TIP3   OH242098   5.924   2.067   2.053 -0.8170  0.0402 -0.6275
 5968TIP3    H142099   5.966   2.136   2.001 -0.3096  0.2338  0.0196
 5968TIP3    H242100   5.884   2.114   2.126  1.9187 -0.5325  1.4075
 5969TIP3   OH242101   6.028   7.145   1.405  0.2218  0.3194 -0.2651
 5969TIP3    H142102   5.933   7.133   1.400  0.3276 -1.6235  1.2223
 5969TIP3    H242103   6.042   7.200   1.482  0.3446  0.0626 -0.1045
 5970TIP3   OH242104   2.741   6.620   2.335 -0.4642  0.3404  0.0868
 5970TIP3    H142105   2.705   6.706   2.315 -0.6446 -0.1432 -1.9301
 5970TIP3    H242106   2.802   6.603   2.263 -1.5646 -1.8363 -0.4197
 5971TIP3   OH242107   2.182   1.574   2.625  0.4376  0.0992 -0.3898
 5971TIP3    H142108   2.143   1.579   2.712  0.1823  0.0144 -0.4984
 5971TIP3    H242109   2.258   1.633   2.629  1.6783 -1.4750  0.5342
 5972TIP3   OH242110   3.004   7.387   2.946  0.1083 -0.2286  0.2617
 5972TIP3    H142111   3.097   7.364   2.951  1.0329  2.5268 -1.9502
 5972TIP3    H242112   2.976   7.392   3.038  2.4345 -0.0466  1.0344
 5973TIP3   OH242113   3.856   2.091   1.755  0.1006 -0.0784 -0.1680
 5973TIP3    H142114   3.810   2.054   1.680  1.1795  1.7695 -1.8359
 5973TIP3    H242115   3.946   2.103   1.725 -0.2646  4.5097 -0.1917
 5974TIP3   OH242116   7.512   1.875   1.566 -0.2636  0.4101 -0.1156
 5974TIP3    H142117   7.572   1.806   1.539 -0.7127  0.0397 -0.1759
 5974TIP3    H242118   7.543   1.902   1.653  1.4167  1.8624 -1.0847
 5975TIP3   OH242119   7.340   3.530   2.432  0.0829 -0.3108 -0.0869
 5975TIP3    H142120   7.397   3.454   2.438 -0.0696 -0.4241 -0.0772
 5975TIP3    H242121   7.280   3.521   2.506 -0.5595 -0.6953 -0.6459
 5976TIP3   OH242122   1.651   3.093   2.557 -0.7880  0.1187 -0.9084
 5976TIP3    H142123   1.658   2.998   2.564 -2.9196 -0.0284 -0.2133
 5976TIP3    H242124   1.729   3.126   2.602 -0.7637 -1.2833  0.1449
 5977TIP3   OH242125   1.232   6.313   1.006 -0.4091 -0.5638 -0.4664
 5977TIP3    H142126   1.285   6.335   0.928 -1.6194  0.8277 -0.9579
 5977TIP3    H242127   1.184   6.234   0.981 -0.5245 -0.3262 -1.0188
 5978TIP3   OH242128   7.182   5.623   2.708 -0.0594 -0.3117 -0.2118
 5978TIP3    H142129   7.273   5.632   2.737  0.5238  0.6307 -2.1126
 5978TIP3    H242130   7.155   5.536   2.737  2.7013 -2.1556 -2.6575
 5979TIP3   OH242131   7.217   2.776   1.129  0.0105  0.1572 -0.1328
 5979TIP3    H142132   7.197   2.855   1.080  0.4785  0.1623 -0.3237
 5979TIP3    H242133   7.245   2.807   1.215  1.2995  0.2774 -0.5686
 5980TIP3   OH242134   0.293   0.421   1.735 -0.5671 -0.0076  0.4884
 5980TIP3    H142135   0.366   0.433   1.675 -0.1159 -0.1059  1.0164
 5980TIP3    H242136   0.265   0.331   1.721 -0.5865  0.0295  0.2881
 5981TIP3   OH242137   0.632   0.923   2.112  0.0966 -0.5671  0.2044
 5981TIP3    H142138   0.689   0.929   2.189  0.1430 -0.3565  0.1551
 5981TIP3    H242139   0.657   0.840   2.071  1.1351  0.0182 -0.4085
 5982TIP3   OH242140   0.191   4.999   0.617 -0.3403  0.2086 -0.4548
 5982TIP3    H142141   0.243   4.939   0.563 -1.5082 -0.5341 -0.8000
 5982TIP3    H242142   0.200   4.964   0.706  0.0296  0.2932 -0.4578
 5983TIP3   OH242143   6.704   5.177   0.915  0.1756 -0.3567 -0.8843
 5983TIP3    H142144   6.660   5.232   0.980  2.0688  0.1172  0.0449
 5983TIP3    H242145   6.678   5.088   0.938 -0.5222 -0.0807 -0.5536
 5984TIP3   OH242146   4.901   6.438   2.447 -0.6995  0.1779 -0.2773
 5984TIP3    H142147   4.828   6.495   2.473 -0.4467  0.1681  0.4505
 5984TIP3    H242148   4.959   6.496   2.397 -0.1253  0.7452  0.9953
 5985TIP3   OH242149   3.115   3.294   2.636  0.0542  0.0901 -0.4557
 5985TIP3    H142150   3.059   3.252   2.701 -1.7563  2.0203 -0.6527
 5985TIP3    H242151   3.177   3.226   2.610 -1.8267 -1.9977  0.2136
 5986TIP3   OH242152   0.594   0.428   0.723 -0.1372 -0.4101  0.1477
 5986TIP3    H142153   0.609   0.333   0.724  0.2786 -0.3497 -0.2306
 5986TIP3    H242154   0.658   0.462   0.661 -0.4597  0.0926  0.0866
 5987TIP3   OH242155   3.494   4.234   2.108 -0.4696  0.0501 -0.3186
 5987TIP3    H142156   3.416   4.212   2.160 -0.3962 -1.0816 -0.6580
 5987TIP3    H242157   3.466   4.309   2.055 -1.4508 -0.5183 -0.6535
 5988TIP3   OH242158   3.930   6.012   1.170 -0.0450 -0.4574  0.1350
 5988TIP3    H142159   3.975   6.044   1.091 -1.5106  1.5727  0.0454
 5988TIP3    H242160   3.933   6.086   1.230 -0.3720 -1.4361  1.3878
 5989TIP3   OH242161   3.784   3.720   0.705  0.3394  0.1513  0.3284
 5989TIP3    H142162   3.710   3.771   0.739  1.5106  2.0191  0.1937
 5989TIP3    H242163   3.791   3.746   0.613  1.9924  1.0886  0.6855
 5990TIP3   OH242164   5.756   6.783   0.947  0.5949  0.5196  0.1284
 5990TIP3    H142165   5.705   6.752   0.872 -0.6000 -0.0086  1.1190
 5990TIP3    H242166   5.840   6.738   0.940  0.7268  0.9391 -1.2052
 5991TIP3   OH242167   0.519   1.869   1.697  0.3859 -0.1770 -0.3694
 5991TIP3    H142168   0.603   1.823   1.688  0.8840  0.6640 -0.1144
 5991TIP3    H242169   0.456   1.799   1.716  1.1397 -0.7480  0.0974
 5992TIP3   OH242170   6.927   6.020   2.127  0.5996  0.2433  0.0830
 5992TIP3    H142171   6.918   5.951   2.192 -0.8569  1.2525  1.0132
 5992TIP3    H242172   6.846   6.014   2.075  0.5715  1.0724  0.0167
 5993TIP3   OH242173   2.690   4.726   0.826  0.2213  0.0157  0.3996
 5993TIP3    H142174   2.780   4.738   0.797  0.1014  0.1708  0.0910
 5993TIP3    H242175   2.696   4.662   0.897  0.7975  1.3381  1.5883
 5994TIP3   OH242176   0.046   1.696   0.734 -0.5541  0.6574 -0.1539
 5994TIP3    H142177   0.091   1.619   0.772 -0.0503  0.2551 -1.5192
 5994TIP3    H242178   0.060   1.765   0.799 -0.7069 -0.2919  0.9425
 5995TIP3   OH242179   2.284   7.259   0.966 -0.0805  0.0622 -0.1313
 5995TIP3    H142180   2.305   7.241   0.875  2.3718 -1.5409  0.6435
 5995TIP3    H242181   2.226   7.187   0.992 -0.5596  0.3694 -0.3408
 5996TIP3   OH242182   1.262   7.211   1.376  0.1360  1.2221  0.3543
 5996TIP3    H142183   1.182   7.238   1.421 -0.1008  0.1356  0.6152
 5996TIP3    H242184   1.283   7.284   1.317 -0.0910  2.2466  1.5137
 5997TIP3   OH242185   6.057   2.267   0.490 -0.5069 -0.0744  0.1771
 5997TIP3    H142186   5.974   2.269   0.443 -0.5644  2.3653  0.2533
 5997TIP3    H242187   6.123   2.258   0.421 -0.7502 -0.5102 -0.0053
 5998TIP3   OH242188   2.219   3.916   1.701  0.5406  0.5090 -0.7637
 5998TIP3    H142189   2.296   3.870   1.733  0.9465  1.9400  0.4298
 5998TIP3    H242190   2.186   3.862   1.630  0.0483 -2.4864  1.5397
 5999TIP3   OH242191   4.005   6.593   2.555 -0.3304 -0.0776 -0.2502
 5999TIP3    H142192   3.977   6.525   2.617  0.2728 -1.8839 -1.8554
 5999TIP3    H242193   4.100   6.585   2.552 -0.1413  1.6549  0.3763
 6000TIP3   OH242194   3.857   3.302   1.056  0.0349  0.1486 -0.2124
 6000TIP3    H142195   3.830   3.383   1.012  2.9715  1.1017 -0.4228
 6000TIP3    H242196   3.798   3.295   1.131 -0.7250  2.1107 -0.5753
 6001TIP3   OH242197   5.377   2.593   1.929  0.2719  0.0659 -0.6429
 6001TIP3    H142198   5.381   2.497   1.930 -1.0828 -0.0081 -0.3963
 6001TIP3    H242199   5.330   2.616   2.009 -0.4069  0.8746 -1.2631
 6002TIP3   OH242200   6.556   7.590   2.741 -0.5641  0.1473 -0.3007
 6002TIP3    H142201   6.502   7.572   2.664  1.6335 -2.8811 -1.3591
 6002TIP3    H242202   6.550   7.509   2.792  0.1820  1.0986  1.3375
 6003TIP3   OH242203   2.792   0.515   3.324 -0.3695  0.4102 -0.3801
 6003TIP3    H142204   2.755   0.601   3.344 -0.5461  0.2691 -0.0896
 6003TIP3    H242205   2.886   0.528   3.331 -0.3831  0.6453 -0.6054
 6004TIP3   OH242206   6.912   5.332   0.807 -0.8824  0.0085 -0.2567
 6004TIP3    H142207   6.918   5.287   0.891  1.4670  0.7180  0.0343
 6004TIP3    H242208   6.818   5.345   0.793 -1.3466 -0.0030  2.3246
 6005TIP3   OH242209   4.080   5.389   2.686  0.0996  0.1591  1.1654
 6005TIP3    H142210   4.068   5.330   2.761 -0.5149 -0.9367  0.2287
 6005TIP3    H242211   3.996   5.390   2.642  0.4911  0.6917  0.4095
 6006TIP3   OH242212   4.586   6.451   2.563  0.3694 -0.3027 -0.2656
 6006TIP3    H142213   4.507   6.420   2.609 -0.3558  1.0198 -0.5547
 6006TIP3    H242214   4.600   6.539   2.599  1.5024 -0.3881 -0.4907
 6007TIP3   OH242215   0.999   7.090   0.660  0.2101 -0.2633  0.0236
 6007TIP3    H142216   0.997   7.064   0.752  0.8538  0.1574  0.1639
 6007TIP3    H242217   1.092   7.099   0.640  0.0529  2.0299  0.0171
 6008TIP3   OH242218   2.261   1.483   0.736  0.2676  0.3443 -0.1848
 6008TIP3    H142219   2.309   1.474   0.819  0.0213  0.4709 -0.0263
 6008TIP3    H242220   2.275   1.400   0.691  0.4471  0.2936 -0.0384
 6009TIP3   OH242221   7.267   0.018   0.550  0.4649 -0.0540  0.4590
 6009TIP3    H142222   7.181   0.024   0.592  1.1665  0.8153  1.8693
 6009TIP3    H242223   7.306   0.105   0.563  0.8547  0.1633 -1.7980
 6010TIP3   OH242224   2.316   1.165   2.808 -0.2777  0.0873 -0.4720
 6010TIP3    H142225   2.253   1.163   2.736  1.8460 -1.1256 -2.4708
 6010TIP3    H242226   2.337   1.073   2.823  0.9328  0.4389  0.1428
 6011TIP3   OH242227   7.156   2.542   2.710  0.0467  0.3379  0.0439
 6011TIP3    H142228   7.089   2.598   2.670 -0.8210  0.1274  1.1545
 6011TIP3    H242229   7.107   2.476   2.758  1.0430  0.2895  1.0399
 6012TIP3   OH242230   6.422   4.481   1.112  0.2766  0.0981  0.5492
 6012TIP3    H142231   6.411   4.557   1.054 -1.2000 -0.4988 -0.0027
 6012TIP3    H242232   6.514   4.459   1.104  0.3986  0.8703 -0.5369
 6013TIP3   OH242233   5.845   5.840   2.086 -0.0865  0.5980 -0.3685
 6013TIP3    H142234   5.798   5.921   2.064 -1.0800 -0.6291 -3.1847
 6013TIP3    H242235   5.909   5.830   2.016  0.9660 -0.3986  0.6938
 6014TIP3   OH242236   7.242   6.419   2.936  0.1480  0.0849  0.2121
 6014TIP3    H142237   7.287   6.338   2.962  0.0540  0.0453  0.2524
 6014TIP3    H242238   7.261   6.481   3.006 -1.3898 -0.4858  1.1722
 6015TIP3   OH242239   6.566   4.212   2.783  0.2960 -0.7153  0.2949
 6015TIP3    H142240   6.525   4.154   2.719  0.1537  0.3049 -0.5507
 6015TIP3    H242241   6.616   4.153   2.840 -0.8792 -1.7993  0.2570
 6016TIP3   OH242242   1.675   5.862   3.074 -0.1349  0.1118  0.2439
 6016TIP3    H142243   1.745   5.894   3.017 -0.2312  1.4378  0.8300
 6016TIP3    H242244   1.720   5.805   3.137  0.3225  0.4423  0.2221
 6017TIP3   OH242245   6.207   2.666   1.398  0.1205  0.3173 -0.0087
 6017TIP3    H142246   6.193   2.572   1.394  0.0311  0.3389 -0.2002
 6017TIP3    H242247   6.298   2.679   1.372 -0.1511  0.3675 -0.9695
 6018TIP3   OH242248   3.355   3.622   2.700  0.0614  0.0399 -0.1301
 6018TIP3    H142249   3.376   3.570   2.778  1.1264 -0.1408 -0.5203
 6018TIP3    H242250   3.281   3.677   2.727  0.3898 -0.0455  0.9977
 6019TIP3   OH242251   2.014   6.827   1.001  0.2302 -0.2871  0.3616
 6019TIP3    H142252   1.964   6.755   0.963  0.2075 -0.0155 -0.1445
 6019TIP3    H242253   2.025   6.804   1.093  0.1014 -0.8638  0.2359
 6020TIP3   OH242254   7.344   4.398   1.956 -0.0197  0.0063  0.6025
 6020TIP3    H142255   7.277   4.371   1.893 -0.5409  1.0351  0.7044
 6020TIP3    H242256   7.296   4.412   2.037  0.0940  2.0053  0.3564
 6021TIP3   OH242257   2.008   1.070   1.524 -0.0858 -0.3106  0.0417
 6021TIP3    H142258   2.001   1.009   1.451 -0.0082 -1.6050  1.0779
 6021TIP3    H242259   1.962   1.026   1.596 -0.2380  0.9650  0.7506
 6022TIP3   OH242260   2.435   6.361   1.283 -0.0350  0.9870  0.1741
 6022TIP3    H142261   2.468   6.275   1.309 -1.9376  0.3669  0.7011
 6022TIP3    H242262   2.512   6.418   1.284  1.6833 -1.0958 -2.1475
 6023TIP3   OH242263   4.225   6.511   0.667  0.3936  0.0026 -1.0660
 6023TIP3    H142264   4.134   6.535   0.678  0.3991 -0.1544 -0.6577
 6023TIP3    H242265   4.223   6.429   0.618  0.2833 -0.3540 -0.4782
 6024TIP3   OH242266   6.574   4.170   0.904  0.0966 -0.0641  0.3586
 6024TIP3    H142267   6.579   4.265   0.912 -0.2502 -0.1334  1.7135
 6024TIP3    H242268   6.630   4.137   0.974  0.2428 -0.8645 -0.1199
 6025TIP3   OH242269   3.018   6.901   1.771 -0.4579 -0.3021  0.0215
 6025TIP3    H142270   3.039   6.848   1.694  1.3997 -1.0648  1.0064
 6025TIP3    H242271   3.103   6.927   1.807 -1.2826  0.0236  1.8327
 6026TIP3   OH242272   0.107   4.601   2.271  0.2850  0.1609 -0.1023
 6026TIP3    H142273   0.081   4.662   2.340 -1.8833 -0.7190 -0.0658
 6026TIP3    H242274   0.031   4.595   2.214  0.9633 -1.4165 -0.9095
 6027TIP3   OH242275   6.549   3.027   0.655  0.1819  0.5241  0.0142
 6027TIP3    H142276   6.536   3.027   0.750 -1.1151 -0.7759 -0.1129
 6027TIP3    H242277   6.629   2.976   0.642  1.0008  1.6766  0.4528
 6028TIP3   OH242278   0.899   0.764   1.062 -0.1453 -0.5500 -0.2161
 6028TIP3    H142279   0.892   0.847   1.015 -1.9096 -0.3242  0.3872
 6028TIP3    H242280   0.809   0.739   1.082  0.4532 -1.4462  1.6449
 6029TIP3   OH242281   0.352   0.381   0.606  0.5179  0.7231  0.2435
 6029TIP3    H142282   0.404   0.304   0.584  1.7849  2.0912 -1.9006
 6029TIP3    H242283   0.414   0.444   0.641 -0.0387  1.6204 -0.3306
 6030TIP3   OH242284   0.254   4.367   1.976 -0.5363  0.8362 -0.0549
 6030TIP3    H142285   0.257   4.341   2.068 -0.4796 -0.9789 -0.5312
 6030TIP3    H242286   0.165   4.346   1.948 -0.5855  1.4720 -0.4045
 6031TIP3   OH242287   0.810   3.211   0.448 -0.1053  0.5630 -0.4285
 6031TIP3    H142288   0.718   3.237   0.451 -0.1722  0.2516  0.4762
 6031TIP3    H242289   0.808   3.116   0.450  0.2484  0.5624  0.0982
 6032TIP3   OH242290   2.294   5.568   3.278  0.1671 -0.4207  0.2182
 6032TIP3    H142291   2.377   5.521   3.273  1.1065  1.1269  0.5985
 6032TIP3    H242292   2.282   5.607   3.191  0.6176  0.5887  0.5928
 6033TIP3   OH242293   2.849   4.231   2.010 -0.0032  0.8830  0.8701
 6033TIP3    H142294   2.944   4.222   2.016 -0.0150  1.4708  2.1685
 6033TIP3    H242295   2.826   4.186   1.929  1.4123  1.0018  0.3799
 6034TIP3   OH242296   2.760   5.080   1.779  0.0835 -0.8228  0.2710
 6034TIP3    H142297   2.682   5.025   1.768  0.8422 -1.7635 -0.6480
 6034TIP3    H242298   2.734   5.146   1.843 -1.5706 -0.9005 -0.2738
 6035TIP3   OH242299   2.539   4.110   2.540  0.0055 -0.0371  0.3999
 6035TIP3    H142300   2.512   4.090   2.451  2.2158  0.6668 -0.4961
 6035TIP3    H242301   2.472   4.069   2.595  0.1627 -3.1921 -1.4657
 6036TIP3   OH242302   1.344   5.459   0.836 -0.2529  0.4335  0.0968
 6036TIP3    H142303   1.260   5.476   0.793  0.7488 -1.2564 -2.8345
 6036TIP3    H242304   1.404   5.523   0.798  0.2748  0.0687  0.3096
 6037TIP3   OH242305   2.243   1.940   2.044  0.0306 -0.1625  0.0307
 6037TIP3    H142306   2.331   1.909   2.022 -0.3342  0.1458 -2.1204
 6037TIP3    H242307   2.254   2.034   2.058 -0.2512  0.3772 -2.7374
 6038TIP3   OH242308   0.768   4.077   2.328 -0.2485 -0.2008  0.3144
 6038TIP3    H142309   0.820   4.148   2.368 -0.6431 -0.6970  1.7727
 6038TIP3    H242310   0.794   4.077   2.236 -0.0598  1.6782  0.3314
 6039TIP3   OH242311   0.593   3.734   1.821  0.0095 -0.7112 -0.7764
 6039TIP3    H142312   0.632   3.812   1.782  0.5673  0.6296  2.1769
 6039TIP3    H242313   0.664   3.670   1.824  0.0560 -0.7045 -1.5691
 6040TIP3   OH242314   4.666   4.589   0.999  0.3127  0.3551  0.6425
 6040TIP3    H142315   4.609   4.558   1.070  0.5683 -0.4880  0.4884
 6040TIP3    H242316   4.669   4.516   0.937  1.0732  0.6253  0.3573
 6041TIP3   OH242317   6.156   2.957   1.260  0.0584  0.4006 -0.1331
 6041TIP3    H142318   6.097   2.985   1.331 -0.5394  0.4659 -0.6473
 6041TIP3    H242319   6.235   2.928   1.305 -1.2252 -1.9728  0.7417
 6042TIP3   OH242320   2.700   7.011   0.647  0.1172  0.4893  0.5538
 6042TIP3    H142321   2.756   7.089   0.654  1.3271 -0.3131  0.2386
 6042TIP3    H242322   2.759   6.938   0.669 -0.3368 -0.5624 -1.5058
 6043TIP3   OH242323   1.645   0.564   1.297  0.5252 -0.4256 -0.6682
 6043TIP3    H142324   1.671   0.473   1.312 -0.5103 -0.3561  2.0291
 6043TIP3    H242325   1.549   0.561   1.293  0.3906  0.6981  0.9829
 6044TIP3   OH242326   2.269   1.338   2.995  0.3672  0.7696  0.3121
 6044TIP3    H142327   2.179   1.323   3.022  0.5548  1.5104  1.4435
 6044TIP3    H242328   2.282   1.280   2.920 -0.4084 -0.9020  1.4070
 6045TIP3   OH242329   7.233   0.845   2.739 -0.1558 -0.0277  0.4150
 6045TIP3    H142330   7.188   0.894   2.808  1.0546 -1.1401  2.0914
 6045TIP3    H242331   7.267   0.767   2.784  0.9882 -0.6186 -1.3716
 6046TIP3   OH242332   3.929   3.197   3.029 -0.6781 -0.3079  0.5210
 6046TIP3    H142333   3.955   3.276   2.982  1.0954 -1.7029 -0.9643
 6046TIP3    H242334   3.964   3.209   3.117 -0.6907  0.6613  0.4088
 6047TIP3   OH242335   3.957   6.421   2.789 -0.1784 -0.3312  0.6122
 6047TIP3    H142336   3.932   6.383   2.873  1.2969 -0.2226  1.1295
 6047TIP3    H242337   3.960   6.346   2.729 -0.7514 -0.4814  0.7604
 6048TIP3   OH242338   7.123   4.647   1.860 -0.1820  0.0370 -0.3607
 6048TIP3    H142339   7.076   4.710   1.916  1.6369 -0.6202  2.0496
 6048TIP3    H242340   7.215   4.673   1.866  0.4309 -1.9683 -0.4987
 6049TIP3   OH242341   6.310   2.096   3.058  0.1510 -0.4501  0.4027
 6049TIP3    H142342   6.286   2.039   2.985  1.8678 -0.9192  0.1643
 6049TIP3    H242343   6.231   2.100   3.112 -1.2570  0.0671 -1.5403
 6050TIP3   OH242344   2.687   5.047   2.525 -0.0321  0.2911 -0.1284
 6050TIP3    H142345   2.758   5.094   2.480  0.3890  0.5754  0.8031
 6050TIP3    H242346   2.615   5.045   2.461 -0.0167  2.1029 -0.2470
 6051TIP3   OH242347   3.380   1.330   1.089  0.1200  0.2503  0.2324
 6051TIP3    H142348   3.331   1.394   1.038  0.5578 -0.1469 -0.7225
 6051TIP3    H242349   3.470   1.340   1.058 -0.0139 -1.7658 -0.9759
 6052TIP3   OH242350   4.953   5.720   0.813 -0.4392 -0.8544  0.0669
 6052TIP3    H142351   4.925   5.805   0.847 -1.0980 -1.6043  1.4943
 6052TIP3    H242352   5.040   5.736   0.776 -1.0215  0.6577 -0.7071
 6053TIP3   OH242353   1.305   4.061   2.568 -0.1561  0.6765  0.1844
 6053TIP3    H142354   1.395   4.047   2.598 -0.4846  1.2807  1.5526
 6053TIP3    H242355   1.263   4.108   2.641 -1.2669  1.4160 -0.8917
 6054TIP3   OH242356   5.672   0.757   2.426 -0.3389  0.5772  0.0370
 6054TIP3    H142357   5.599   0.736   2.368 -0.4203 -1.0986  0.6748
 6054TIP3    H242358   5.633   0.809   2.497 -1.1435 -1.0563  0.8487
 6055TIP3   OH242359   1.250   7.469   2.792  0.3119 -0.0724  0.5142
 6055TIP3    H142360   1.277   7.400   2.731  0.5071  0.8581 -0.4901
 6055TIP3    H242361   1.231   7.544   2.736 -0.1014  0.6298  1.5685
 6056TIP3   OH242362   2.965   3.537   2.131  0.0424  0.2240 -0.6408
 6056TIP3    H142363   3.041   3.479   2.131 -0.7120 -0.8226  0.2114
 6056TIP3    H242364   2.950   3.556   2.224 -0.1843  1.1670 -0.8679
 6057TIP3   OH242365   2.359   0.791   1.662  0.3031  0.0621 -0.5243
 6057TIP3    H142366   2.289   0.732   1.689 -1.1758  1.7757 -0.3770
 6057TIP3    H242367   2.336   0.817   1.573  0.0188  1.5756 -0.0536
 6058TIP3   OH242368   6.749   7.680   1.661  0.1932 -0.2595 -0.5460
 6058TIP3    H142369   6.784   7.603   1.616 -0.3141 -0.3330 -0.8235
 6058TIP3    H242370   6.699   7.644   1.734 -0.2109 -0.2104 -0.7922
 6059TIP3   OH242371   1.921   6.232   3.394  0.2307  0.0213 -0.1733
 6059TIP3    H142372   1.849   6.236   3.456  0.5304  1.8073  0.0967
 6059TIP3    H242373   1.880   6.210   3.311 -0.2124 -2.0648  0.5359
 6060TIP3   OH242374   5.174   5.676   2.179  0.5841  0.1060 -0.1584
 6060TIP3    H142375   5.124   5.746   2.137  1.1319  0.3814 -0.3730
 6060TIP3    H242376   5.265   5.693   2.153  0.4412 -2.4581 -2.8151
 6061TIP3   OH242377   6.919   2.084   1.724 -0.9458  0.4935  0.3785
 6061TIP3    H142378   6.866   2.147   1.773 -0.8764  0.3012  0.7001
 6061TIP3    H242379   6.974   2.042   1.790 -0.2332  0.8420  0.0227
 6062TIP3   OH242380   6.969   3.681   2.857  0.7158  0.2403  0.8762
 6062TIP3    H142381   7.019   3.763   2.853  0.0763  0.5997 -0.0173
 6062TIP3    H242382   6.889   3.704   2.905  0.4968  0.1753  0.5503
 6063TIP3   OH242383   4.048   0.635   1.638  0.4060  0.3828  0.1681
 6063TIP3    H142384   4.055   0.712   1.694 -0.3640  0.8881 -0.4089
 6063TIP3    H242385   3.967   0.649   1.588 -0.3372 -1.3205  0.8378
 6064TIP3   OH242386   5.007   0.846   2.128  0.1749 -0.7894 -0.2025
 6064TIP3    H142387   5.096   0.841   2.092  0.8199 -0.1474  1.2207
 6064TIP3    H242388   4.951   0.857   2.051  1.3060 -1.3111 -1.1363
 6065TIP3   OH242389   3.246   7.267   3.053 -0.5175 -0.3772  0.8281
 6065TIP3    H142390   3.321   7.304   3.100  0.9368 -2.1264  0.0139
 6065TIP3    H242391   3.187   7.236   3.121 -0.9657  1.7571  1.4987
 6066TIP3   OH242392   6.020   4.794   1.996 -0.2525  0.3738  0.2733
 6066TIP3    H142393   6.003   4.845   2.075  0.7160  0.8289  0.1992
 6066TIP3    H242394   5.933   4.772   1.962 -0.7229  2.5077 -0.0329
 6067TIP3   OH242395   3.306   6.323   1.906  0.0934  0.1284 -0.5423
 6067TIP3    H142396   3.253   6.372   1.969  1.1416  0.6782 -0.0554
 6067TIP3    H242397   3.242   6.284   1.845 -0.8947  0.1719  0.4334
 6068TIP3   OH242398   3.958   6.368   0.981  0.6913 -0.2728 -0.2998
 6068TIP3    H142399   4.032   6.310   0.964  0.4094 -0.6881 -0.1168
 6068TIP3    H242400   3.911   6.327   1.053 -0.1685 -0.4432 -0.9384
 6069TIP3   OH242401   1.742   3.353   1.236 -0.2418 -0.2961  0.3715
 6069TIP3    H142402   1.769   3.262   1.222 -0.7244 -0.1945 -1.4781
 6069TIP3    H242403   1.814   3.405   1.198 -0.5512  0.0688  0.2791
 6070TIP3   OH242404   4.205   3.832   3.126  0.1261  0.5200 -0.0606
 6070TIP3    H142405   4.152   3.790   3.059  0.4332 -2.0182  1.1563
 6070TIP3    H242406   4.143   3.855   3.195  0.0403  1.6392 -0.4875
 6071TIP3   OH242407   5.067   1.184   3.049  0.1152 -0.1828 -0.3288
 6071TIP3    H142408   5.040   1.096   3.075 -1.2112  0.4767  0.6770
 6071TIP3    H242409   5.006   1.242   3.095  1.8817  1.3339  0.2267
 6072TIP3   OH242410   0.425   4.846   1.800 -0.5236 -0.0423 -0.7011
 6072TIP3    H142411   0.411   4.884   1.888  0.6452  1.2678 -1.0359
 6072TIP3    H242412   0.385   4.910   1.741 -0.6719 -0.5681 -1.1711
 6073TIP3   OH242413   4.422   3.474   0.610 -0.5209 -0.0949  0.4370
 6073TIP3    H142414   4.489   3.527   0.568 -1.4435  0.3602 -0.5248
 6073TIP3    H242415   4.391   3.528   0.682  1.3083 -1.0196  2.0050
 6074TIP3   OH242416   3.469   7.054   2.105 -0.4229 -0.2879  0.1264
 6074TIP3    H142417   3.395   7.115   2.106 -0.3039 -0.1490  0.6108
 6074TIP3    H242418   3.428   6.967   2.108 -0.8299 -0.5269 -4.7084
 6075TIP3   OH242419   3.716   7.167   2.759 -0.2274 -0.2142 -0.4518
 6075TIP3    H142420   3.696   7.148   2.851  2.1546 -0.3970  0.1089
 6075TIP3    H242421   3.796   7.117   2.741 -0.6448 -0.1835 -2.6457
 6076TIP3   OH242422   5.196   2.371   1.424 -0.6460  0.0995 -0.1303
 6076TIP3    H142423   5.135   2.302   1.449  0.1598 -0.2165  1.0600
 6076TIP3    H242424   5.210   2.420   1.505 -0.4862  1.0863 -0.7521
 6077TIP3   OH242425   1.733   0.864   1.182  0.3642  0.2433 -0.2948
 6077TIP3    H142426   1.772   0.951   1.196  0.3874  0.1896 -0.0186
 6077TIP3    H242427   1.660   0.880   1.122  1.0798  0.2784 -1.1716
 6078TIP3   OH242428   6.368   4.017   2.652 -0.8832 -0.3270  0.2303
 6078TIP3    H142429   6.341   3.952   2.587 -1.4411  0.4907 -0.3812
 6078TIP3    H242430   6.306   4.005   2.725 -0.7265 -0.7433  0.3008
 6079TIP3   OH242431   3.922   6.571   0.629  0.2700  0.2875  1.1240
 6079TIP3    H142432   3.868   6.520   0.690 -0.0751 -0.7046  0.0268
 6079TIP3    H242433   3.873   6.570   0.547  1.4870  0.2017  0.3727
 6080TIP3   OH242434   1.775   7.255   0.830 -0.1748 -0.3365  0.1382
 6080TIP3    H142435   1.804   7.177   0.878 -0.0912  0.0372  0.6986
 6080TIP3    H242436   1.782   7.326   0.893 -1.1581 -0.0278 -0.0819
 6081TIP3   OH242437   5.129   6.359   1.682  0.1009  0.2385 -0.3841
 6081TIP3    H142438   5.059   6.295   1.669  0.3672 -0.9119  2.8341
 6081TIP3    H242439   5.095   6.441   1.647 -1.5138 -0.9633 -1.7825
 6082TIP3   OH242440   5.206   0.238   1.015 -0.0924 -0.0951 -0.3345
 6082TIP3    H142441   5.267   0.311   1.005  2.2074 -1.5316  2.2194
 6082TIP3    H242442   5.194   0.206   0.925  0.8093  1.8235 -1.2167
 6083TIP3   OH242443   2.362   2.994   2.875  0.4187 -0.0863  0.1745
 6083TIP3    H142444   2.407   2.970   2.793  1.1226  0.7897  0.2852
 6083TIP3    H242445   2.420   2.962   2.944 -0.5792 -1.5662  0.3546
 6084TIP3   OH242446   1.316   7.574   2.428  0.0100  0.5221 -0.1087
 6084TIP3    H142447   1.298   7.641   2.494  0.9514  0.2774  0.4121
 6084TIP3    H242448   1.256   7.502   2.449 -0.1526  0.7132  0.0786
 6085TIP3   OH242449   4.748   6.709   3.254  0.3942 -0.3690 -0.0561
 6085TIP3    H142450   4.735   6.614   3.246  1.4862 -0.6903  1.5551
 6085TIP3    H242451   4.661   6.746   3.239 -0.8103 -1.8600  2.5631
 6086TIP3   OH242452   7.152   4.299   0.453  0.7680 -0.6840 -0.2172
 6086TIP3    H142453   7.134   4.293   0.547  1.6437 -1.0535 -0.0564
 6086TIP3    H242454   7.192   4.385   0.442  3.3454 -1.7055  0.2803
 6087TIP3   OH242455   7.305   5.629   0.555  0.8085 -0.0389 -0.7894
 6087TIP3    H142456   7.374   5.563   0.556  0.0186 -0.9004 -1.4167
 6087TIP3    H242457   7.280   5.639   0.647  1.9916  0.5412 -0.5158
 6088TIP3   OH242458   5.047   2.377   2.970 -0.0925  0.0469 -0.3228
 6088TIP3    H142459   5.010   2.310   2.911 -1.2722  0.4707 -0.1022
 6088TIP3    H242460   5.090   2.439   2.912  0.7833 -0.7556 -0.5513
 6089TIP3   OH242461   1.067   6.514   1.596 -0.4510  0.0026 -0.0750
 6089TIP3    H142462   1.076   6.607   1.575  2.5803 -0.3682 -0.8928
 6089TIP3    H242463   1.005   6.481   1.531 -1.3833  1.3716  0.0667
 6090TIP3   OH242464   7.391   1.944   1.958 -0.2407 -0.3334 -0.3613
 6090TIP3    H142465   7.429   2.000   2.026 -1.8693 -1.4906  1.6141
 6090TIP3    H242466   7.297   1.961   1.962 -0.4323 -0.7672 -2.0649
 6091TIP3   OH242467   0.741   3.741   2.188  0.3373  0.3217 -0.1581
 6091TIP3    H142468   0.741   3.761   2.282  2.1560 -1.4548  0.2923
 6091TIP3    H242469   0.652   3.709   2.171  0.1758  0.0053  1.1442
 6092TIP3   OH242470   5.006   0.240   3.170  0.0738 -0.0564 -0.2938
 6092TIP3    H142471   5.045   0.157   3.195 -1.3292 -0.0271  2.2143
 6092TIP3    H242472   4.932   0.217   3.114 -0.0287 -0.4445  0.0073
 6093TIP3   OH242473   0.301   4.580   0.423 -0.0735 -0.9696  0.1268
 6093TIP3    H142474   0.278   4.573   0.331  0.8928 -3.3679  0.0014
 6093TIP3    H242475   0.236   4.526   0.469  0.0250 -0.5755  0.7507
 6094TIP3   OH242476   3.656   4.479   0.945 -0.5425  0.0956 -0.3791
 6094TIP3    H142477   3.743   4.516   0.930  0.1529 -1.1733  0.3081
 6094TIP3    H242478   3.596   4.550   0.925  0.6476  0.9978 -0.9046
 6095TIP3   OH242479   1.118   4.242   2.249 -0.1074  0.3599  0.4295
 6095TIP3    H142480   1.132   4.253   2.155 -2.5690 -1.9174 -0.3216
 6095TIP3    H242481   1.066   4.318   2.274 -0.2666  0.4919 -0.2696
 6096TIP3   OH242482   7.174   5.156   2.481 -0.4628 -0.0616  0.0283
 6096TIP3    H142483   7.255   5.105   2.475 -0.0721  0.5960 -0.6280
 6096TIP3    H242484   7.143   5.142   2.570  1.0411  0.6188  0.7094
 6097TIP3   OH242485   2.418   0.044   0.806  0.1083 -0.1621 -0.4974
 6097TIP3    H142486   2.482   0.069   0.872  0.8997  0.7173 -1.5587
 6097TIP3    H242487   2.426  -0.051   0.800  2.2882  0.0311 -1.5189
 6098TIP3   OH242488   7.106   3.983   3.168  0.6452  0.2233  0.2680
 6098TIP3    H142489   7.171   4.049   3.142  0.2175  1.0611  1.2624
 6098TIP3    H242490   7.035   3.994   3.105  0.7194  0.4716  0.2258
 6099TIP3   OH242491   1.136   1.470   0.394  0.2641  0.0843 -0.5281
 6099TIP3    H142492   1.156   1.544   0.452  1.0083  0.3064 -1.0552
 6099TIP3    H242493   1.131   1.509   0.306  0.2842 -0.4336 -0.7607
 6100TIP3   OH242494   6.110   4.145   2.285  0.4017 -0.1905 -0.0507
 6100TIP3    H142495   6.118   4.240   2.270  1.5544 -0.1967  0.4012
 6100TIP3    H242496   6.188   4.108   2.244  1.1693 -0.6961  1.7789
 6101TIP3   OH242497   6.252   6.961   0.773 -0.6734  0.0234  0.4161
 6101TIP3    H142498   6.325   7.007   0.732 -0.2633 -1.5488 -0.6993
 6101TIP3    H242499   6.229   7.016   0.848  1.0955  0.9774  0.3234
 6102TIP3   OH242500   2.934   0.347   2.568  0.5533  0.6448 -0.2123
 6102TIP3    H142501   2.871   0.306   2.628  0.7808  0.5496 -0.0379
 6102TIP3    H242502   3.011   0.364   2.622  1.6265 -1.4991 -0.9747
 6103TIP3   OH242503   5.230   4.317   0.466 -0.4334  0.1450  0.0085
 6103TIP3    H142504   5.193   4.404   0.456 -1.4331 -0.0958  1.4266
 6103TIP3    H242505   5.155   4.260   0.480  0.3699 -0.4919  2.0495
 6104TIP3   OH242506   6.436   6.532   1.247  0.2238  0.2093 -0.3459
 6104TIP3    H142507   6.470   6.533   1.336 -0.1788  1.6595 -0.1923
 6104TIP3    H242508   6.467   6.449   1.211 -0.4799 -0.8903  1.4623
 6105TIP3   OH242509   4.414   5.726   1.702 -0.5965 -0.2066 -0.2627
 6105TIP3    H142510   4.361   5.759   1.630  1.9138  1.6162 -1.4219
 6105TIP3    H242511   4.490   5.688   1.660  0.9432  0.9095  1.3600
 6106TIP3   OH242512   2.543   0.723   0.899  0.4433  0.2571  0.1203
 6106TIP3    H142513   2.578   0.713   0.810  0.2983  0.7247  0.0091
 6106TIP3    H242514   2.448   0.727   0.887  0.4998  3.4025 -0.0418
 6107TIP3   OH242515   4.961   6.293   2.687  0.0060 -0.3373 -0.2042
 6107TIP3    H142516   4.931   6.299   2.596 -2.0782  0.8095  0.4824
 6107TIP3    H242517   4.928   6.373   2.728 -1.0176 -1.7992  2.0585
 6108TIP3   OH242518   0.014   3.536   2.466  0.5522 -0.3931  0.6021
 6108TIP3    H142519  -0.045   3.472   2.425  0.1899 -0.1390  0.7228
 6108TIP3    H242520   0.074   3.483   2.518  0.9474 -0.7199 -0.1550
 6109TIP3   OH242521   6.209   6.336   3.214  0.4689 -0.7990  0.2272
 6109TIP3    H142522   6.299   6.348   3.244  0.3439  0.4273  0.1714
 6109TIP3    H242523   6.211   6.253   3.167  1.5065 -0.9236  0.4494
 6110TIP3   OH242524   1.194   2.917   1.769 -0.0775 -0.2873  0.5353
 6110TIP3    H142525   1.274   2.892   1.816  0.4697  0.5199  0.0646
 6110TIP3    H242526   1.163   2.836   1.730 -0.5208 -0.9836  2.2095
 6111TIP3   OH242527   2.890   5.084   0.885  0.5550  0.0280 -0.2758
 6111TIP3    H142528   2.807   5.130   0.875  0.7144  0.5627  0.6628
 6111TIP3    H242529   2.869   4.992   0.870 -0.9310 -0.3397  3.0789
 6112TIP3   OH242530   6.291   3.815   2.463  0.2123  0.1770 -0.3290
 6112TIP3    H142531   6.296   3.742   2.524  0.8642 -0.2502 -0.8840
 6112TIP3    H242532   6.255   3.777   2.382  0.2955  0.5259 -0.5328
 6113TIP3   OH242533   6.570   7.335   2.022  0.9089  0.2310 -0.4260
 6113TIP3    H142534   6.578   7.380   1.938  0.7965  0.9686 -0.0510
 6113TIP3    H242535   6.587   7.403   2.087  2.4462 -0.6407  0.1299
 6114TIP3   OH242536   0.104   3.384   2.099 -0.6105 -0.0199  0.2549
 6114TIP3    H142537   0.185   3.333   2.090 -0.3896  0.3781 -0.0432
 6114TIP3    H242538   0.034   3.319   2.094 -0.4433 -0.0775 -2.5167
 6115TIP3   OH242539   6.080   7.600   1.465 -0.4286 -0.3474  0.5936
 6115TIP3    H142540   6.140   7.537   1.504  1.8084  1.3564  0.0842
 6115TIP3    H242541   6.117   7.685   1.485 -3.0159  0.8507  0.7211
 6116TIP3   OH242542   0.520   7.548   2.685  0.5708 -0.3759  0.4283
 6116TIP3    H142543   0.461   7.509   2.749  1.8138 -1.9254  0.7077
 6116TIP3    H242544   0.499   7.503   2.603 -1.5814  2.1720 -0.5653
 6117TIP3   OH242545   3.042   3.637   1.435 -0.4386 -1.1230  0.3605
 6117TIP3    H142546   3.018   3.548   1.412 -0.6793 -0.8298 -0.5463
 6117TIP3    H242547   2.976   3.692   1.393  0.1685 -0.4739  0.2363
 6118TIP3   OH242548   0.532   3.073   2.032  0.9485  0.0799 -0.3542
 6118TIP3    H142549   0.562   3.060   2.122 -1.2713 -1.1049  0.2856
 6118TIP3    H242550   0.558   2.993   1.986 -0.0464 -0.3918 -0.1192
 6119TIP3   OH242551   5.111   0.256   2.356  0.0504  0.6003  1.0939
 6119TIP3    H142552   5.129   0.183   2.415 -0.0808  0.2934  0.7603
 6119TIP3    H242553   5.026   0.289   2.383  0.3392  0.9594  1.5752
 6120TIP3   OH242554   5.835   4.967   0.966  0.0288 -0.0488 -1.1525
 6120TIP3    H142555   5.789   4.937   1.045  1.0161 -1.9759 -1.2701
 6120TIP3    H242556   5.802   5.057   0.953 -1.6184 -0.3686  0.3166
 6121TIP3   OH242557   3.443   1.675   2.399 -0.1137 -0.3583 -0.3455
 6121TIP3    H142558   3.357   1.665   2.358 -0.0031  1.7161 -1.1947
 6121TIP3    H242559   3.497   1.609   2.355 -0.5964  0.2277 -1.8832
 6122TIP3   OH242560   7.337   7.677   1.642  0.4946 -0.1684  0.4971
 6122TIP3    H142561   7.349   7.720   1.557  2.7090 -0.4940  0.5662
 6122TIP3    H242562   7.362   7.744   1.706  5.0504 -1.5915  0.5766
 6123TIP3   OH242563   4.844   5.385   2.219 -0.3148 -0.5076 -0.9105
 6123TIP3    H142564   4.908   5.331   2.173 -1.6520 -1.6639 -1.4618
 6123TIP3    H242565   4.760   5.363   2.179 -1.0346  1.3044 -0.5076
 6124TIP3   OH242566   5.032   2.015   1.799 -0.0944  0.5234  0.0026
 6124TIP3    H142567   4.993   2.052   1.720  1.0288 -0.5052 -1.0744
 6124TIP3    H242568   5.037   1.921   1.782 -1.1366  0.0789  1.8978
 6125TIP3   OH242569   5.033   3.166   3.103  0.4559  0.4564 -0.0785
 6125TIP3    H142570   5.097   3.227   3.066  1.4170 -1.2449 -1.3868
 6125TIP3    H242571   5.070   3.080   3.087 -1.0643 -0.5142  1.3074
 6126TIP3   OH242572   3.994   2.618   1.558 -0.4768  0.8705  0.2654
 6126TIP3    H142573   4.001   2.531   1.519  0.4441  0.2874  1.6260
 6126TIP3    H242574   3.914   2.654   1.521 -1.7695 -1.1946  0.8403
 6127TIP3   OH242575   3.369   6.960   1.470 -0.0893  0.2284 -0.0279
 6127TIP3    H142576   3.363   6.904   1.393 -2.8267  1.4549 -0.8131
 6127TIP3    H242577   3.437   7.024   1.449  0.2505 -0.3662 -0.7694
 6128TIP3   OH242578   2.682   6.465   1.607 -0.0540  0.0945 -0.2620
 6128TIP3    H142579   2.690   6.559   1.625  0.2265  0.0083  0.0673
 6128TIP3    H242580   2.729   6.453   1.524  2.4969 -0.2236  1.1228
 6129TIP3   OH242581   3.270   4.802   1.965  0.0271  0.0454 -0.0393
 6129TIP3    H142582   3.248   4.714   1.996 -0.2511  0.2816  0.4424
 6129TIP3    H242583   3.215   4.861   2.017  1.4764  0.6234  0.8965
 6130TIP3   OH242584   6.307   7.473   1.551 -0.3477  0.6373 -0.1139
 6130TIP3    H142585   6.280   7.523   1.628 -1.0171  0.5587 -0.2939
 6130TIP3    H242586   6.401   7.458   1.565 -0.2952  1.2896  0.3054
 6131TIP3   OH242587   7.565   4.690   1.284  0.4830 -0.2226  0.1734
 6131TIP3    H142588   7.506   4.665   1.213 -1.1696 -0.7080  1.6419
 6131TIP3    H242589   7.608   4.770   1.253 -0.4165 -0.2488 -1.2305
 6132TIP3   OH242590   2.817   5.390   2.831  0.2919  0.2380  0.4988
 6132TIP3    H142591   2.877   5.448   2.785  1.2118 -1.0382  0.0232
 6132TIP3    H242592   2.779   5.335   2.762  1.5286 -1.5585  1.1852
 6133TIP3   OH242593   6.359   2.627   1.006 -0.3882 -0.2467  0.4169
 6133TIP3    H142594   6.291   2.587   0.952 -0.3825  0.1672  0.0888
 6133TIP3    H242595   6.419   2.556   1.027 -0.2129 -0.3545 -0.4173
 6134TIP3   OH242596   4.135   5.397   1.487  0.0624  0.0993  0.1710
 6134TIP3    H142597   4.055   5.440   1.458  0.4628  0.0428 -1.0833
 6134TIP3    H242598   4.166   5.450   1.561 -1.6303 -0.4488  1.3271
 6135TIP3   OH242599   7.596   0.370   2.729 -0.0660  0.3914  0.0620
 6135TIP3    H142600   7.581   0.450   2.679  2.9140  1.0491  0.0391
 6135TIP3    H242601   7.607   0.400   2.819 -0.2186 -0.1759  0.2747
 6136TIP3   OH242602   2.204   6.028   1.243 -0.1140  0.3849  1.0111
 6136TIP3    H142603   2.141   6.038   1.314 -0.3702  1.4312  0.6613
 6136TIP3    H242604   2.170   6.083   1.173 -1.1897 -2.4549 -0.8929
 6137TIP3   OH242605   4.993   5.277   2.936  0.0950  0.5895 -0.0067
 6137TIP3    H142606   4.963   5.276   2.845 -0.7404  0.1360  0.2630
 6137TIP3    H242607   4.956   5.198   2.975 -1.2101  1.7589  1.2437
 6138TIP3   OH242608   6.409   7.133   1.465 -0.4243 -0.0081 -0.0164
 6138TIP3    H142609   6.454   7.049   1.472 -0.6012 -0.2216 -1.1939
 6138TIP3    H242610   6.446   7.174   1.386 -0.8979  0.6711  0.1036
 6139TIP3   OH242611   5.386   6.121   1.458 -0.4357  0.1037 -0.4578
 6139TIP3    H142612   5.390   6.047   1.519  1.2154 -1.1668 -1.9928
 6139TIP3    H242613   5.293   6.133   1.440 -0.8454 -0.4535  1.1501
 6140TIP3   OH242614   3.895   4.279   0.416  0.4051 -0.2966 -0.4216
 6140TIP3    H142615   3.809   4.318   0.400  0.0007 -0.5281  1.0665
 6140TIP3    H242616   3.957   4.348   0.390 -0.2984  1.6941  2.6771
 6141TIP3   OH242617   4.541   3.764   2.606 -0.6868 -0.0805  0.5460
 6141TIP3    H142618   4.544   3.742   2.699  0.0306 -1.2559  0.2701
 6141TIP3    H242619   4.561   3.682   2.561 -0.2342  0.6405 -0.6256
 6142TIP3   OH242620   6.902   7.658   1.039  0.9980  0.1381 -0.0044
 6142TIP3    H142621   6.847   7.629   0.967  1.2481 -0.9165  0.2111
 6142TIP3    H242622   6.988   7.674   1.000  0.7492  1.0361 -0.2016
 6143TIP3   OH242623   7.035   4.739   0.529  0.5161 -0.0631 -0.1962
 6143TIP3    H142624   6.960   4.758   0.474  2.1526 -0.6053 -2.8116
 6143TIP3    H242625   7.034   4.644   0.539 -0.0812  0.0784  1.2493
 6144TIP3   OH242626   6.118   6.030   1.087 -0.3286 -0.2877 -0.0809
 6144TIP3    H142627   6.187   5.990   1.034  0.2995  0.0629  0.4580
 6144TIP3    H242628   6.087   6.104   1.035  1.5341  1.1606  0.7861
 6145TIP3   OH242629   3.989   0.052   3.321  0.4411  0.7370  0.0154
 6145TIP3    H142630   4.052   0.120   3.295  0.8321  0.0318 -0.9214
 6145TIP3    H242631   4.038  -0.003   3.383 -0.0524  1.6047  1.2222
 6146TIP3   OH242632   3.106   3.545   2.523 -0.1297 -0.5809  0.2443
 6146TIP3    H142633   3.113   3.452   2.547 -1.8145 -0.7001  0.3851
 6146TIP3    H242634   3.118   3.592   2.606  0.1945 -0.7049  0.2662
 6147TIP3   OH242635   0.310   4.714   1.152  0.2487 -0.2514 -0.0436
 6147TIP3    H142636   0.357   4.675   1.079 -0.4157 -1.8852  0.3497
 6147TIP3    H242637   0.222   4.732   1.117 -0.3910 -1.9864  0.5895
 6148TIP3   OH242638   3.883   3.324   1.618 -0.2851 -0.2610 -0.0006
 6148TIP3    H142639   3.956   3.380   1.645 -1.3025  1.1141  0.0279
 6148TIP3    H242640   3.807   3.359   1.665 -0.6950 -2.8287  1.4547
 6149TIP3   OH242641   6.920   4.546   2.887 -0.2114  0.1119 -0.4298
 6149TIP3    H142642   6.873   4.503   2.816 -1.7556 -0.4132  0.8302
 6149TIP3    H242643   6.880   4.510   2.967 -0.4759  2.7012  0.7010
 6150TIP3   OH242644   3.914   6.725   1.060 -0.6555  0.4595 -0.1819
 6150TIP3    H142645   3.875   6.656   1.114 -1.0722 -0.5896 -1.7483
 6150TIP3    H242646   3.852   6.797   1.065 -0.8010  0.2866  0.5575
 6151TIP3   OH242647   6.239   6.715   1.168  0.2488 -0.6803  0.3767
 6151TIP3    H142648   6.231   6.789   1.227  2.4393 -1.1044  1.3272
 6151TIP3    H242649   6.306   6.659   1.208  1.9565 -0.9451 -2.4796
 6152TIP3   OH242650   2.497   2.003   1.326 -0.0537 -0.3361 -0.1447
 6152TIP3    H142651   2.429   1.953   1.282 -2.2955  0.5773  2.0034
 6152TIP3    H242652   2.527   1.946   1.397 -3.0570  1.2288  2.7066
 6153TIP3   OH242653   7.074   0.520   2.923  0.2910 -0.2063  0.8697
 6153TIP3    H142654   7.004   0.457   2.941 -1.2507  1.5968  1.5268
 6153TIP3    H242655   7.139   0.504   2.991 -0.7996 -0.0857  1.9658
 6154TIP3   OH242656   2.277   4.808   1.240  0.3442 -0.4550 -0.0652
 6154TIP3    H142657   2.299   4.827   1.148  1.2250  2.1489  0.6072
 6154TIP3    H242658   2.188   4.840   1.251  0.3778 -0.4231  0.1070
 6155TIP3   OH242659   4.578   1.444   1.884 -0.1170  0.4358  0.5020
 6155TIP3    H142660   4.615   1.439   1.796  2.2647  1.2695  1.3677
 6155TIP3    H242661   4.508   1.508   1.877 -1.5325 -1.1962 -1.2280
 6156TIP3   OH242662   0.797   7.484   3.155  0.6285  0.2105 -0.1213
 6156TIP3    H142663   0.878   7.532   3.138  0.9651 -0.2343  0.1987
 6156TIP3    H242664   0.822   7.392   3.147 -0.0583  0.0786 -0.9640
 6157TIP3   OH242665   1.452   3.182   0.724  0.8754  0.0313  0.0000
 6157TIP3    H142666   1.467   3.271   0.695 -2.3895  1.2110  1.4247
 6157TIP3    H242667   1.381   3.150   0.669 -0.8638 -0.0615  2.1488
 6158TIP3   OH242668   1.399   5.642   2.373 -0.2705 -0.3224 -0.7681
 6158TIP3    H142669   1.359   5.719   2.332  2.6492  0.8656 -1.6480
 6158TIP3    H242670   1.418   5.584   2.300  1.3984  0.0695 -0.6882
 6159TIP3   OH242671   2.307   1.522   2.007  0.4166  0.3017 -0.2991
 6159TIP3    H142672   2.330   1.561   2.091 -1.0177  1.0632 -0.2457
 6159TIP3    H242673   2.224   1.562   1.982  0.7608  0.0341 -2.0519
 6160TIP3   OH242674   3.160   4.478   2.581 -0.4860  0.2737 -0.2854
 6160TIP3    H142675   3.169   4.547   2.647  0.6175 -0.4061  0.2998
 6160TIP3    H242676   3.066   4.474   2.563 -0.5989  1.8210 -0.2254
 6161TIP3   OH242677   6.273   3.602   1.253 -0.1209 -0.6523 -0.6290
 6161TIP3    H142678   6.328   3.678   1.272 -0.8283 -0.7454  2.3941
 6161TIP3    H242679   6.334   3.531   1.233  0.5737  0.4433 -2.5706
 6162TIP3   OH242680   4.849   4.545   2.586  0.1807 -0.5985 -0.2065
 6162TIP3    H142681   4.837   4.452   2.602  0.4895 -0.1686  3.6310
 6162TIP3    H242682   4.790   4.587   2.649  1.0081  1.7985 -0.9236
 6163TIP3   OH242683   3.057   0.716   1.661 -0.0417 -0.2536  0.3454
 6163TIP3    H142684   3.011   0.710   1.577  2.0494 -0.1922 -0.8783
 6163TIP3    H242685   3.109   0.636   1.665 -0.8577 -0.7375  2.0957
 6164TIP3   OH242686   2.158   0.653   2.832 -0.0690  0.2021  0.1430
 6164TIP3    H142687   2.141   0.571   2.879 -0.9219 -1.3349 -2.5717
 6164TIP3    H242688   2.235   0.633   2.779 -0.7620  0.8518 -1.1462
 6165TIP3   OH242689   6.495   4.636   2.752  0.1793  0.0966 -0.0672
 6165TIP3    H142690   6.415   4.610   2.797 -0.9900  1.4559 -1.2587
 6165TIP3    H242691   6.530   4.708   2.805 -0.7861  1.1832 -0.8406
 6166TIP3   OH242692   5.663   4.082   0.992  0.2803 -0.0933 -0.1055
 6166TIP3    H142693   5.680   4.000   1.038  2.3541 -0.0291 -0.6811
 6166TIP3    H242694   5.728   4.085   0.922 -0.0179  1.8505 -0.3652
 6167TIP3   OH242695   0.335   1.124   0.663 -0.6195  0.4502 -0.0975
 6167TIP3    H142696   0.270   1.119   0.733 -0.1529 -0.8314  0.2752
 6167TIP3    H242697   0.384   1.042   0.670  2.0722  2.0135  0.6200
 6168TIP3   OH242698   1.257   0.375   2.890  0.1667  0.1051  0.1054
 6168TIP3    H142699   1.256   0.448   2.828 -0.0820 -0.5160 -0.6387
 6168TIP3    H242700   1.348   0.367   2.918 -0.0529  1.6965  1.4103
 6169TIP3   OH242701   3.327   7.644   7.077 -0.4869  0.0510  0.2129
 6169TIP3    H142702   3.336   7.703   7.002 -1.2739  0.5589  0.5099
 6169TIP3    H242703   3.412   7.599   7.081 -0.5097 -0.1742 -1.1271
 6170TIP3   OH242704   2.536   7.120   2.147 -0.3007 -0.4662 -0.0190
 6170TIP3    H142705   2.458   7.142   2.199 -0.7798  1.0240 -1.3106
 6170TIP3    H242706   2.599   7.189   2.168 -0.0117 -0.6099 -0.4072
 6171TIP3   OH242707   2.229   4.981   0.688 -0.1523  0.0738  0.8206
 6171TIP3    H142708   2.229   5.040   0.763  0.2354 -0.0904  0.9542
 6171TIP3    H242709   2.308   5.004   0.639 -1.9909  2.4372 -1.3573
 6172TIP3   OH242710   3.681   6.334   2.542  0.3239  0.4426  0.1199
 6172TIP3    H142711   3.713   6.246   2.560  0.8533  0.2937 -1.4170
 6172TIP3    H242712   3.758   6.383   2.514 -0.1336  1.1320  0.0229
 6173TIP3   OH242713   7.141   0.501   1.790  0.3875 -0.1138  0.0553
 6173TIP3    H142714   7.078   0.517   1.720  1.2235  1.0750 -0.4565
 6173TIP3    H242715   7.088   0.503   1.870 -0.2777  0.5284 -0.3885
 6174TIP3   OH242716   4.305   1.612   2.580 -0.2268  0.4079 -0.2657
 6174TIP3    H142717   4.266   1.539   2.532  0.1767  0.4156 -0.6105
 6174TIP3    H242718   4.234   1.645   2.636 -0.2905 -0.5255  0.2291
 6175TIP3   OH242719   2.535   5.368   2.247  0.1175  0.5084 -0.0013
 6175TIP3    H142720   2.449   5.339   2.279 -1.2259  2.5747 -1.5434
 6175TIP3    H242721   2.534   5.463   2.256  2.8278  0.5332  1.1924
 6176TIP3   OH242722   4.598   5.520   1.199  0.1374 -0.2007 -0.5080
 6176TIP3    H142723   4.565   5.478   1.119 -1.1610  3.0731 -1.8785
 6176TIP3    H242724   4.646   5.596   1.167  1.5083 -0.0203  1.8181
 6177TIP3   OH242725   4.365   7.512   1.181 -0.3226 -0.8620 -0.3264
 6177TIP3    H142726   4.368   7.540   1.090  0.0025  0.8422  0.1545
 6177TIP3    H242727   4.273   7.523   1.206 -0.0453  0.7566  0.1039
 6178TIP3   OH242728   3.015   0.987   1.139 -0.0935 -0.0980  0.0615
 6178TIP3    H142729   3.026   1.068   1.090  1.1939 -0.6321 -0.5892
 6178TIP3    H242730   2.973   0.927   1.077  0.9832 -0.5877 -0.2209
 6179TIP3   OH242731   5.167   7.249   1.934  0.3950 -0.1127 -0.9321
 6179TIP3    H142732   5.087   7.243   1.882 -0.3485  0.8244  0.0672
 6179TIP3    H242733   5.145   7.208   2.018  1.1516 -0.3562 -0.8358
 6180TIP3   OH242734   3.555   2.672   1.683 -0.3690 -0.4172 -0.3751
 6180TIP3    H142735   3.511   2.752   1.713  1.7277  1.1968 -1.3478
 6180TIP3    H242736   3.570   2.621   1.763  0.4070  1.3125  0.6304
 6181TIP3   OH242737   0.384   7.327   0.774  0.4696 -0.2995 -0.0584
 6181TIP3    H142738   0.304   7.353   0.819  0.7437 -0.3782  0.4871
 6181TIP3    H242739   0.407   7.402   0.719 -0.9284 -0.9340 -1.5839
 6182TIP3   OH242740   2.490   0.370   3.099 -0.2746  0.0374  0.3310
 6182TIP3    H142741   2.525   0.390   3.012  0.4520 -0.2349  0.5523
 6182TIP3    H242742   2.565   0.336   3.148 -0.1657  2.1014  1.7273
 6183TIP3   OH242743   6.335   2.644   2.323 -0.2528  0.1306  0.4480
 6183TIP3    H142744   6.331   2.733   2.288  0.7873  0.8853  2.1115
 6183TIP3    H242745   6.373   2.654   2.410 -0.6347 -1.8935  0.9112
 6184TIP3   OH242746   1.864   4.299   2.238  0.2895 -0.0093 -0.6128
 6184TIP3    H142747   1.773   4.327   2.252  0.4366  0.5504 -0.7898
 6184TIP3    H242748   1.878   4.308   2.144  0.3230 -0.7401 -0.6865
 6185TIP3   OH242749   6.022   6.102   1.684  0.3861 -0.6544 -0.3791
 6185TIP3    H142750   6.096   6.090   1.744 -0.0438  1.0884  0.5565
 6185TIP3    H242751   6.063   6.109   1.597  1.2728 -0.3660  0.0494
 6186TIP3   OH242752   4.050   6.407   3.235  0.3304  0.3701  0.3835
 6186TIP3    H142753   3.991   6.467   3.280  1.5885  0.8529  1.4778
 6186TIP3    H242754   3.995   6.360   3.172 -1.6029 -0.5129  2.5757
 6187TIP3   OH242755   4.620   1.267   0.640  0.1028 -0.4004  0.1731
 6187TIP3    H142756   4.559   1.207   0.598  1.6544 -1.9896  0.0774
 6187TIP3    H242757   4.644   1.222   0.722  1.2759  0.0846  0.1095
 6188TIP3   OH242758   5.543   0.197   1.427 -0.2489 -0.9880  0.0418
 6188TIP3    H142759   5.452   0.173   1.445 -0.1385 -2.3842 -1.0671
 6188TIP3    H242760   5.590   0.172   1.506 -0.0996 -5.0519 -1.0870
 6189TIP3   OH242761   3.607   4.323   2.344 -0.0290 -0.0873 -0.0375
 6189TIP3    H142762   3.527   4.359   2.381  0.7725  2.1565 -0.3872
 6189TIP3    H242763   3.579   4.283   2.261 -1.0671 -1.1530  0.7840
 6190TIP3   OH242764   5.305   4.265   2.592 -0.1498  0.6682  0.5820
 6190TIP3    H142765   5.212   4.250   2.606 -0.5114  2.0010 -0.2198
 6190TIP3    H242766   5.326   4.338   2.649  0.2108  0.9150  0.1361
 6191TIP3   OH242767   1.536   0.237   1.152 -0.0507 -0.5825 -0.1020
 6191TIP3    H142768   1.580   0.251   1.236 -0.7251 -1.3689  0.4000
 6191TIP3    H242769   1.525   0.324   1.115  1.0596 -0.2977  0.2014
 6192TIP3   OH242770   6.069   4.842   3.253 -0.2733 -0.3318  0.3270
 6192TIP3    H142771   6.119   4.774   3.209  0.7405  0.1180  0.7606
 6192TIP3    H242772   6.114   4.856   3.336 -1.6172 -0.5200  1.1201
 6193TIP3   OH242773   5.889   2.801   2.665 -0.4295 -0.2819 -0.0655
 6193TIP3    H142774   5.953   2.868   2.690  0.6627 -1.8906  1.7469
 6193TIP3    H242775   5.811   2.823   2.717  0.1602 -0.7481  1.0657
 6194TIP3   OH242776   1.490   2.443   1.153  0.4837 -0.4943  0.5251
 6194TIP3    H142777   1.427   2.373   1.169 -2.0071  1.6792  0.9734
 6194TIP3    H242778   1.567   2.419   1.204 -0.8768 -2.1371  1.9175
 6195TIP3   OH242779   5.754   4.018   0.608  0.3033 -0.0100  1.0976
 6195TIP3    H142780   5.714   4.103   0.591 -1.0576 -0.6105  1.1617
 6195TIP3    H242781   5.810   4.033   0.685  0.3857  0.9076  0.8693
 6196TIP3   OH242782   6.634   4.875   3.026  0.0165 -0.1212  0.1384
 6196TIP3    H142783   6.713   4.871   2.972  0.5231  0.5974  0.8236
 6196TIP3    H242784   6.634   4.792   3.075 -1.1418 -1.4077 -1.8716
 6197TIP3   OH242785   6.111   1.672   1.774 -0.2014  0.2282 -0.2803
 6197TIP3    H142786   6.098   1.612   1.847 -1.5497  2.1050  1.1247
 6197TIP3    H242787   6.201   1.658   1.746 -0.4094 -2.2514  0.1075
 6198TIP3   OH242788   3.882   7.369   2.688 -0.1547  0.5290 -0.6015
 6198TIP3    H142789   3.816   7.305   2.711 -0.0367  0.9205  0.9308
 6198TIP3    H242790   3.863   7.392   2.597  0.3223 -2.2618 -1.5039
 6199TIP3   OH242791   2.200   7.680   1.168 -0.3888 -0.4998  0.3524
 6199TIP3    H142792   2.292   7.673   1.144 -0.2740 -0.1057  0.6723
 6199TIP3    H242793   2.157   7.613   1.115  0.1542 -1.0509  0.5831
 6200TIP3   OH242794   0.009   4.827   2.097  0.3498  0.1612  0.8647
 6200TIP3    H142795  -0.012   4.912   2.057  1.2386  0.1303  0.3065
 6200TIP3    H242796   0.099   4.838   2.128  0.4679 -0.5797  0.7860
 6201TIP3   OH242797   5.709   1.436   2.781  0.2554 -0.1707 -0.0679
 6201TIP3    H142798   5.616   1.414   2.781 -0.4732  2.3721 -2.3392
 6201TIP3    H242799   5.723   1.479   2.866 -1.1503  1.0712 -0.4183
 6202TIP3   OH242800   0.962   1.812   0.770 -0.2378  0.3402 -0.2455
 6202TIP3    H142801   0.881   1.762   0.771 -0.7405  1.1211  1.6862
 6202TIP3    H242802   0.937   1.898   0.735  0.5005 -0.4176 -2.9516
 6203TIP3   OH242803   2.319   2.408   1.994 -0.4450  0.3417  0.3540
 6203TIP3    H142804   2.345   2.468   1.924 -1.5225 -0.1435 -0.4938
 6203TIP3    H242805   2.377   2.430   2.067 -0.0063  1.5785 -0.3329
 6204TIP3   OH242806   0.685   4.503   1.416 -0.2453 -0.3108  0.2277
 6204TIP3    H142807   0.660   4.474   1.504  0.4869 -0.2516  0.4594
 6204TIP3    H242808   0.666   4.428   1.360 -0.9671 -0.2582  0.3863
 6205TIP3   OH242809   2.591   0.932   2.282 -0.4571 -0.6664  0.2289
 6205TIP3    H142810   2.661   0.925   2.347 -0.9506 -1.2499  0.7165
 6205TIP3    H242811   2.619   1.002   2.223 -0.1305  0.0852  1.2424
 6206TIP3   OH242812   0.771   4.973   2.449 -0.5999  0.3171 -0.3250
 6206TIP3    H142813   0.832   4.902   2.431  0.6364  0.4444  2.7306
 6206TIP3    H242814   0.807   5.048   2.401 -0.1549 -0.3726 -1.0884
 6207TIP3   OH242815   0.014   6.668   1.153 -0.2995 -0.3079 -0.6088
 6207TIP3    H142816   0.061   6.746   1.185 -1.9460  0.6578 -0.4248
 6207TIP3    H242817  -0.044   6.645   1.226 -0.8746 -0.8306 -1.2315
 6208TIP3   OH242818   5.729   0.475   1.343  0.4205  0.3488 -0.0879
 6208TIP3    H142819   5.797   0.542   1.342 -1.0561  1.9478 -0.5996
 6208TIP3    H242820   5.694   0.478   1.432  2.4589 -2.1202  0.8980
 6209TIP3   OH242821   3.296   2.446   1.270  0.2414 -0.5546 -0.1934
 6209TIP3    H142822   3.285   2.497   1.350  1.3054 -0.9976  0.2422
 6209TIP3    H242823   3.226   2.380   1.274  0.1022 -0.3855  0.2157
 6210TIP3   OH242824   6.687   4.415   1.347 -0.2299  0.4094 -0.1443
 6210TIP3    H142825   6.618   4.463   1.393 -1.7807 -1.6873 -0.1219
 6210TIP3    H242826   6.734   4.369   1.416  0.0734  0.4518 -0.3220
 6211TIP3   OH242827   6.974   4.898   2.674  0.1919  0.2172 -0.7573
 6211TIP3    H142828   7.059   4.857   2.661  0.3042  0.6765 -1.5018
 6211TIP3    H242829   6.994   4.991   2.687 -0.2967  0.5889 -2.4944
 6212TIP3   OH242830   6.888   7.457   1.586  0.5949  0.1360 -0.0806
 6212TIP3    H142831   6.939   7.375   1.586 -0.5032 -0.5964 -1.5056
 6212TIP3    H242832   6.939   7.516   1.530  0.1081 -0.4591 -1.1741
 6213TIP3   OH242833   3.054   2.298   0.689 -0.1249  0.1916 -0.1107
 6213TIP3    H142834   2.969   2.266   0.720 -1.2915  0.6089 -2.6275
 6213TIP3    H242835   3.032   2.373   0.633  1.7132 -0.7657 -2.2788
 6214TIP3   OH242836   2.486   7.005   0.829 -0.1593 -0.0062  0.0228
 6214TIP3    H142837   2.561   7.014   0.770  0.0011  0.8092  0.3226
 6214TIP3    H242838   2.425   6.948   0.783  0.3891 -0.1940 -0.4895
 6215TIP3   OH242839   3.479   2.088   0.858  0.0164 -0.7051  0.0967
 6215TIP3    H142840   3.453   2.125   0.942  1.3028  0.4566  0.0248
 6215TIP3    H242841   3.401   2.095   0.803  0.0419  1.4547  0.2596
 6216TIP3   OH242842   2.026   0.888   1.273  0.0613 -0.1713  0.1166
 6216TIP3    H142843   2.024   0.798   1.305 -0.4132 -0.2824 -0.2097
 6216TIP3    H242844   1.940   0.901   1.234  0.6279 -0.0612 -1.1488
 6217TIP3   OH242845   5.610   5.539   3.176  0.0223  1.0864 -0.4455
 6217TIP3    H142846   5.694   5.577   3.200  0.2509  0.2615  0.0976
 6217TIP3    H242847   5.555   5.552   3.253  0.2361 -0.0365 -0.0779
 6218TIP3   OH242848   4.822   3.893   1.981  0.2217  0.2073  0.2712
 6218TIP3    H142849   4.909   3.886   1.943  0.0449 -3.0259  0.1617
 6218TIP3    H242850   4.835   3.885   2.075  0.1174  1.2705  0.3917
 6219TIP3   OH242851   4.758   1.766   0.916 -0.3265 -0.3399 -0.6107
 6219TIP3    H142852   4.831   1.705   0.926  0.3541  0.4592 -0.5717
 6219TIP3    H242853   4.680   1.710   0.909  0.0795 -1.1476  1.0461
 6220TIP3   OH242854   7.147   6.332   1.052 -0.3342 -0.4393  0.3549
 6220TIP3    H142855   7.129   6.284   0.971 -2.0788 -0.1071  0.5025
 6220TIP3    H242856   7.133   6.424   1.029  1.1977 -0.1378  0.5339
 6221TIP3   OH242857   2.738   6.964   3.352  0.3359 -0.0576  0.0907
 6221TIP3    H142858   2.652   6.923   3.365 -0.0981 -0.6492 -3.5456
 6221TIP3    H242859   2.793   6.893   3.319  2.0043  0.5296  1.5030
 6222TIP3   OH242860   6.243   4.142   1.599  0.5687  0.0940  0.2896
 6222TIP3    H142861   6.207   4.229   1.581  0.0008  0.0563  1.1788
 6222TIP3    H242862   6.313   4.132   1.535 -1.0088  0.1654 -1.5458
 6223TIP3   OH242863   6.501   1.318   2.712  0.0293 -0.6844 -0.0866
 6223TIP3    H142864   6.581   1.268   2.693  0.0788  0.8387 -5.9434
 6223TIP3    H242865   6.532   1.402   2.744  1.3092  0.6917 -4.3014
 6224TIP3   OH242866   5.980   4.313   0.667  0.0043  0.9888 -0.3210
 6224TIP3    H142867   6.013   4.276   0.585 -0.0389 -3.5944  1.4490
 6224TIP3    H242868   5.886   4.322   0.653  0.0109  0.3630 -0.8512
 6225TIP3   OH242869   1.469   1.640   1.525  0.0860  0.2783 -0.3172
 6225TIP3    H142870   1.443   1.626   1.434  1.1975 -0.5708 -0.5223
 6225TIP3    H242871   1.535   1.573   1.542 -0.7099 -0.1458  1.3921
 6226TIP3   OH242872   7.266   6.092   0.549 -0.3482  0.1628 -0.1386
 6226TIP3    H142873   7.308   6.092   0.635 -1.4377  0.3184  0.4088
 6226TIP3    H242874   7.311   6.023   0.500 -0.0082 -0.2222  0.6987
 6227TIP3   OH242875   2.960   6.388   1.710  0.3458  0.3723 -0.5798
 6227TIP3    H142876   3.033   6.447   1.729  1.0253  0.2524 -2.5976
 6227TIP3    H242877   2.882   6.442   1.723  0.8842  1.1760 -0.6225
 6228TIP3   OH242878   3.914   3.527   2.540  0.0701 -0.0642  0.8008
 6228TIP3    H142879   3.970   3.495   2.611 -0.0596 -0.5767  0.6756
 6228TIP3    H242880   3.970   3.522   2.462  1.3498  3.5549  1.3019
 6229TIP3   OH242881   4.787   0.986   2.397 -1.0077 -0.5199 -0.1108
 6229TIP3    H142882   4.848   1.059   2.391  1.4753 -2.4602  0.1081
 6229TIP3    H242883   4.769   0.961   2.307  1.4843 -2.1582 -0.2530
 6230TIP3   OH242884   1.014   1.358   0.675 -0.8098 -0.6611  0.2088
 6230TIP3    H142885   0.949   1.294   0.706 -0.6372 -0.9321  0.0204
 6230TIP3    H242886   0.968   1.409   0.609 -0.7021 -1.1526 -0.2519
 6231TIP3   OH242887   6.024   3.707   0.792 -0.2781  0.0733  0.1952
 6231TIP3    H142888   6.058   3.688   0.704 -1.3993  0.3887 -0.3189
 6231TIP3    H242889   6.080   3.656   0.850  0.4122 -0.2312 -0.7115
 6232TIP3   OH242890   2.568   5.578   0.469 -0.2105  0.2650 -0.0836
 6232TIP3    H142891   2.482   5.619   0.457  0.2501  0.7650 -2.0912
 6232TIP3    H242892   2.612   5.631   0.535 -1.0850  0.5988  0.2352
 6233TIP3   OH242893   5.265   1.616   2.619  1.1035  0.2266  0.0060
 6233TIP3    H142894   5.337   1.622   2.557  1.4170  1.9861  0.4713
 6233TIP3    H242895   5.195   1.670   2.581  1.7712  2.4571  1.6858
 6234TIP3   OH242896   0.137   7.534   0.853 -0.5172 -0.3583  0.4399
 6234TIP3    H142897   0.116   7.487   0.772 -0.6672  1.9500 -0.9686
 6234TIP3    H242898   0.058   7.582   0.875 -0.3117 -0.5535  1.7032
 6235TIP3   OH242899   7.092   7.271   2.308  0.1192 -0.1189 -0.4074
 6235TIP3    H142900   7.141   7.352   2.296 -1.7133  1.2087  0.6661
 6235TIP3    H242901   7.084   7.235   2.219  0.7872  0.9605 -0.9248
 6236TIP3   OH242902   5.411   2.312   1.943  0.5005  0.1353 -0.2519
 6236TIP3    H142903   5.441   2.226   1.913 -2.2997 -0.9525 -0.2611
 6236TIP3    H242904   5.485   2.347   1.993  1.7573 -2.2758 -0.2417
 6237TIP3   OH242905   1.685   7.085   1.971 -0.1844  0.0422 -0.3255
 6237TIP3    H142906   1.629   7.090   1.894 -0.1289  1.8584 -0.2996
 6237TIP3    H242907   1.747   7.157   1.960  1.6181 -1.3852  0.0709
 6238TIP3   OH242908   1.114   3.906   1.673 -0.6494  0.2611  0.1370
 6238TIP3    H142909   1.133   3.847   1.600 -1.8091  1.8662 -1.5285
 6238TIP3    H242910   1.102   3.848   1.748  2.1628 -1.3548 -0.5064
 6239TIP3   OH242911   4.947   7.577   2.330  0.4723 -0.1453  0.2845
 6239TIP3    H142912   5.038   7.557   2.352  0.4146  1.6883  2.5076
 6239TIP3    H242913   4.899   7.496   2.350  1.0884  0.0737  3.0763
 6240TIP3   OH242914   0.519   6.128   1.130  0.0626  0.1350 -0.1658
 6240TIP3    H142915   0.517   6.080   1.047 -0.2962 -0.1351 -0.0040
 6240TIP3    H242916   0.427   6.150   1.147  0.0300 -0.5023  0.5487
 6241TIP3   OH242917   1.209   5.533   2.552 -0.2690 -0.1239  0.0404
 6241TIP3    H142918   1.279   5.597   2.541  0.1854 -0.3722  1.3416
 6241TIP3    H242919   1.250   5.448   2.536  0.1255 -0.3946  2.1021
 6242TIP3   OH242920   4.172   4.726   2.246  0.5116 -0.7053 -0.8667
 6242TIP3    H142921   4.239   4.659   2.260  0.4066 -0.8008 -0.8229
 6242TIP3    H242922   4.191   4.760   2.159  1.8285  0.6275 -0.1232
 6243TIP3   OH242923   7.133   6.739   1.186 -0.1314 -0.0754  0.2056
 6243TIP3    H142924   7.110   6.820   1.230 -0.6987 -0.9597  1.5866
 6243TIP3    H242925   7.229   6.743   1.178 -0.1275  0.5916  0.5226
 6244TIP3   OH242926   3.526   7.013   2.536  0.0529 -0.0021  0.2454
 6244TIP3    H142927   3.455   7.078   2.530  0.7868  0.6742 -2.1145
 6244TIP3    H242928   3.591   7.054   2.592 -0.8272 -0.0676  1.3463
 6245TIP3   OH242929   5.730   3.050   1.343 -0.5935 -0.0942 -0.0545
 6245TIP3    H142930   5.698   2.960   1.354 -0.1258 -0.3549 -0.7202
 6245TIP3    H242931   5.651   3.103   1.337 -0.8846 -0.2607  1.7185
 6246TIP3   OH242932   2.717   5.913   1.144  0.1318  0.5007 -0.6883
 6246TIP3    H142933   2.790   5.854   1.125  0.5831  1.0847 -0.7899
 6246TIP3    H242934   2.730   5.938   1.235 -0.5449 -0.2177 -0.3790
 6247TIP3   OH242935   1.953   6.612   0.858  0.4565 -0.0015  0.8482
 6247TIP3    H142936   1.904   6.536   0.889 -0.2148  0.8031  1.8008
 6247TIP3    H242937   1.891   6.658   0.800  0.7972 -0.0737  0.4224
 6248TIP3   OH242938   1.409   6.579   2.577  0.2249  0.8501  0.4221
 6248TIP3    H142939   1.383   6.658   2.530 -1.1482 -0.6506 -1.5193
 6248TIP3    H242940   1.329   6.548   2.619 -0.1710 -1.2414 -1.6388
 6249TIP3   OH242941   6.238   1.005   2.479  0.2573  0.0879 -0.1397
 6249TIP3    H142942   6.318   0.954   2.485  0.6167  0.5140 -1.1419
 6249TIP3    H242943   6.260   1.091   2.515 -0.3246 -0.3943  1.4657
 6250TIP3   OH242944   5.126   1.510   1.175 -0.3552 -0.9510 -0.2040
 6250TIP3    H142945   5.194   1.455   1.136  0.9167  0.1151  0.4232
 6250TIP3    H242946   5.161   1.533   1.262 -0.5070  1.3643 -0.6926
 6251TIP3   OH242947   3.652   7.654   1.175 -0.2556  0.0814 -0.1093
 6251TIP3    H142948   3.664   7.606   1.257 -0.3941 -0.8623 -0.6323
 6251TIP3    H242949   3.564   7.691   1.182  0.1902  1.0542  0.6864
 6252TIP3   OH242950   4.650   0.755   1.571  0.2970  0.1666 -0.0928
 6252TIP3    H142951   4.706   0.687   1.534 -0.0297  0.0219 -0.3226
 6252TIP3    H242952   4.698   0.837   1.555  0.5380  0.0251 -0.1030
 6253TIP3   OH242953   3.889   7.032   0.785  0.0109 -0.0971  0.1460
 6253TIP3    H142954   3.961   7.072   0.833  0.6422 -0.4531 -0.4764
 6253TIP3    H242955   3.917   6.942   0.771 -0.1599 -0.0092 -0.8581
 6254TIP3   OH242956   1.588   3.383   1.457 -0.1912  0.2673 -0.1130
 6254TIP3    H142957   1.655   3.389   1.390 -0.6020 -1.2926 -0.7089
 6254TIP3    H242958   1.629   3.419   1.536  0.9267  0.4279 -0.7559
 6255TIP3   OH242959   1.230   5.098   1.441 -0.5824  0.4990  0.5556
 6255TIP3    H142960   1.226   5.167   1.375  1.7379 -0.8140 -1.1210
 6255TIP3    H242961   1.139   5.074   1.456 -1.5722  4.3101  1.7623
 6256TIP3   OH242962   2.088   2.577   1.079  0.1221  0.2979 -0.0598
 6256TIP3    H142963   2.146   2.626   1.020  2.8416 -1.8329  0.6341
 6256TIP3    H242964   2.070   2.496   1.032  0.1921 -0.3215  0.9692
 6257TIP3   OH242965   7.605   7.496   1.669  0.2009  0.0744 -0.2544
 6257TIP3    H142966   7.573   7.555   1.737  1.8871  1.8939 -0.9258
 6257TIP3    H242967   7.601   7.547   1.589  1.5227 -0.7994 -0.9150
 6258TIP3   OH242968   1.871   5.495   1.924 -0.4061  0.7682  0.0686
 6258TIP3    H142969   1.811   5.567   1.906  1.7110  2.9005  1.0238
 6258TIP3    H242970   1.867   5.484   2.019 -0.0744  0.1875  0.0188
 6259TIP3   OH242971   7.175   0.542   1.361  0.0896 -0.4657  0.3838
 6259TIP3    H142972   7.188   0.612   1.425  0.3695  0.2193 -0.4028
 6259TIP3    H242973   7.260   0.498   1.356 -0.0208 -0.7210  0.7067
 6260TIP3   OH242974   7.070   0.511   2.303  0.2242  0.0237  0.1878
 6260TIP3    H142975   7.163   0.528   2.287  0.3908 -1.0553 -0.0940
 6260TIP3    H242976   7.033   0.597   2.323  1.4823  0.3259  1.3651
 6261TIP3   OH242977   2.232   4.589   1.688 -0.1252  0.1712  0.0506
 6261TIP3    H142978   2.141   4.619   1.689 -0.4127 -0.5506 -1.7797
 6261TIP3    H242979   2.263   4.610   1.600  1.5319  0.5011  0.6853
 6262TIP3   OH242980   5.433   2.133   3.186 -0.2440 -0.0724 -0.1526
 6262TIP3    H142981   5.475   2.180   3.258  1.3849  0.1889 -1.2322
 6262TIP3    H242982   5.345   2.171   3.181  0.1348  0.9718  0.7109
 6263TIP3   OH242983   4.706   4.335   0.862  0.0970 -0.3550 -0.0187
 6263TIP3    H142984   4.745   4.339   0.774  0.0242 -0.2796 -0.0479
 6263TIP3    H242985   4.778   4.310   0.919  1.1273  3.1292  0.4931
 6264TIP3   OH242986   3.518   1.896   2.171 -0.8726  0.7424  0.1875
 6264TIP3    H142987   3.572   1.971   2.146  0.4870 -0.5805 -1.0650
 6264TIP3    H242988   3.577   1.821   2.165 -2.2685 -0.4876  1.0927
 6265TIP3   OH242989   5.994   1.319   1.454  0.1647 -0.3580  0.0950
 6265TIP3    H142990   5.972   1.294   1.364 -0.6878 -1.3334  0.5502
 6265TIP3    H242991   5.996   1.415   1.453 -0.4197 -0.3466 -0.8347
 6266TIP3   OH242992   1.314   6.119   1.248  0.0312 -0.5175  0.6261
 6266TIP3    H142993   1.250   6.102   1.317 -0.2844 -1.2764  0.1717
 6266TIP3    H242994   1.268   6.176   1.186  0.0507 -0.4453  0.6796
 6267TIP3   OH242995   6.569   3.552   0.782 -0.4020  0.1361  0.2809
 6267TIP3    H142996   6.557   3.591   0.869 -0.4776  0.9329 -0.0814
 6267TIP3    H242997   6.660   3.569   0.760 -0.2185 -0.5993  0.4557
 6268TIP3   OH242998   2.045   7.367   2.818  0.3737 -0.3320 -0.4644
 6268TIP3    H142999   1.976   7.303   2.800  0.3492 -0.1141 -1.1645
 6268TIP3    H243000   2.002   7.452   2.807  0.2414 -0.1602  1.0467
 6269TIP3   OH243001   2.693   3.394   2.224 -0.3081 -0.2757  0.2519
 6269TIP3    H143002   2.764   3.457   2.216 -1.6226  1.3654  1.0688
 6269TIP3    H243003   2.626   3.426   2.164 -0.9868 -0.9111  0.6549
 6270TIP3   OH243004   6.849   4.718   0.311 -0.2793  0.9165 -0.0110
 6270TIP3    H143005   6.788   4.650   0.339  0.8164  0.5525  1.6407
 6270TIP3    H243006   6.808   4.756   0.233 -2.0776 -0.0181  0.4146
 6271TIP3   OH243007   6.769   6.883   0.720 -0.0904  0.1048 -0.3492
 6271TIP3    H143008   6.842   6.869   0.780 -1.0955  1.2030  1.2236
 6271TIP3    H243009   6.800   6.850   0.636  1.7596 -0.5444  0.5326
 6272TIP3   OH243010   1.615   3.979   1.343  0.6658  0.1402 -0.0522
 6272TIP3    H143011   1.681   3.917   1.313  1.7980  1.2482  0.0612
 6272TIP3    H243012   1.578   4.016   1.262  0.5783 -0.0891 -0.1159
 6273TIP3   OH243013   7.225   4.031   0.450 -0.0208 -0.4731  0.1477
 6273TIP3    H143014   7.187   4.119   0.458  0.8051  0.0529 -1.3629
 6273TIP3    H243015   7.168   3.976   0.503 -0.6591  0.9397  0.9969
 6274TIP3   OH243016   1.389   2.832   2.561 -0.4782  0.3367 -0.4472
 6274TIP3    H143017   1.371   2.781   2.481  0.1398 -0.2555 -0.2226
 6274TIP3    H243018   1.483   2.849   2.557 -0.4212  0.1933  0.2191
 6275TIP3   OH243019   1.681   6.588   2.590 -0.3020 -0.1220 -0.4583
 6275TIP3    H143020   1.686   6.519   2.656  0.1285  1.3662  1.1339
 6275TIP3    H243021   1.588   6.607   2.583 -0.2365  1.0152  1.1951
 6276TIP3   OH243022   2.133   6.305   1.787  0.0651  0.3948  0.2612
 6276TIP3    H143023   2.058   6.267   1.832 -0.3973 -0.3845 -1.1185
 6276TIP3    H243024   2.103   6.391   1.757 -1.2534 -0.9839 -2.6529
 6277TIP3   OH243025   3.090   7.436   1.430  0.0538  0.1810  0.3626
 6277TIP3    H143026   3.077   7.524   1.394 -0.9154  0.2345  0.8079
 6277TIP3    H243027   3.098   7.380   1.353  1.6212  0.7677  0.0672
 6278TIP3   OH243028   6.026   3.561   2.248 -0.5343  0.2060  0.3112
 6278TIP3    H143029   6.108   3.580   2.203 -0.2685 -1.5127 -0.0231
 6278TIP3    H243030   5.969   3.523   2.180 -0.7452 -0.7921  1.0156
 6279TIP3   OH243031   2.206   5.309   2.999 -0.0831  0.4522 -0.1102
 6279TIP3    H143032   2.156   5.253   3.058 -0.5988  2.3658  1.3766
 6279TIP3    H243033   2.203   5.264   2.914  0.3993 -2.2437  1.1772
 6280TIP3   OH243034   7.393   5.722   2.239 -0.6608  0.1112 -0.1492
 6280TIP3    H143035   7.480   5.681   2.240 -0.8260 -0.2403  0.4520
 6280TIP3    H243036   7.388   5.769   2.322 -1.7119 -1.3274  0.6294
 6281TIP3   OH243037   3.396   5.542   0.674  0.0885 -0.2433  0.0840
 6281TIP3    H143038   3.335   5.495   0.617 -1.7767  1.8348  0.2075
 6281TIP3    H243039   3.425   5.476   0.737  0.0633 -1.9340 -1.5775
 6282TIP3   OH243040   3.613   1.002   2.140  0.9687 -0.1096 -0.1815
 6282TIP3    H143041   3.556   0.972   2.211 -1.5568 -1.3512 -2.5656
 6282TIP3    H243042   3.603   1.097   2.139  0.3396 -0.1607  0.5594
 6283TIP3   OH243043   7.418   3.128   0.438  0.6294  0.1276 -0.4761
 6283TIP3    H143044   7.447   3.040   0.462 -0.8654 -0.5431 -0.9538
 6283TIP3    H243045   7.322   3.121   0.435  0.5676  1.2289 -2.5672
 6284TIP3   OH243046   1.013   4.876   2.655 -0.0720 -0.0872  0.6380
 6284TIP3    H143047   1.049   4.928   2.583 -0.4601 -2.0436 -1.0895
 6284TIP3    H243048   1.018   4.933   2.731  2.1308  1.4225 -0.5266
 6285TIP3   OH243049   4.644   1.060   2.653  0.4925  0.0209  0.4797
 6285TIP3    H143050   4.683   1.002   2.587  0.1665 -1.6081  1.6669
 6285TIP3    H243051   4.717   1.084   2.710  0.5224  0.3844  0.2959
 6286TIP3   OH243052   3.571   4.119   1.216 -0.1343  0.6935  0.1910
 6286TIP3    H143053   3.645   4.171   1.247  2.8644 -1.2487 -2.9145
 6286TIP3    H243054   3.564   4.141   1.123 -0.4972 -2.2653 -0.6062
 6287TIP3   OH243055   6.904   6.175   1.378 -0.0460  0.2994  0.0253
 6287TIP3    H143056   6.933   6.265   1.369  0.8039 -0.0852 -1.2677
 6287TIP3    H243057   6.834   6.179   1.444  2.0201  1.4467  2.3216
 6288TIP3   OH243058   0.712   2.709   2.108  0.1791  0.1228 -0.4382
 6288TIP3    H143059   0.695   2.752   2.192 -0.1476  0.8135 -0.8431
 6288TIP3    H243060   0.713   2.781   2.045  1.2860 -0.2761 -0.9128
 6289TIP3   OH243061   5.632   5.513   1.757 -0.4992  0.0426  0.1108
 6289TIP3    H143062   5.674   5.527   1.842  0.9823  0.7388 -0.7057
 6289TIP3    H243063   5.564   5.580   1.752  0.5967  1.1909  0.0301
 6290TIP3   OH243064   0.408   1.560   1.744  0.7404  0.0725  0.5267
 6290TIP3    H143065   0.465   1.505   1.797  0.2787 -1.3732 -0.4235
 6290TIP3    H243066   0.320   1.545   1.778  0.4616 -0.7252 -0.4813
 6291TIP3   OH243067   5.515   3.426   2.429 -0.7122 -0.2750 -0.2521
 6291TIP3    H143068   5.473   3.398   2.510 -1.6807  1.2489 -0.1855
 6291TIP3    H243069   5.442   3.438   2.368 -0.0452 -0.7876 -1.1657
 6292TIP3   OH243070   4.020   3.587   1.703  0.0656 -0.1378 -0.1697
 6292TIP3    H143071   3.924   3.591   1.707  0.0850  0.3589 -0.1444
 6292TIP3    H243072   4.047   3.679   1.702  0.5170 -0.2767 -0.8229
 6293TIP3   OH243073   3.890   5.420   0.692 -0.0181 -0.1047  0.3222
 6293TIP3    H143074   3.847   5.339   0.718  0.9356 -0.1222  2.0268
 6293TIP3    H243075   3.849   5.487   0.747 -0.6794  0.5777 -0.9461
 6294TIP3   OH243076   2.088   4.827   1.786  0.6898  0.4619 -0.1729
 6294TIP3    H143077   2.159   4.887   1.810  0.7595  0.5591 -0.6103
 6294TIP3    H243078   2.013   4.855   1.838  0.6948  0.9906 -0.4515
 6295TIP3   OH243079   7.185   4.139   0.903 -0.5458  0.2705 -0.1241
 6295TIP3    H143080   7.152   4.078   0.969  2.0640 -1.0526  0.0993
 6295TIP3    H243081   7.126   4.128   0.829 -0.7619 -1.8207  0.2921
 6296TIP3   OH243082   5.781   6.741   1.914  0.1750  0.2890 -0.5638
 6296TIP3    H143083   5.715   6.809   1.900  0.4610  0.4172 -1.3300
 6296TIP3    H243084   5.862   6.777   1.878  1.1761  0.9371  2.1293
 6297TIP3   OH243085   3.313   3.813   3.061  0.1274  0.0001  0.4021
 6297TIP3    H143086   3.244   3.756   3.096 -1.2186  1.2112 -0.1401
 6297TIP3    H243087   3.265   3.883   3.016  1.7219  1.2737  0.5953
 6298TIP3   OH243088   4.682   3.932   2.452  0.2816 -0.1171 -0.5225
 6298TIP3    H143089   4.677   3.892   2.365 -0.1845  1.2500 -1.1537
 6298TIP3    H243090   4.625   3.878   2.507 -0.9268  0.1011 -1.5262
 6299TIP3   OH243091   4.066   3.749   1.425  0.2412  0.1969 -0.4971
 6299TIP3    H143092   4.116   3.724   1.503 -0.6604 -1.5762 -0.4521
 6299TIP3    H243093   4.036   3.838   1.444  2.5223  0.9560 -0.1266
 6300TIP3   OH243094   6.001   7.303   0.756  0.8265  0.0520 -0.0838
 6300TIP3    H143095   6.043   7.348   0.683  0.4209  1.3125  0.4283
 6300TIP3    H243096   6.066   7.304   0.826  0.3911  0.9490  0.3229
 6301TIP3   OH243097   1.822   1.123   1.194 -0.5860  0.2041 -0.4262
 6301TIP3    H143098   1.801   1.183   1.122  2.6384  0.0205 -1.6862
 6301TIP3    H243099   1.909   1.149   1.222 -0.8723 -1.1691  1.9975
 6302TIP3   OH243100   0.300   0.523   2.150 -0.3917 -0.1211 -0.2426
 6302TIP3    H143101   0.245   0.505   2.074 -0.1591  1.5048 -0.8234
 6302TIP3    H243102   0.387   0.493   2.122 -0.2846  0.5715 -0.6619
 6303TIP3   OH243103   3.910   6.379   1.752 -0.6223  0.1178  0.4617
 6303TIP3    H143104   3.838   6.420   1.801  0.1743  0.9678  0.9534
 6303TIP3    H243105   3.989   6.424   1.783  0.3576 -2.0720  1.3045
 6304TIP3   OH243106   2.860   0.484   1.704 -0.0285  0.4678 -0.3384
 6304TIP3    H143107   2.782   0.531   1.675  0.6038  1.8830  0.1407
 6304TIP3    H243108   2.929   0.551   1.704  0.5574 -0.0410  1.9773
 6305TIP3   OH243109   0.856   5.129   2.237  0.2354  0.4254 -0.1467
 6305TIP3    H143110   0.777   5.181   2.253 -0.1977 -0.0960 -0.5426
 6305TIP3    H243111   0.831   5.069   2.166  0.3443 -1.1687  1.1134
 6306TIP3   OH243112   1.123   0.731   2.709  0.2077 -0.5345 -0.0644
 6306TIP3    H143113   1.210   0.701   2.734 -0.0339 -1.3988 -0.2039
 6306TIP3    H243114   1.110   0.812   2.758  1.4572  0.1280 -0.7740
 6307TIP3   OH243115   4.731   5.463   3.289 -0.4608  0.1270  0.8622
 6307TIP3    H143116   4.811   5.463   3.235 -0.5709 -0.5319  0.6854
 6307TIP3    H243117   4.730   5.548   3.331 -0.9171  1.1041 -1.0051
 6308TIP3   OH243118   0.852   0.278   0.548  0.3307  0.3728 -0.1389
 6308TIP3    H143119   0.801   0.198   0.559 -2.0609  1.9464  1.0225
 6308TIP3    H243120   0.905   0.284   0.628  0.8467 -0.2434 -0.4272
 6309TIP3   OH243121   3.694   7.394   1.402 -0.3852 -0.1625 -0.4867
 6309TIP3    H143122   3.658   7.476   1.437 -1.2151 -1.1886  1.2086
 6309TIP3    H243123   3.778   7.384   1.447  0.0062  0.0562 -1.1611
 6310TIP3   OH243124   3.606   5.430   1.854 -0.0604 -0.0747 -0.0178
 6310TIP3    H143125   3.587   5.386   1.771  1.9426 -1.4143  0.1371
 6310TIP3    H243126   3.521   5.442   1.896 -1.1559  1.0058 -2.4135
 6311TIP3   OH243127   7.351   5.887   3.192 -0.0488 -0.0518  0.3065
 6311TIP3    H143128   7.433   5.907   3.146  0.3359 -1.2954  0.4085
 6311TIP3    H243129   7.335   5.963   3.247  0.3679  0.7478 -0.6428
 6312TIP3   OH243130   1.664   4.802   3.863  0.2772 -0.1812  0.1366
 6312TIP3    H143131   1.579   4.834   3.893  0.9737  0.5960  1.3522
 6312TIP3    H243132   1.653   4.707   3.861 -0.7595 -0.0767 -0.2046
 6313TIP3   OH243133   0.453   1.316   1.003  0.4855  0.8009  0.0972
 6313TIP3    H143134   0.435   1.279   1.089  0.0542  0.5272 -0.1064
 6313TIP3    H243135   0.405   1.260   0.942  1.2336  0.6526 -0.3765
 6314TIP3   OH243136   1.085   0.596   1.174 -0.4672  0.2089  0.4341
 6314TIP3    H143137   1.043   0.669   1.127  0.5181  0.9006  0.5977
 6314TIP3    H243138   1.149   0.561   1.111  0.6532  0.9560  1.1183
 6315TIP3   OH243139   1.813   2.713   2.003 -0.1497 -0.1527  0.3611
 6315TIP3    H143140   1.794   2.620   1.994  2.3000 -0.7010  0.2109
 6315TIP3    H243141   1.799   2.732   2.095  2.1987 -1.4732  1.0817
 6316TIP3   OH243142   5.217   3.529   0.664  0.1357  0.2108 -0.2118
 6316TIP3    H143143   5.275   3.569   0.729 -0.4932  2.6743 -1.0561
 6316TIP3    H243144   5.203   3.598   0.599 -0.2540 -1.7556 -2.3254
 6317TIP3   OH243145   6.269   0.784   0.663 -0.3672 -0.0586  0.2326
 6317TIP3    H143146   6.238   0.853   0.604 -0.6032  0.8699  1.4037
 6317TIP3    H243147   6.361   0.773   0.641 -0.4110  0.3863 -0.2063
 6318TIP3   OH243148   3.577   2.826   0.849  0.3581 -0.0219  0.0171
 6318TIP3    H143149   3.651   2.766   0.850 -0.1292 -0.6322  0.1839
 6318TIP3    H243150   3.500   2.769   0.844 -0.1359  0.5587  0.7014
 6319TIP3   OH243151   3.746   4.021   2.963 -0.2484 -0.2523 -0.0941
 6319TIP3    H143152   3.710   4.073   2.891  0.6334 -1.3099 -1.3385
 6319TIP3    H243153   3.828   4.065   2.986  0.8397 -1.4193 -1.6045
 6320TIP3   OH243154   3.351   4.483   2.902 -0.3210 -0.1577 -0.2391
 6320TIP3    H143155   3.419   4.490   2.969 -0.9674  0.5531  0.3583
 6320TIP3    H243156   3.397   4.454   2.824  0.1018 -3.4100  1.0746
 6321TIP3   OH243157   7.610   0.684   2.209 -0.4265  0.4629  0.1289
 6321TIP3    H143158   7.602   0.709   2.300 -1.2499 -1.8978  0.7787
 6321TIP3    H243159   7.664   0.605   2.211 -1.3390 -0.2419 -1.2828
 6322TIP3   OH243160   1.184   2.718   1.530  0.0909 -0.2191  1.0766
 6322TIP3    H143161   1.273   2.694   1.505  0.2173  0.6177  0.7143
 6322TIP3    H243162   1.161   2.790   1.472 -1.3397 -1.3033  0.2366
 6323TIP3   OH243163   0.133   4.341   2.808 -0.0617  0.6565  0.1222
 6323TIP3    H143164   0.221   4.306   2.827  0.1328  0.7967 -0.5107
 6323TIP3    H243165   0.145   4.395   2.730 -0.3634  2.1257  1.0381
 6324TIP3   OH243166   4.201   1.603   1.000  0.4512  0.6530  0.4772
 6324TIP3    H143167   4.179   1.542   1.071 -0.7369  1.5556  0.9291
 6324TIP3    H243168   4.179   1.556   0.920  2.8105 -0.7996  0.5690
 6325TIP3   OH243169   0.961   4.656   3.477  0.2559  0.0698 -0.0094
 6325TIP3    H143170   0.905   4.635   3.552  0.6498  1.8466  0.8180
 6325TIP3    H243171   0.914   4.618   3.402 -1.7736  0.9735  0.7269
 6326TIP3   OH243172   2.524   0.339   1.051 -0.7758  0.1205 -0.6217
 6326TIP3    H143173   2.572   0.258   1.069  0.1028  1.1858  2.7108
 6326TIP3    H243174   2.437   0.310   1.025 -0.0125 -1.8669 -1.1386
 6327TIP3   OH243175   1.826   1.828   1.334 -0.3050  0.2886 -0.0327
 6327TIP3    H143176   1.886   1.894   1.299  0.3023 -0.3976 -0.3244
 6327TIP3    H243177   1.765   1.811   1.263 -0.3333  0.3870 -0.0319
 6328TIP3   OH243178   4.971   3.488   0.984 -0.2617  0.6174  0.2179
 6328TIP3    H143179   4.896   3.459   0.932  0.5454 -0.9618 -0.1338
 6328TIP3    H243180   5.034   3.416   0.977  1.6969  2.3123 -0.2868
 6329TIP3   OH243181   6.174   0.789   2.252  0.5047  0.1409  0.0842
 6329TIP3    H143182   6.179   0.696   2.274 -1.8575 -1.0475 -3.5401
 6329TIP3    H243183   6.265   0.817   2.242  1.2529 -1.7466  1.2408
 6330TIP3   OH243184   5.155   0.549   1.757  0.3208  0.5654 -0.2003
 6330TIP3    H143185   5.069   0.513   1.780  0.6841 -0.2694 -0.1303
 6330TIP3    H243186   5.145   0.643   1.772 -0.3954  0.4098  0.4016
 6331TIP3   OH243187   3.650   5.238   1.605 -0.3102  0.0635  0.4878
 6331TIP3    H143188   3.560   5.215   1.583  0.0793 -1.1281  0.0937
 6331TIP3    H243189   3.704   5.191   1.542  0.5301  2.8112 -0.9977
 6332TIP3   OH243190   3.541   4.353   0.724  0.5009  0.0545 -0.2363
 6332TIP3    H143191   3.597   4.386   0.795  0.0014  0.9217 -0.2212
 6332TIP3    H243192   3.477   4.423   0.711 -1.1351 -1.2767  0.3488
 6333TIP3   OH243193   4.195   4.420   1.567 -0.6692 -0.5652  0.6802
 6333TIP3    H143194   4.249   4.375   1.632 -0.2388 -0.4007  0.4414
 6333TIP3    H243195   4.255   4.438   1.494 -1.1017 -0.5749  0.3195
 6334TIP3   OH243196   7.464   7.098   2.996  0.2379 -0.0294 -0.0939
 6334TIP3    H143197   7.532   7.042   3.034  0.0528 -0.2056 -0.0205
 6334TIP3    H243198   7.485   7.186   3.026 -0.1299 -0.2145  0.7405
 6335TIP3   OH243199   2.235   0.237   0.830 -0.2531 -1.3642 -0.2480
 6335TIP3    H143200   2.296   0.282   0.771 -0.4944 -1.3571 -0.4923
 6335TIP3    H243201   2.275   0.152   0.845 -0.1990 -1.3727 -0.4362
 6336TIP3   OH243202   0.228   3.981   2.742 -0.7494  0.2360  0.6167
 6336TIP3    H143203   0.188   4.016   2.662 -0.0797 -2.4435 -1.0351
 6336TIP3    H243204   0.158   3.932   2.784 -0.4787 -0.4276  0.3106
 6337TIP3   OH243205   3.491   1.424   0.593  0.4372 -0.0188 -0.2669
 6337TIP3    H143206   3.577   1.432   0.636  0.3924  1.1401 -0.3468
 6337TIP3    H243207   3.486   1.333   0.566  0.5632 -0.7599  1.9902
 6338TIP3   OH243208   4.022   2.467   2.030 -0.6723  0.1045  0.0531
 6338TIP3    H143209   4.099   2.460   1.974  0.7543  0.6533  1.8415
 6338TIP3    H243210   3.948   2.455   1.971  0.7834 -1.3676 -1.5966
 6339TIP3   OH243211   0.389   2.432   2.956  0.1783 -0.0577  0.4136
 6339TIP3    H143212   0.369   2.400   2.868 -2.1535 -0.9466  1.1742
 6339TIP3    H243213   0.470   2.387   2.981  0.8417  0.1820 -1.2324
 6340TIP3   OH243214   6.850   2.225   0.997  0.3724 -0.6378 -0.3399
 6340TIP3    H143215   6.859   2.205   0.904 -0.2099  1.0246 -0.8000
 6340TIP3    H243216   6.938   2.254   1.024 -0.1524  2.2856 -1.3344
 6341TIP3   OH243217   7.014   2.555   0.873 -0.4745  0.0964  0.1492
 6341TIP3    H143218   6.957   2.601   0.934 -1.2432 -0.6519  0.0283
 6341TIP3    H243219   7.095   2.539   0.921 -0.5988  0.6391  0.5359
 6342TIP3   OH243220   3.146   4.305   2.027 -0.0943 -0.3604 -0.1931
 6342TIP3    H143221   3.186   4.256   2.099 -0.3359 -0.3892 -0.0753
 6342TIP3    H243222   3.142   4.395   2.059  0.4661 -0.2387 -0.4596
 6343TIP3   OH243223   0.746   5.397   2.048  0.0712  0.1173 -0.4671
 6343TIP3    H143224   0.742   5.364   1.958  1.0052  2.1182 -1.3220
 6343TIP3    H243225   0.836   5.430   2.057 -0.2131  0.5618  0.9749
 6344TIP3   OH243226   4.455   4.647   1.230  0.2004 -0.1394 -0.7013
 6344TIP3    H143227   4.481   4.557   1.252 -0.1461  0.0477  0.5387
 6344TIP3    H243228   4.423   4.684   1.312 -0.1094  0.9754 -1.2985
 6345TIP3   OH243229   4.317   0.397   2.043 -0.1453  0.1034  0.0852
 6345TIP3    H143230   4.377   0.355   1.980  0.4400  1.1468 -0.0780
 6345TIP3    H243231   4.293   0.327   2.104  1.7819 -0.2120  0.5462
 6346TIP3   OH243232   4.875   3.846   2.618 -0.8178  0.4960 -1.3583
 6346TIP3    H143233   4.835   3.904   2.554 -0.6344  2.1116 -0.0674
 6346TIP3    H243234   4.887   3.900   2.696 -1.0541 -1.4006  0.0737
 6347TIP3   OH243235   4.722   5.672   2.023  0.5656 -0.2399  0.0920
 6347TIP3    H143236   4.680   5.758   2.021 -1.4614 -1.1828 -0.3617
 6347TIP3    H243237   4.688   5.631   2.103  0.6440 -1.0193 -0.2691
 6348TIP3   OH243238   5.567   2.073   1.958 -0.3259  0.4424  0.3917
 6348TIP3    H143239   5.486   2.026   1.976 -0.1062  0.2906  1.0277
 6348TIP3    H243240   5.623   2.054   2.034 -0.4719  2.2444  0.9983
 6349TIP3   OH243241   6.397   0.226   1.160 -0.6234 -0.0943  0.4425
 6349TIP3    H143242   6.411   0.132   1.169 -2.5538 -0.6845 -1.8673
 6349TIP3    H243243   6.336   0.247   1.231 -0.6878 -0.7102  0.5778
 6350TIP3   OH243244   3.486   7.322   1.230 -0.0472 -0.3584 -0.3587
 6350TIP3    H143245   3.523   7.322   1.319 -2.0867  2.1290  0.6295
 6350TIP3    H243246   3.399   7.285   1.241  0.2556 -1.5439 -1.7014
 6351TIP3   OH243247   7.524   1.900   0.946 -0.4437  0.0151  0.0729
 6351TIP3    H143248   7.445   1.852   0.923 -1.1422  1.1592  0.0181
 6351TIP3    H243249   7.558   1.933   0.862  0.2168 -0.6293  0.0712
 6352TIP3   OH243250   4.875   1.334   0.570 -0.1394  0.0918  0.4965
 6352TIP3    H143251   4.782   1.336   0.588 -0.4533  0.7555 -0.9953
 6352TIP3    H243252   4.914   1.393   0.634 -0.8957  0.7045  0.4026
 6353TIP3   OH243253   3.650   5.873   1.944  0.3232 -0.2796  0.2455
 6353TIP3    H143254   3.734   5.919   1.936 -1.1509  2.8868  1.5523
 6353TIP3    H243255   3.636   5.835   1.857  2.2245  0.7208 -0.5544
 6354TIP3   OH243256   1.661   5.231   2.626  0.2872 -0.1985 -0.0937
 6354TIP3    H143257   1.593   5.217   2.692 -0.8783 -0.3725 -1.2794
 6354TIP3    H243258   1.685   5.143   2.599 -1.5149 -0.1682 -2.0826
 6355TIP3   OH243259   6.062   0.373   1.110  0.2904  0.2930  0.2828
 6355TIP3    H143260   6.138   0.377   1.052  0.2521 -1.9699  0.0044
 6355TIP3    H243261   6.099   0.357   1.197  0.1523 -1.1970  0.0879
 6356TIP3   OH243262   1.691   1.305   1.899 -0.2930  0.0941 -0.0208
 6356TIP3    H143263   1.620   1.350   1.943 -0.3528  0.7495 -0.7529
 6356TIP3    H243264   1.749   1.375   1.869  1.6565 -0.4702  2.1198
 6357TIP3   OH243265   2.179   0.949   0.955  0.0472  0.3152 -0.3715
 6357TIP3    H143266   2.092   0.913   0.976  0.1404 -0.6100 -1.5124
 6357TIP3    H243267   2.160   1.029   0.906 -0.1569  0.5175  0.0303
 6358TIP3   OH243268   0.491   5.817   1.118  0.0354 -0.3327  0.1712
 6358TIP3    H143269   0.396   5.810   1.104  0.1724 -1.3794 -0.3555
 6358TIP3    H243270   0.525   5.731   1.095  1.2047  0.2409 -0.3360
 6359TIP3   OH243271   3.695   2.215   1.955 -0.1287 -0.3828  0.0239
 6359TIP3    H143272   3.766   2.168   1.911 -1.4719 -2.2791 -0.1901
 6359TIP3    H243273   3.689   2.175   2.042 -3.2360 -2.8632 -1.1550
 6360TIP3   OH243274   0.400   2.142   0.980  0.7647 -0.3935  0.1245
 6360TIP3    H143275   0.398   2.234   0.955 -0.1266  0.3260  2.5512
 6360TIP3    H243276   0.442   2.098   0.906  0.4442  1.8134 -1.4667
 6361TIP3   OH243277   0.653   0.638   1.140 -0.3497 -0.0794 -0.5736
 6361TIP3    H143278   0.695   0.570   1.194 -0.3192  0.2003 -0.2444
 6361TIP3    H243279   0.601   0.689   1.202 -1.1713 -0.4104 -0.9728
 6362TIP3   OH243280   2.185   4.344   1.252 -0.3473 -0.1573 -0.4386
 6362TIP3    H143281   2.102   4.319   1.294 -0.1924  0.2543  0.1334
 6362TIP3    H243282   2.252   4.313   1.313 -0.0542 -0.9237 -1.1343
 6363TIP3   OH243283   5.645   1.386   2.519  0.2863  0.0312 -0.4990
 6363TIP3    H143284   5.691   1.400   2.602  0.1903  1.0526 -0.6001
 6363TIP3    H243285   5.578   1.321   2.540 -0.7174  1.3663  0.6309
 6364TIP3   OH243286   6.239   6.211   2.802 -0.0725 -0.1886  0.1421
 6364TIP3    H143287   6.184   6.192   2.877 -0.6016  0.6016 -0.0310
 6364TIP3    H243288   6.305   6.271   2.835  0.6398 -1.0543  0.3250
 6365TIP3   OH243289   1.689   4.154   3.584 -0.4661  0.1600  0.2208
 6365TIP3    H143290   1.732   4.236   3.561 -1.1384  0.4997  0.1416
 6365TIP3    H243291   1.760   4.097   3.612  0.0006  0.8048  0.3806
 6366TIP3   OH243292   3.998   1.379   2.700 -0.3270  0.3535  0.4427
 6366TIP3    H143293   3.993   1.312   2.768 -1.8250  0.0920  0.1136
 6366TIP3    H243294   4.017   1.460   2.747  0.5999 -0.1338  0.9363
 6367TIP3   OH243295   7.672   6.383   1.511 -0.1576 -0.5671  0.5069
 6367TIP3    H143296   7.668   6.308   1.453  1.0899  0.0778 -0.4620
 6367TIP3    H243297   7.764   6.391   1.535 -0.0706  1.2665 -0.2651
 6368TIP3   OH243298   3.216   0.496   1.590  0.1138 -0.4101  0.1975
 6368TIP3    H143299   3.195   0.446   1.512 -0.5438  0.1364  0.0182
 6368TIP3    H243300   3.246   0.431   1.654 -2.8484 -1.3714  0.7493
 6369TIP3   OH243301   3.372   3.160   2.300  0.2481 -0.0432  0.1595
 6369TIP3    H143302   3.353   3.215   2.376  0.1740 -0.0456  0.1425
 6369TIP3    H243303   3.420   3.219   2.241 -0.9570  0.3910 -0.4141
 6370TIP3   OH243304   6.500   6.006   2.441 -0.2919 -0.4492 -0.0906
 6370TIP3    H143305   6.486   6.091   2.401  0.6952  0.5139  1.5259
 6370TIP3    H243306   6.432   5.999   2.508 -0.1469 -0.7950  0.0241
 6371TIP3   OH243307   4.280   6.467   1.216  0.7309  0.1199  0.0961
 6371TIP3    H143308   4.258   6.375   1.204 -0.4363  0.4726 -0.7198
 6371TIP3    H243309   4.243   6.510   1.139  1.4505  1.2443  0.3559
 6372TIP3   OH243310   3.524   5.354   3.423  0.6058 -0.1637  0.2529
 6372TIP3    H143311   3.562   5.281   3.472  0.3073 -1.0953 -0.8608
 6372TIP3    H243312   3.443   5.318   3.386 -0.3327  1.1861  0.9160
 6373TIP3   OH243313   5.134   2.771   1.035  0.4739 -0.3131  0.3383
 6373TIP3    H143314   5.138   2.761   1.130 -0.3435  1.0835  0.5470
 6373TIP3    H243315   5.081   2.696   1.005  0.3041 -0.4785  1.0413
 6374TIP3   OH243316   2.154   6.144   2.574  0.3596  0.2671  0.2596
 6374TIP3    H143317   2.098   6.212   2.610  0.2191  0.3384 -0.0867
 6374TIP3    H243318   2.163   6.167   2.481  1.4356  0.5803  0.4243
 6375TIP3   OH243319   4.890   2.548   2.179 -0.8040  0.0896  0.0310
 6375TIP3    H143320   4.852   2.584   2.098  2.5120 -0.1406 -1.8260
 6375TIP3    H243321   4.941   2.473   2.149  0.2037 -0.2511  2.4279
 6376TIP3   OH243322   3.634   3.810   2.378 -0.1479 -0.1339 -0.3176
 6376TIP3    H143323   3.678   3.731   2.345  0.7029 -0.2038  0.9044
 6376TIP3    H243324   3.541   3.792   2.366  0.0047 -1.5626  0.3968
 6377TIP3   OH243325   5.095   6.956   3.590  0.5824 -0.1852  0.7987
 6377TIP3    H143326   5.035   6.895   3.548  2.4185 -2.2141  0.9513
 6377TIP3    H243327   5.090   7.035   3.537 -0.8503 -0.9258 -0.2377
 6378TIP3   OH243328   6.721   6.859   1.227  0.0973  0.0648 -0.2736
 6378TIP3    H143329   6.786   6.921   1.195  0.4396 -0.0208  0.2376
 6378TIP3    H243330   6.764   6.774   1.224 -0.6858 -0.3222 -1.8712
 6379TIP3   OH243331   0.929   0.763   2.511  0.4070  0.0035 -0.5523
 6379TIP3    H143332   0.998   0.824   2.484  1.3983 -1.2473 -0.9222
 6379TIP3    H243333   0.958   0.729   2.595  0.0716 -0.2726 -0.5458
 6380TIP3   OH243334   1.980   0.168   1.180 -0.9123  0.1859  0.3887
 6380TIP3    H143335   2.060   0.126   1.210 -0.1309  1.6300  0.4053
 6380TIP3    H243336   1.910   0.107   1.204  0.1050 -0.7287  1.0973
 6381TIP3   OH243337   5.939   1.242   1.222  0.7719  0.1001 -0.3552
 6381TIP3    H143338   5.978   1.307   1.163 -0.3225  1.4635  0.3644
 6381TIP3    H243339   5.879   1.191   1.167  1.2051  0.0760 -0.8074
 6382TIP3   OH243340   3.764   6.121   2.659 -0.2768 -0.0496  0.2969
 6382TIP3    H143341   3.768   6.026   2.644 -0.3540 -0.0840  0.4845
 6382TIP3    H243342   3.786   6.131   2.752 -1.7622 -0.0211  0.6685
 6383TIP3   OH243343   1.709   2.401   2.366 -0.3557  0.3592 -0.3733
 6383TIP3    H143344   1.692   2.402   2.460  3.1785 -1.3493  0.4543
 6383TIP3    H243345   1.627   2.369   2.327 -1.4681 -0.2129  2.2222
 6384TIP3   OH243346   7.550   5.312   2.987 -0.0778 -0.3785 -0.1535
 6384TIP3    H143347   7.503   5.243   2.940 -1.2757  0.5640 -0.3617
 6384TIP3    H243348   7.599   5.264   3.055 -2.0770 -1.3328  0.7018
 6385TIP3   OH243349   1.208   7.431   2.140  0.7214 -0.5288  0.2430
 6385TIP3    H143350   1.255   7.509   2.170  0.3674 -0.8063  1.5692
 6385TIP3    H243351   1.231   7.363   2.203  0.6057 -1.3629 -0.5972
 6386TIP3   OH243352   4.026   7.244   1.295  0.0909 -0.1480 -0.2685
 6386TIP3    H143353   4.051   7.161   1.255 -0.7714 -0.7840  0.4907
 6386TIP3    H243354   3.941   7.266   1.256  0.9706  1.1528 -1.5736
 6387TIP3   OH243355   6.404   1.907   1.896  1.2969  0.4647 -0.3921
 6387TIP3    H143356   6.468   1.908   1.968  1.3712 -1.0852 -0.4077
 6387TIP3    H243357   6.409   1.818   1.861 -1.3612  0.0581  0.0489
 6388TIP3   OH243358   5.673   0.441   0.873  0.7466  0.2122 -0.5905
 6388TIP3    H143359   5.673   0.533   0.899 -0.0656  0.3738 -1.1251
 6388TIP3    H243360   5.716   0.440   0.788  0.7434  0.0995 -0.5913
 6389TIP3   OH243361   2.150   0.262   0.440 -0.3660  0.4427 -0.2234
 6389TIP3    H143362   2.230   0.213   0.461 -0.9617 -0.9544 -1.0325
 6389TIP3    H243363   2.150   0.335   0.501  0.8884 -0.2318  0.6458
 6390TIP3   OH243364   4.033   4.198   1.861  0.2019  0.1849  0.1959
 6390TIP3    H143365   4.111   4.253   1.857 -1.4625  2.7025  0.2968
 6390TIP3    H243366   4.005   4.188   1.770  0.6382 -0.7388  0.1563
 6391TIP3   OH243367   1.896   3.458   2.801  0.3060 -0.0816  0.1874
 6391TIP3    H143368   1.916   3.543   2.838 -0.2562  0.3797 -0.5356
 6391TIP3    H243369   1.851   3.411   2.871  0.1252  0.4156  0.4105
 6392TIP3   OH243370   6.437   5.069   3.010 -0.0868  0.3518 -0.1457
 6392TIP3    H143371   6.438   5.140   3.075  1.0286  0.8327 -0.6558
 6392TIP3    H243372   6.514   5.016   3.032 -0.8752 -0.6909  0.1952
 6393TIP3   OH243373   7.380   5.322   0.598  0.3463  0.1110 -0.7669
 6393TIP3    H143374   7.298   5.298   0.642  0.5195  0.6009 -0.1601
 6393TIP3    H243375   7.384   5.265   0.521  0.5912 -1.5631  0.4388
 6394TIP3   OH243376   5.274   3.590   3.030 -0.1865 -0.1191 -0.2667
 6394TIP3    H143377   5.201   3.579   3.090  0.4917  0.9869  0.8105
 6394TIP3    H243378   5.240   3.644   2.959 -0.7318 -0.6333 -0.4024
 6395TIP3   OH243379   5.291   3.293   1.941  0.1031 -0.3125 -0.4065
 6395TIP3    H143380   5.344   3.242   1.880  0.0356  0.9729 -1.5799
 6395TIP3    H243381   5.307   3.384   1.917 -0.8710  0.1887  0.7216
 6396TIP3   OH243382   0.336   6.458   9.069 -0.3892 -0.2855  0.8162
 6396TIP3    H143383   0.373   6.472   9.156  2.5881  1.6585 -0.6110
 6396TIP3    H243384   0.372   6.373   9.042  1.4113  0.5820  0.3120
 6397TIP3   OH243385   0.561   6.845   0.483 -0.2538 -0.4606  0.1992
 6397TIP3    H143386   0.567   6.815   0.392 -0.9487  0.1242 -0.0436
 6397TIP3    H243387   0.652   6.855   0.510  0.0404 -2.7233  0.2841
 6398TIP3   OH243388   3.214   5.328   1.781  0.0142  0.7083  0.6044
 6398TIP3    H143389   3.214   5.360   1.691 -0.1049  0.3621  0.4809
 6398TIP3    H243390   3.124   5.338   1.811 -0.2426 -0.4149  0.2393
 6399TIP3   OH243391   7.649   4.679   2.818  0.0240  0.3706  0.0575
 6399TIP3    H143392   7.727   4.729   2.794 -0.0875  1.8532  2.4033
 6399TIP3    H243393   7.578   4.744   2.819 -0.7770 -0.4820  0.1663
 6400TIP3   OH243394   3.299   5.564   2.293  0.5785 -0.4503  0.1956
 6400TIP3    H143395   3.375   5.540   2.346 -0.6173 -0.2997  2.0463
 6400TIP3    H243396   3.326   5.645   2.249  1.7156 -0.7429  0.3189
 6401TIP3   OH243397   1.091   4.046   1.309  0.4866  0.1256 -0.2985
 6401TIP3    H143398   1.171   3.993   1.316 -0.1084 -0.7795 -0.2107
 6401TIP3    H243399   1.072   4.071   1.400  1.1954  1.1781 -0.4131
 6402TIP3   OH243400   2.195   5.883   0.820  0.2248  0.0634  0.0638
 6402TIP3    H143401   2.221   5.818   0.756  2.3137  0.0997  0.7860
 6402TIP3    H243402   2.159   5.833   0.893 -3.9766  0.1003 -1.7379
 6403TIP3   OH243403   6.864   1.500   0.974 -0.1126  0.3870  0.5023
 6403TIP3    H143404   6.876   1.554   0.896  0.4906 -0.2776  0.1201
 6403TIP3    H243405   6.819   1.421   0.942  1.1359 -0.3939  0.5947
 6404TIP3   OH243406   1.207   1.840   1.910  0.3196  0.1773 -0.1871
 6404TIP3    H143407   1.253   1.792   1.840 -0.3245 -1.2046  0.3074
 6404TIP3    H243408   1.139   1.889   1.864  0.1817 -0.3755 -0.5850
 6405TIP3   OH243409   2.272   0.754   2.055 -0.3290 -0.0193 -0.1427
 6405TIP3    H143410   2.218   0.679   2.030  0.0914 -0.9894  1.6877
 6405TIP3    H243411   2.221   0.798   2.123 -0.0001  0.6206 -0.3067
 6406TIP3   OH243412   1.630   4.068   3.210 -0.6012 -0.2380  0.4603
 6406TIP3    H143413   1.721   4.089   3.227 -0.2240 -0.7381 -0.8491
 6406TIP3    H243414   1.581   4.141   3.248  0.4452  0.9855 -0.4554
 6407TIP3   OH243415   1.462   7.420   1.885  0.5136 -0.6175 -0.2545
 6407TIP3    H143416   1.446   7.512   1.864 -1.6463 -0.3211  2.0933
 6407TIP3    H243417   1.542   7.420   1.937  0.4316 -0.0349 -0.1233
 6408TIP3   OH243418   0.925   0.331   2.620 -0.3461  0.2747 -0.5380
 6408TIP3    H143419   0.868   0.401   2.587 -0.7605  0.3568  0.3483
 6408TIP3    H243420   0.879   0.295   2.696  0.9255  0.5657  0.4039
 6409TIP3   OH243421   6.217   6.162   1.499  0.5296 -0.0607  0.9599
 6409TIP3    H143422   6.170   6.214   1.434  0.9817 -1.1918 -0.2989
 6409TIP3    H243423   6.261   6.228   1.553  1.2410  0.9077 -0.7001
 6410TIP3   OH243424   2.300   4.078   2.074  0.6271 -0.1861  0.0324
 6410TIP3    H143425   2.323   4.130   1.997  0.5447 -1.4051 -0.8450
 6410TIP3    H243426   2.220   4.033   2.049  0.6794 -0.7077  0.7843
 6411TIP3   OH243427   7.257   5.355   1.375  0.6662 -0.1548  0.1499
 6411TIP3    H143428   7.233   5.316   1.291  1.7503  2.3236 -1.4360
 6411TIP3    H243429   7.183   5.336   1.432 -1.1633 -0.0160 -2.0315
 6412TIP3   OH243430   2.694   6.680   3.484  0.4039  0.6118 -0.0767
 6412TIP3    H143431   2.769   6.676   3.543 -0.6091 -2.2143  1.2158
 6412TIP3    H243432   2.653   6.594   3.492 -0.4104  0.4242 -4.1671
 6413TIP3   OH243433   7.646   2.868   2.717  0.5328  0.2569  0.5688
 6413TIP3    H143434   7.712   2.883   2.785  1.3213 -0.8057  0.0710
 6413TIP3    H243435   7.686   2.802   2.660 -0.0216  1.2877 -1.0597
 6414TIP3   OH243436   7.267   2.875   0.622  0.1523  0.0643 -0.4048
 6414TIP3    H143437   7.248   2.962   0.658  0.8849 -0.2283  0.7165
 6414TIP3    H243438   7.185   2.826   0.632  0.6748 -0.4292  2.1534
 6415TIP3   OH243439   1.002   4.598   2.685 -0.3546  0.8510 -0.1504
 6415TIP3    H143440   1.075   4.552   2.643 -1.0208  0.8275 -1.3365
 6415TIP3    H243441   1.021   4.691   2.673 -0.6120  0.8447 -0.6745
 6416TIP3   OH243442   1.898   2.311   1.160  0.2676  0.0186  0.2101
 6416TIP3    H143443   1.879   2.392   1.208  1.7608  0.9105 -0.6030
 6416TIP3    H243444   1.850   2.320   1.078  1.0196  0.4574 -0.1963
 6417TIP3   OH243445   2.969   1.556   1.330  0.3229  0.3212 -0.1580
 6417TIP3    H143446   3.006   1.573   1.417 -1.8727  1.3173  0.6849
 6417TIP3    H243447   3.034   1.591   1.269  1.9843 -0.5232  1.0396
 6418TIP3   OH243448   5.524   1.949   1.183 -0.4122  0.1141 -0.2110
 6418TIP3    H143449   5.546   1.930   1.274 -0.4334 -1.1815 -0.4496
 6418TIP3    H243450   5.609   1.956   1.139 -0.4018  0.7443 -0.0942
 6419TIP3   OH243451   6.118   2.479   2.315  0.2022 -0.0381  1.2685
 6419TIP3    H143452   6.034   2.525   2.319  0.2677  0.2512 -0.1534
 6419TIP3    H243453   6.184   2.548   2.316  0.3283 -0.1225 -0.0976
 6420TIP3   OH243454   2.340   2.961   1.720 -0.6334 -0.1926  0.0742
 6420TIP3    H143455   2.252   2.983   1.688 -0.7765  0.3062  0.7852
 6420TIP3    H243456   2.398   3.016   1.669 -0.6595 -1.0493 -0.9133
 6421TIP3   OH243457   0.233   2.474   1.233 -0.1585  0.2181  0.1570
 6421TIP3    H143458   0.209   2.495   1.323  0.5669  0.0766  0.3933
 6421TIP3    H243459   0.298   2.405   1.242 -0.7288 -0.4248 -0.5134
 6422TIP3   OH243460   0.996   0.809   0.453 -0.7643  0.7919 -0.5938
 6422TIP3    H143461   0.997   0.721   0.414  1.7853 -0.3361  1.6707
 6422TIP3    H243462   0.939   0.801   0.529  1.6303  0.1540  1.2583
 6423TIP3   OH243463   1.079   5.703   1.267  0.1156  0.1682 -0.0948
 6423TIP3    H143464   1.076   5.648   1.345  0.0829  1.0699  0.5514
 6423TIP3    H243465   1.008   5.670   1.212  1.2452 -1.6542 -0.5842
 6424TIP3   OH243466   3.163   1.717   2.928  0.2793 -0.3179 -0.4114
 6424TIP3    H143467   3.220   1.745   3.000 -0.5155 -0.5713  0.3355
 6424TIP3    H243468   3.075   1.741   2.957  0.0261  0.2960 -1.6584
 6425TIP3   OH243469   0.758   7.137   2.424 -0.3988  0.3972  0.1782
 6425TIP3    H143470   0.784   7.228   2.439 -2.6624  1.1949 -0.2979
 6425TIP3    H243471   0.828   7.100   2.370  1.3224  1.3697  1.6525
 6426TIP3   OH243472   0.942   5.793   2.244 -0.3800  0.2237  0.3960
 6426TIP3    H143473   0.953   5.706   2.283  0.2069  0.8964  1.7840
 6426TIP3    H243474   0.904   5.775   2.158 -1.9087 -1.3161  1.3131
 6427TIP3   OH243475   0.660   6.047   2.938  0.1518  0.1304  0.2141
 6427TIP3    H143476   0.595   5.992   2.980 -0.0838  0.0994 -0.1854
 6427TIP3    H243477   0.726   5.986   2.906  0.6167  0.1958  1.0174
 6428TIP3   OH243478   4.952   7.378   0.751  0.0991 -0.4446  0.5213
 6428TIP3    H143479   5.011   7.454   0.743 -0.9915  0.2396 -2.0095
 6428TIP3    H243480   4.951   7.359   0.845  0.9983  2.2164  1.1717
 6429TIP3   OH243481   3.833   4.400   2.467 -0.2929 -0.1219 -0.9238
 6429TIP3    H143482   3.744   4.395   2.432 -0.1605 -1.3176 -1.1331
 6429TIP3    H243483   3.878   4.461   2.409 -1.3463  1.7122  0.0711
 6430TIP3   OH243484   6.230   7.614   2.718 -0.1909  0.3643  0.4436
 6430TIP3    H143485   6.263   7.680   2.779 -0.4492 -1.1134  2.2484
 6430TIP3    H243486   6.141   7.644   2.697 -0.1749  0.7746  0.9489
 6431TIP3   OH243487   0.332   4.110   0.858  0.1618  0.6170 -0.3842
 6431TIP3    H143488   0.390   4.038   0.884 -1.3721 -0.3642  0.4598
 6431TIP3    H243489   0.373   4.188   0.894  0.5821 -0.1371  0.8321
 6432TIP3   OH243490   0.638   2.778   0.925  0.3444  0.0116  0.5098
 6432TIP3    H143491   0.629   2.736   1.011 -0.8367 -0.5620  0.1280
 6432TIP3    H243492   0.554   2.823   0.912 -0.4893 -1.9130 -1.3709
 6433TIP3   OH243493   6.195   3.232   2.813 -0.3589  0.0413 -0.3055
 6433TIP3    H143494   6.195   3.300   2.881  0.2727  0.2969 -0.5588
 6433TIP3    H243495   6.236   3.274   2.737 -0.5321 -0.4279 -0.6636
 6434TIP3   OH243496   6.175   6.615   1.837 -0.7927 -0.0432  0.1937
 6434TIP3    H143497   6.267   6.611   1.813 -0.6565 -0.1037  0.7191
 6434TIP3    H243498   6.163   6.545   1.900 -1.8249 -1.8758 -1.8770
 6435TIP3   OH243499   7.050   6.700   2.937  0.4377 -0.1646 -1.1290
 6435TIP3    H143500   7.114   6.696   3.008  1.3640  2.3531 -1.7194
 6435TIP3    H243501   7.081   6.634   2.874  1.2228 -0.4589 -0.4502
 6436TIP3   OH243502   7.554   3.285   1.841 -0.0038 -0.2075 -0.1367
 6436TIP3    H143503   7.459   3.274   1.834 -0.1078  0.4109  0.2468
 6436TIP3    H243504   7.581   3.219   1.905  0.1858 -2.0606 -2.0161
 6437TIP3   OH243505   3.750   5.180   2.398  0.0727  0.3225 -0.2420
 6437TIP3    H143506   3.705   5.105   2.435  0.9865  0.3389  0.9573
 6437TIP3    H243507   3.710   5.192   2.312 -0.3169 -1.3196 -0.3149
 6438TIP3   OH243508   5.445   7.056   1.076 -0.6745  0.1309  0.3123
 6438TIP3    H143509   5.385   6.995   1.035 -1.0012  0.1719  0.7226
 6438TIP3    H243510   5.446   7.132   1.018 -1.4594  0.3622  0.5904
 6439TIP3   OH243511   3.839   1.720   1.037  0.0400 -0.6468  0.4172
 6439TIP3    H143512   3.915   1.737   1.091 -0.6288 -1.3712  1.6344
 6439TIP3    H243513   3.804   1.806   1.015  0.2522 -0.3389  1.2620
 6440TIP3   OH243514   3.805   0.337   1.976 -0.0338 -0.3984  0.0769
 6440TIP3    H143515   3.742   0.399   1.941  0.0094  0.5555  1.6143
 6440TIP3    H243516   3.888   0.361   1.936  0.3998  1.9132  2.1298
 6441TIP3   OH243517   6.548   4.275   1.977  0.4333 -0.2600 -0.0916
 6441TIP3    H143518   6.622   4.225   1.941  0.8969  0.2575  0.1137
 6441TIP3    H243519   6.553   4.259   2.072  0.6996  0.3155 -0.0043
 6442TIP3   OH243520   1.095   3.744   1.902 -0.3116 -0.3114  0.0522
 6442TIP3    H143521   1.080   3.649   1.906 -2.7614  0.0528  1.2199
 6442TIP3    H243522   1.086   3.773   1.992 -0.6794  1.1756 -0.4477
 6443TIP3   OH243523   4.850   4.013   2.832  0.4080 -0.5274  0.0095
 6443TIP3    H143524   4.768   4.054   2.862  0.8428 -0.1995  0.7860
 6443TIP3    H243525   4.919   4.064   2.875  0.9988 -1.2421 -0.0779
 6444TIP3   OH243526   4.329   4.728   1.466  0.0258 -0.0751  0.2149
 6444TIP3    H143527   4.376   4.667   1.523 -0.2221  0.7492  1.3491
 6444TIP3    H243528   4.239   4.697   1.467 -0.5581  1.4003  2.4901
 6445TIP3   OH243529   7.107   3.732   2.348  0.3021  0.2109 -0.3963
 6445TIP3    H143530   7.153   3.651   2.370 -2.6499 -1.7251 -0.7784
 6445TIP3    H243531   7.135   3.753   2.259  1.3434 -0.1960 -0.1777
 6446TIP3   OH243532   2.089   3.217   3.308  0.2495  0.3570 -0.2249
 6446TIP3    H143533   2.068   3.278   3.238 -0.3487  0.3905 -0.0270
 6446TIP3    H243534   2.126   3.140   3.264  1.6841  1.1301 -0.4258
 6447TIP3   OH243535   2.734   4.998   2.184 -0.0014 -0.7573 -0.0972
 6447TIP3    H143536   2.649   5.039   2.170  1.1767  1.8133 -0.3253
 6447TIP3    H243537   2.745   4.940   2.108 -0.8071  0.2116 -0.9871
 6448TIP3   OH243538   5.004   3.647   1.460  0.1016  0.0777 -0.1236
 6448TIP3    H143539   5.067   3.614   1.524 -1.3472 -2.2654  0.2069
 6448TIP3    H243540   5.039   3.618   1.376  1.3885  2.1484 -0.3944
 6449TIP3   OH243541   3.523   0.300   2.400  0.1379 -0.3773  0.3434
 6449TIP3    H143542   3.600   0.264   2.357 -0.3301  0.2697 -1.0944
 6449TIP3    H243543   3.465   0.225   2.414  1.0272 -0.8840  1.5307
 6450TIP3   OH243544   0.979   4.299   1.184 -0.1637  0.2447  0.1768
 6450TIP3    H143545   1.049   4.235   1.196 -0.3553 -0.3948 -1.7359
 6450TIP3    H243546   0.899   4.246   1.178 -0.5010  0.7784 -0.0924
 6451TIP3   OH243547   1.755   4.919   1.240  0.4141  0.1232  0.4244
 6451TIP3    H143548   1.747   4.923   1.144  1.1967  0.8146  0.3849
 6451TIP3    H243549   1.670   4.949   1.272 -0.2554 -1.1661 -0.0466
 6452TIP3   OH243550   3.386   1.797   0.855  0.5029 -0.3368 -0.0163
 6452TIP3    H143551   3.349   1.731   0.796  2.0720 -1.4011  0.1301
 6452TIP3    H243552   3.448   1.846   0.800 -0.3627  0.7849 -0.0241
 6453TIP3   OH243553   3.527   0.279   0.994  0.2436  0.7939  0.5949
 6453TIP3    H143554   3.533   0.361   0.946  1.4927  0.6894  0.5569
 6453TIP3    H243555   3.617   0.246   0.999 -0.1285 -0.1863  1.2782
 6454TIP3   OH243556   5.928   5.516   1.844  0.2220  0.1183 -0.5298
 6454TIP3    H143557   5.916   5.606   1.815 -0.6199  0.5588  1.0700
 6454TIP3    H243558   6.001   5.483   1.791  0.9451  1.9260 -0.7240
 6455TIP3   OH243559   7.366   1.899   2.375 -0.0094 -0.1937 -0.1338
 6455TIP3    H143560   7.460   1.889   2.357  0.2805 -0.2288  1.3045
 6455TIP3    H243561   7.354   1.858   2.461 -1.0746  1.0911  0.3487
 6456TIP3   OH243562   5.644   5.715   3.467  0.7653  0.4641  0.5134
 6456TIP3    H143563   5.717   5.692   3.410 -1.5988 -0.5029 -2.4109
 6456TIP3    H243564   5.603   5.791   3.424 -0.6654  0.1993  1.3398
 6457TIP3   OH243565   6.159   3.931   2.829 -0.5479 -0.1002 -0.5985
 6457TIP3    H143566   6.173   3.891   2.915  0.4101  0.1504 -0.6204
 6457TIP3    H243567   6.065   3.947   2.824 -0.9278 -2.0697 -0.4652
 6458TIP3   OH243568   6.495   0.956   2.504  0.3077  0.0789  0.0067
 6458TIP3    H143569   6.561   0.986   2.566 -1.2155 -0.5135  2.0605
 6458TIP3    H243570   6.521   0.867   2.483  0.7633  0.2315 -0.0775
 6459TIP3   OH243571   4.470   1.717   0.887 -0.1005 -0.0876 -0.1861
 6459TIP3    H143572   4.457   1.765   0.969 -2.4846  1.1228 -1.1648
 6459TIP3    H243573   4.381   1.695   0.858  0.6208  0.0476 -2.7410
 6460TIP3   OH243574   6.506   7.068   0.685 -0.4727 -0.0733  0.6209
 6460TIP3    H143575   6.585   7.026   0.717  0.6700 -0.1181 -1.9698
 6460TIP3    H243576   6.536   7.150   0.646 -1.7089  0.0220 -0.2137
 6461TIP3   OH243577   5.878   0.693   1.627  0.2739 -0.4421  0.2202
 6461TIP3    H143578   5.946   0.704   1.693  0.5291  1.0744 -0.2581
 6461TIP3    H243579   5.799   0.671   1.677  0.5422  0.3299  1.0126
 6462TIP3   OH243580   7.024   6.787   0.360 -0.4363  0.0200 -0.5124
 6462TIP3    H143581   7.078   6.857   0.396 -0.3148 -1.1116  1.6816
 6462TIP3    H243582   7.066   6.763   0.277  1.9508 -0.2220  0.6906
 6463TIP3   OH243583   1.834   7.193   2.788  0.3006 -0.1461  0.0277
 6463TIP3    H143584   1.876   7.108   2.797  0.7492 -0.0690 -1.1151
 6463TIP3    H243585   1.746   7.172   2.757  0.1217 -0.2271  0.5852
 6464TIP3   OH243586   6.447   2.317   0.819 -0.3810 -0.3845  0.8453
 6464TIP3    H143587   6.398   2.388   0.861 -1.6441 -1.5873  1.4911
 6464TIP3    H243588   6.411   2.237   0.858 -0.0073 -1.4477 -0.8957
 6465TIP3   OH243589   2.200   3.593   2.484  0.2229 -0.0951 -0.6012
 6465TIP3    H143590   2.168   3.656   2.548 -0.3042 -0.7019 -0.2644
 6465TIP3    H243591   2.256   3.534   2.534  2.0274  1.0361 -1.2064
 6466TIP3   OH243592   3.918   5.814   0.834  0.4784  0.1849  0.4136
 6466TIP3    H143593   3.895   5.724   0.857 -2.6790  1.0317  1.1215
 6466TIP3    H243594   3.903   5.819   0.739  0.6567 -0.0316  0.3744
 6467TIP3   OH243595   6.723   7.581   2.458  0.1660 -0.4120  0.2590
 6467TIP3    H143596   6.785   7.542   2.396 -0.7150 -0.9873 -0.2746
 6467TIP3    H243597   6.724   7.523   2.533 -0.1765 -0.7632 -0.0038
 6468TIP3   OH243598   2.077   2.787   3.113 -0.0055 -0.0418  0.3799
 6468TIP3    H143599   2.114   2.700   3.129 -1.2002 -0.8273 -0.9074
 6468TIP3    H243600   2.011   2.797   3.182 -0.9726 -0.8673 -0.3869
 6469TIP3   OH243601   2.771   3.602   1.617 -0.2845  0.0318 -0.1763
 6469TIP3    H143602   2.804   3.552   1.542  0.9641 -1.3409  1.2321
 6469TIP3    H243603   2.729   3.537   1.673 -1.5233  1.0945  0.1960
 6470TIP3   OH243604   4.608   0.593   1.182  0.4263 -0.0881  0.4578
 6470TIP3    H143605   4.580   0.519   1.237  1.4997  0.1445  1.3586
 6470TIP3    H243606   4.530   0.649   1.175  0.1657 -0.3184  1.4166
 6471TIP3   OH243607   5.205   7.060   2.751 -0.3600  0.1425 -0.0175
 6471TIP3    H143608   5.203   7.123   2.823  1.0291  1.0906 -0.7396
 6471TIP3    H243609   5.131   7.085   2.695 -0.4935  0.4171  0.2773
 6472TIP3   OH243610   4.885   0.303   2.493 -0.0460  0.0397 -0.1387
 6472TIP3    H143611   4.856   0.394   2.490 -0.2574  0.0111  0.9151
 6472TIP3    H243612   4.881   0.279   2.585  4.8312  0.5480  0.5006
 6473TIP3   OH243613   2.776   0.617   2.003  0.6304  0.2857  0.0691
 6473TIP3    H143614   2.687   0.614   2.040  0.0847  1.0039 -1.1213
 6473TIP3    H243615   2.802   0.525   1.996 -0.9097 -0.0646 -1.5848
 6474TIP3   OH243616   1.300   4.426   1.658  0.0447  0.1078 -0.2037
 6474TIP3    H143617   1.308   4.407   1.564  2.5715  0.9627 -0.2351
 6474TIP3    H243618   1.206   4.420   1.675 -0.3301 -1.9972 -2.3503
 6475TIP3   OH243619   4.223   6.448   1.600  0.3092 -0.1730  0.6372
 6475TIP3    H143620   4.253   6.389   1.669  1.1258 -1.3434 -0.6654
 6475TIP3    H243621   4.293   6.513   1.591 -0.4468  0.8386  1.8573
 6476TIP3   OH243622   1.631   5.976   1.757  0.1896 -0.1990 -0.1011
 6476TIP3    H143623   1.659   6.041   1.692  2.0867 -1.0552 -0.2052
 6476TIP3    H243624   1.543   6.005   1.783  0.5511  1.8139 -0.8899
 6477TIP3   OH243625   5.350   6.320   1.819  0.0569  0.1601  0.2111
 6477TIP3    H143626   5.311   6.283   1.898  1.6933 -1.9306  0.1152
 6477TIP3    H243627   5.277   6.330   1.758 -0.6768 -1.7592  0.7039
 6478TIP3   OH243628   2.889   5.143   2.361 -0.2994  0.8702 -0.0325
 6478TIP3    H143629   2.859   5.074   2.300 -1.8550  0.6812  0.8935
 6478TIP3    H243630   2.879   5.224   2.311  1.6085  0.4781 -1.1610
 6479TIP3   OH243631   4.230   6.037   3.542 -0.3975 -0.3120 -0.4880
 6479TIP3    H143632   4.179   5.967   3.501 -0.0377 -0.9640  0.1505
 6479TIP3    H243633   4.237   6.105   3.475 -0.2831 -1.1195 -1.3022
 6480TIP3   OH243634   1.139   2.033   1.175  0.0951 -0.6805  0.6075
 6480TIP3    H143635   1.223   1.995   1.149  0.8393  0.6112  1.0538
 6480TIP3    H243636   1.075   1.993   1.115  1.3240 -0.1361 -1.1438
 6481TIP3   OH243637   0.989   3.456   1.581  0.2482  0.1069  0.2042
 6481TIP3    H143638   0.918   3.396   1.606  0.8105 -1.1254 -1.0588
 6481TIP3    H243639   1.027   3.417   1.503  1.3916  1.5298  0.0147
 6482TIP3   OH243640   2.222   6.614   0.981  0.2277  0.2731  0.2712
 6482TIP3    H143641   2.144   6.669   0.975  0.5739  0.9091  1.3740
 6482TIP3    H243642   2.215   6.554   0.906 -1.3999  0.1943  0.4540
 6483TIP3   OH243643   4.477   3.312   1.952  0.1235 -0.1504  0.2918
 6483TIP3    H143644   4.411   3.359   2.004  1.1541  0.4081  1.1323
 6483TIP3    H243645   4.452   3.329   1.861 -0.5525  0.5495  0.5952
 6484TIP3   OH243646   0.206   6.750   0.746 -0.0168 -0.4200 -0.1641
 6484TIP3    H143647   0.230   6.708   0.829  0.7469 -1.4760 -0.8963
 6484TIP3    H243648   0.234   6.841   0.757 -0.6197 -0.3538  1.0136
 6485TIP3   OH243649   7.196   6.777   1.717 -0.6528  0.1572  0.7029
 6485TIP3    H143650   7.244   6.860   1.715  0.8021 -0.6524  0.7526
 6485TIP3    H243651   7.126   6.792   1.781  0.1111  1.0824  1.3528
 6486TIP3   OH243652   6.061   2.080   2.664 -0.0147  0.1893  0.6011
 6486TIP3    H143653   5.984   2.129   2.694  0.1609  1.3740 -0.7998
 6486TIP3    H243654   6.099   2.044   2.745 -2.9857 -1.9829  1.2450
 6487TIP3   OH243655   6.937   0.741   2.327  0.7527 -0.3712  0.0764
 6487TIP3    H143656   6.952   0.815   2.385  0.7154  0.4325 -0.9301
 6487TIP3    H243657   6.842   0.742   2.311  0.9356  0.1547 -0.9825
 6488TIP3   OH243658   2.704   1.611   1.992 -0.4359 -0.7819 -0.0964
 6488TIP3    H143659   2.799   1.624   1.990 -0.4838  0.3234  1.9671
 6488TIP3    H243660   2.688   1.568   2.076 -1.9030  0.7154  0.4399
 6489TIP3   OH243661   1.323   3.489   0.647 -0.8207 -0.4039 -0.4210
 6489TIP3    H143662   1.256   3.432   0.611 -1.6563 -0.2873  0.8990
 6489TIP3    H243663   1.276   3.567   0.675 -0.3640 -0.8504  1.7265
 6490TIP3   OH243664   5.612   6.129   1.105 -0.5151  0.0775 -0.0698
 6490TIP3    H143665   5.621   6.148   1.012  1.3428 -1.0380 -0.1764
 6490TIP3    H243666   5.575   6.209   1.143 -0.3453  0.9217 -1.6076
 6491TIP3   OH243667   2.927   3.851   1.335 -0.5402 -0.4423 -0.7634
 6491TIP3    H143668   2.887   3.937   1.332 -0.1034 -0.2573 -2.9564
 6491TIP3    H243669   3.018   3.866   1.308  0.0615 -1.3538  0.6388
 6492TIP3   OH243670   2.675   1.930   0.858  0.1998 -0.1573 -0.7968
 6492TIP3    H143671   2.746   1.896   0.913  0.1229  2.3221  1.0248
 6492TIP3    H243672   2.624   1.853   0.834  1.0678 -1.5448  1.4909
 6493TIP3   OH243673   2.469   1.096   2.474  0.4150 -0.6259  0.7733
 6493TIP3    H143674   2.491   1.029   2.410  1.9904 -0.4550  1.1005
 6493TIP3    H243675   2.443   1.172   2.421  0.9368 -0.7389  0.3449
 6494TIP3   OH243676   3.692   6.685   2.316  1.0212 -0.4258  0.1839
 6494TIP3    H143677   3.740   6.749   2.369  0.0113 -0.4342  1.1322
 6494TIP3    H243678   3.600   6.700   2.337  0.7802 -2.5591  0.8653
 6495TIP3   OH243679   2.208   7.245   0.703 -0.8514 -0.7115  0.0646
 6495TIP3    H143680   2.141   7.310   0.680  0.3478  0.9769  1.1258
 6495TIP3    H243681   2.161   7.162   0.702 -2.7010  0.2792 -0.3417
 6496TIP3   OH243682   2.806   6.724   1.813 -0.8103 -0.0146 -0.2636
 6496TIP3    H143683   2.862   6.800   1.798 -0.8099 -0.3296 -2.1037
 6496TIP3    H243684   2.742   6.728   1.742 -2.0411 -0.6447  0.7807
 6497TIP3   OH243685   1.416   1.486   2.101 -0.0507 -0.2410  0.4087
 6497TIP3    H143686   1.374   1.567   2.131 -0.9472 -0.3858 -0.4174
 6497TIP3    H243687   1.390   1.420   2.166 -1.2221 -0.3547 -0.1575
 6498TIP3   OH243688   3.479   6.854   3.685 -0.5958  0.4136  0.4554
 6498TIP3    H143689   3.541   6.905   3.632 -0.2335  0.3905  0.8439
 6498TIP3    H243690   3.534   6.787   3.727 -0.9389  0.1996  0.5649
 6499TIP3   OH243691   5.890   6.707   3.176  0.1049  0.4650 -0.0547
 6499TIP3    H143692   5.858   6.694   3.265  1.2283 -0.9312  0.1767
 6499TIP3    H243693   5.832   6.774   3.139 -1.9128 -0.6606  0.9262
 6500TIP3   OH243694   3.543   4.350   2.727 -0.4558 -0.4976  0.0407
 6500TIP3    H143695   3.622   4.299   2.746  0.6684  0.2971 -2.1334
 6500TIP3    H243696   3.473   4.285   2.720  0.6647 -1.6359 -1.2338
 6501TIP3   OH243697   4.443   0.833   0.615 -0.1594 -0.2100  0.7362
 6501TIP3    H143698   4.358   0.837   0.659  0.3427  2.4983  1.6319
 6501TIP3    H243699   4.469   0.741   0.621 -3.1355 -1.1842  0.1208
 6502TIP3   OH243700   5.802   0.703   3.740 -0.3481 -0.1585  0.2618
 6502TIP3    H143701   5.744   0.746   3.677 -0.4779 -1.7220 -0.7589
 6502TIP3    H243702   5.840   0.774   3.791 -1.5747  1.0392 -0.4355
 6503TIP3   OH243703   2.323   7.497   2.891 -0.1960  0.4329 -0.1038
 6503TIP3    H143704   2.305   7.436   2.819  0.8545 -2.1904  1.7008
 6503TIP3    H243705   2.265   7.468   2.961  2.2847 -0.4068  1.7462
 6504TIP3   OH243706   4.805   4.221   1.936  0.2116  0.1090  0.1543
 6504TIP3    H143707   4.894   4.253   1.921 -0.2816  1.6472  0.2339
 6504TIP3    H243708   4.773   4.198   1.849  0.3820  0.4279  0.0039
 6505TIP3   OH243709   6.656   1.179   0.330  0.1795 -0.0123 -0.0033
 6505TIP3    H143710   6.711   1.101   0.340  0.5625 -0.0388 -1.9578
 6505TIP3    H243711   6.678   1.213   0.243 -0.9622  1.5209  0.2654
 6506TIP3   OH243712   6.213   7.209   1.638 -0.5243  0.0943  0.1203
 6506TIP3    H143713   6.209   7.304   1.648 -0.4860  0.1678 -0.5108
 6506TIP3    H243714   6.275   7.195   1.566 -2.8369 -0.2668 -1.9118
 6507TIP3   OH243715   4.735   7.294   3.244  0.5348 -0.2966  0.4660
 6507TIP3    H143716   4.670   7.317   3.310 -1.2107  0.3015 -1.3347
 6507TIP3    H243717   4.769   7.209   3.272 -0.1925 -0.1080  2.0590
 6508TIP3   OH243718   4.393   4.551   2.265  0.4005  0.1779  0.2957
 6508TIP3    H143719   4.388   4.558   2.169 -0.7575  0.1215  0.3283
 6508TIP3    H243720   4.485   4.534   2.283  0.4359 -1.1830 -0.9210
 6509TIP3   OH243721   5.028   5.817   1.472 -0.1684  0.1279  0.6916
 6509TIP3    H143722   4.999   5.739   1.520  0.6673  0.0724  1.1249
 6509TIP3    H243723   5.047   5.784   1.384 -2.1424  0.3168  0.1475
 6510TIP3   OH243724   0.053   0.820   1.231 -0.0756  0.0972  0.4698
 6510TIP3    H143725   0.000   0.891   1.269 -1.1631 -0.4113 -0.0527
 6510TIP3    H243726  -0.007   0.746   1.226  0.8244 -0.6309  0.2615
 6511TIP3   OH243727   0.249   0.657   1.326  0.5908  0.5984  0.3850
 6511TIP3    H143728   0.329   0.708   1.334  0.2554  0.9856  1.4477
 6511TIP3    H243729   0.191   0.712   1.273  1.2490  0.0173 -0.9708
 6512TIP3   OH243730   4.170   5.498   1.757 -0.2225  0.2906 -0.1240
 6512TIP3    H143731   4.143   5.440   1.828 -2.2892  1.4079  0.0976
 6512TIP3    H243732   4.248   5.456   1.720 -1.3856 -2.3989  0.2364
 6513TIP3   OH243733   6.420   0.888   2.193  0.0153  0.1264  0.1230
 6513TIP3    H143734   6.409   0.982   2.181  0.9833  0.2805  0.3389
 6513TIP3    H243735   6.515   0.876   2.203 -0.3032 -0.4914  3.3262
 6514TIP3   OH243736   2.499   2.723   2.808  0.7207  0.0253 -0.2528
 6514TIP3    H143737   2.587   2.753   2.785  0.1423  0.4961 -1.9999
 6514TIP3    H243738   2.497   2.727   2.903  3.0704 -1.3865 -0.0529
 6515TIP3   OH243739   5.656   1.033   2.071  0.0033 -0.0925 -0.3991
 6515TIP3    H143740   5.674   1.127   2.072  0.2372 -0.0422  3.0057
 6515TIP3    H243741   5.585   1.022   2.008  1.2574  2.0382 -2.2984
 6516TIP3   OH243742   5.842   5.344   1.597  0.1293 -0.3773 -0.6821
 6516TIP3    H143743   5.821   5.400   1.672 -1.0289 -0.5080 -0.8827
 6516TIP3    H243744   5.901   5.397   1.543  1.3811 -0.4645  0.5383
 6517TIP3   OH243745   2.815   7.245   1.024  0.5988  0.6404  0.0400
 6517TIP3    H143746   2.895   7.285   0.991 -0.4141  0.9355 -2.1915
 6517TIP3    H243747   2.747   7.273   0.964 -1.0617 -0.2854  1.3942
 6518TIP3   OH243748   6.822   0.209   1.496 -0.1517 -0.3839 -0.1213
 6518TIP3    H143749   6.743   0.224   1.444  0.5341  0.2599 -1.0139
 6518TIP3    H243750   6.794   0.153   1.568 -1.3901 -0.2637 -0.4987
 6519TIP3   OH243751   3.302   5.731   1.548 -0.3026 -0.5456 -0.3195
 6519TIP3    H143752   3.275   5.801   1.608  0.1906  0.0041 -0.7137
 6519TIP3    H243753   3.293   5.770   1.460 -1.2551 -1.4192 -0.6305
 6520TIP3   OH243754   6.527   3.465   1.913  0.0513 -0.1370 -0.3424
 6520TIP3    H143755   6.560   3.455   1.824  0.2493  0.6041 -0.3617
 6520TIP3    H243756   6.446   3.515   1.904 -0.5825 -1.0965 -0.2031
 6521TIP3   OH243757   7.145   3.958   3.454  0.3474 -0.1154  0.2798
 6521TIP3    H143758   7.225   4.009   3.460  1.3304 -1.5205 -0.2432
 6521TIP3    H243759   7.106   3.983   3.370  1.5635 -1.1953 -0.6532
 6522TIP3   OH243760   2.397   1.308   1.642 -0.2607  0.4518 -0.0756
 6522TIP3    H143761   2.437   1.394   1.650 -0.7726  0.5582  1.6578
 6522TIP3    H243762   2.461   1.248   1.680 -0.1137  0.1074 -0.8394
 6523TIP3   OH243763   5.779   0.728   2.907  0.1064 -0.0977  0.2129
 6523TIP3    H143764   5.722   0.728   2.983  0.6848 -2.7180  0.7691
 6523TIP3    H243765   5.856   0.778   2.934 -0.6102  0.8546  0.5374
 6524TIP3   OH243766   0.779   3.815   2.434 -0.2450 -0.0749  0.1194
 6524TIP3    H143767   0.816   3.901   2.413  1.9257 -0.9131  0.2329
 6524TIP3    H243768   0.769   3.815   2.529  0.6661 -0.2638  0.2237
 6525TIP3   OH243769   5.217   6.913   0.996 -0.1715 -0.3552 -0.3261
 6525TIP3    H143770   5.147   6.961   0.953 -0.9753 -2.6718 -1.8068
 6525TIP3    H243771   5.172   6.856   1.059  0.4270 -1.2539 -0.6896
 6526TIP3   OH243772   1.791   4.746   2.391 -0.0337  0.5223  0.5016
 6526TIP3    H143773   1.821   4.713   2.306 -0.1009  0.7317  0.3977
 6526TIP3    H243774   1.709   4.700   2.407  1.5458 -2.1011  2.0041
 6527TIP3   OH243775   4.675   5.859   2.354 -0.2686 -0.1715 -0.2544
 6527TIP3    H143776   4.689   5.767   2.332 -0.3932 -0.1014 -0.6318
 6527TIP3    H243777   4.739   5.878   2.423 -1.6241 -1.1145  1.3413
 6528TIP3   OH243778   2.390   7.675   2.368  0.2273  0.4736 -0.0586
 6528TIP3    H143779   2.484   7.680   2.348  0.1923  0.8326 -0.1378
 6528TIP3    H243780   2.385   7.622   2.447  0.5070  0.5468  0.0091
 6529TIP3   OH243781   6.792   0.641   3.095  0.1101  0.1022 -0.3926
 6529TIP3    H143782   6.874   0.604   3.127 -0.3787  0.9485  2.0666
 6529TIP3    H243783   6.743   0.566   3.062  1.0250 -0.7427  0.1109
 6530TIP3   OH243784   7.351   0.286   2.398  0.0800  0.0045  0.2827
 6530TIP3    H143785   7.441   0.255   2.399  0.4479  1.0409  0.7995
 6530TIP3    H243786   7.357   0.377   2.369 -0.8299  0.0028  0.0408
 6531TIP3   OH243787   5.123   5.107   1.698 -0.2626 -0.0001 -0.0445
 6531TIP3    H143788   5.201   5.069   1.738 -0.0621  0.8904  0.4372
 6531TIP3    H243789   5.155   5.185   1.652 -0.8760  0.4190  0.2266
 6532TIP3   OH243790   5.167   2.226   3.180 -1.2633  0.0824  0.3183
 6532TIP3    H143791   5.140   2.275   3.103 -0.5896 -0.2401 -0.1304
 6532TIP3    H243792   5.103   2.250   3.247 -1.2560  1.1494 -0.0414
 6533TIP3   OH243793   7.355   5.477   2.967  0.2583  0.0567  0.0396
 6533TIP3    H143794   7.294   5.416   2.924  0.5051  0.4168 -0.8524
 6533TIP3    H243795   7.431   5.424   2.987 -0.8098 -0.7152  2.3530
 6534TIP3   OH243796   2.890   7.523   0.828  0.4277  0.3548  0.1061
 6534TIP3    H143797   2.916   7.506   0.919 -1.8827 -0.6469  0.6678
 6534TIP3    H243798   2.836   7.602   0.833 -0.5176 -0.2473 -0.1881
 6535TIP3   OH243799   4.097   3.580   0.424 -0.4496 -0.4541  0.5152
 6535TIP3    H143800   4.151   3.545   0.353 -2.2515  0.0484 -1.1916
 6535TIP3    H243801   4.150   3.649   0.463  0.5482 -0.6735 -0.4056
 6536TIP3   OH243802   6.222   1.241   3.392  0.3024 -0.2319 -0.0681
 6536TIP3    H143803   6.209   1.326   3.434  0.8364 -0.2360  0.1014
 6536TIP3    H243804   6.160   1.182   3.437 -0.7566  0.2677 -0.8196
 6537TIP3   OH243805   4.543   4.334   1.600 -0.2160  0.3486  0.1811
 6537TIP3    H143806   4.531   4.282   1.679 -0.5620  0.6540  0.3288
 6537TIP3    H243807   4.637   4.329   1.582 -0.1544  0.1840  0.5441
 6538TIP3   OH243808   2.729   7.444   2.014  0.1692 -0.4633 -0.1117
 6538TIP3    H143809   2.693   7.433   2.102  1.0158 -1.2815  0.1464
 6538TIP3    H243810   2.808   7.389   2.013  2.3316  2.4021 -0.1250
 6539TIP3   OH243811   3.092   4.955   2.158 -0.5345 -0.0494  0.3097
 6539TIP3    H143812   3.049   5.015   2.097  0.5974 -0.2586 -0.7352
 6539TIP3    H243813   3.024   4.890   2.178 -0.7164 -0.4554 -1.3990
 6540TIP3   OH243814   5.416   0.740   2.317  0.2088 -0.4211 -0.2176
 6540TIP3    H143815   5.349   0.745   2.385  0.4858  1.5790 -0.0139
 6540TIP3    H243816   5.384   0.798   2.247  0.6787 -1.2055 -1.1068
 6541TIP3   OH243817   6.989   0.286   2.422 -0.2062  0.5351 -0.3593
 6541TIP3    H143818   6.953   0.329   2.499 -1.3413  0.5428 -0.8733
 6541TIP3    H243819   7.043   0.352   2.380  0.8236  0.3852  0.6698
 6542TIP3   OH243820   0.217   5.383   1.506 -0.1517  0.7310  0.2560
 6542TIP3    H143821   0.204   5.431   1.588 -0.5048 -0.4303  0.9016
 6542TIP3    H243822   0.155   5.310   1.511  0.8410 -0.1863 -0.3787
 6543TIP3   OH243823   1.980   2.053   1.220 -0.3226 -0.0001  0.3342
 6543TIP3    H143824   2.029   2.075   1.299 -0.0277  1.6629 -0.2727
 6543TIP3    H243825   1.937   2.135   1.195 -0.4409 -0.4989 -1.2051
 6544TIP3   OH243826   5.128   3.265   1.330  0.3825 -0.1515  0.3231
 6544TIP3    H143827   5.161   3.178   1.352  0.5907 -0.2405 -0.3222
 6544TIP3    H243828   5.050   3.249   1.277  1.1999  0.0312 -0.9694
 6545TIP3   OH243829   2.183   6.235   1.520  0.5038  0.1420  0.2485
 6545TIP3    H143830   2.138   6.280   1.591 -1.3729 -2.3371  0.7775
 6545TIP3    H243831   2.225   6.160   1.562  1.7646  0.1833 -0.8731
 6546TIP3   OH243832   0.133   6.646   1.842 -0.2836 -0.1137 -0.2927
 6546TIP3    H143833   0.222   6.612   1.834  0.4007  0.9000  2.2408
 6546TIP3    H243834   0.080   6.572   1.872 -0.2803 -0.6481 -1.5480
 6547TIP3   OH243835   4.857   3.616   1.963  0.2821  0.2621 -0.1898
 6547TIP3    H143836   4.800   3.690   1.982 -1.6834 -1.2001 -0.0278
 6547TIP3    H243837   4.828   3.585   1.877  1.7852  0.2909 -0.7360
 6548TIP3   OH243838   4.578   4.422   2.918  0.3205  0.4571 -0.1098
 6548TIP3    H143839   4.495   4.384   2.948  0.0678  0.6238 -0.5909
 6548TIP3    H243840   4.567   4.516   2.930  0.6333  0.4475  0.2945
 6549TIP3   OH243841   7.606   7.061   2.299 -0.4891 -0.0575  0.1540
 6549TIP3    H143842   7.578   7.144   2.260 -1.2047  0.2521  1.2825
 6549TIP3    H243843   7.656   7.086   2.376 -0.1646 -0.6669  0.1483
 6550TIP3   OH243844   7.244   3.114   2.011  0.0621  0.1556 -0.4040
 6550TIP3    H143845   7.151   3.099   1.995  0.2969 -0.9540 -0.8804
 6550TIP3    H243846   7.287   3.082   1.932  0.9450 -0.8014  0.4315
 6551TIP3   OH243847   6.568   1.946   2.092 -0.7501 -0.3322 -0.0561
 6551TIP3    H143848   6.579   2.029   2.137  1.0606 -0.7336  0.3493
 6551TIP3    H243849   6.644   1.894   2.118 -1.5608 -1.9360 -0.6994
 6552TIP3   OH243850   3.085   3.938   2.052 -0.3590  0.1058  0.0072
 6552TIP3    H143851   3.144   4.008   2.081 -1.3839  1.3231 -0.6961
 6552TIP3    H243852   3.016   3.937   2.118 -0.4191 -0.1522 -0.0596
 6553TIP3   OH243853   4.176   5.038   1.330  0.0333 -0.0718  0.0573
 6553TIP3    H143854   4.202   5.007   1.244 -0.8780 -1.7221  0.3378
 6553TIP3    H243855   4.101   4.984   1.354 -0.4631  1.1356  1.4020
 6554TIP3   OH243856   2.948   4.039   2.258 -0.1588 -0.6271 -0.3819
 6554TIP3    H143857   2.903   3.998   2.332  0.1606 -2.3254 -1.0821
 6554TIP3    H243858   2.909   4.126   2.252  0.1062 -0.2644  2.0325
 6555TIP3   OH243859   6.721   4.677   1.034  0.6755 -0.4497  0.2655
 6555TIP3    H143860   6.717   4.582   1.033  0.9163 -0.4679  0.7287
 6555TIP3    H243861   6.786   4.700   0.968 -0.3297 -0.5454 -0.7908
 6556TIP3   OH243862   5.257   5.775   3.313  0.1901 -0.0937 -0.0568
 6556TIP3    H143863   5.178   5.786   3.260  0.2230 -0.5270 -0.1986
 6556TIP3    H243864   5.284   5.865   3.334 -0.7568  0.0535  0.6191
 6557TIP3   OH243865   5.143   2.778   1.581  0.5004 -0.1794 -0.3749
 6557TIP3    H143866   5.139   2.784   1.485 -0.4422  1.4984 -0.2750
 6557TIP3    H243867   5.225   2.734   1.598  0.0418 -1.7899 -1.9857
 6558TIP3   OH243868   7.649   0.743   1.811 -0.2801  0.2879 -0.0372
 6558TIP3    H143869   7.713   0.723   1.743 -1.0513 -0.0335 -0.6778
 6558TIP3    H243870   7.586   0.671   1.807  0.0472 -0.1329  1.5168
 6559TIP3   OH243871   1.162   4.835   1.285 -0.1820  0.1540  0.0894
 6559TIP3    H143872   1.187   4.918   1.246  0.6362 -0.2330 -0.2362
 6559TIP3    H243873   1.242   4.783   1.284 -0.2401 -0.0458  1.8563
 6560TIP3   OH243874   0.555   5.113   2.544 -0.4518  0.3352  0.2823
 6560TIP3    H143875   0.640   5.083   2.510  0.6143  2.5947  0.7719
 6560TIP3    H243876   0.551   5.205   2.520 -3.1325  0.1483 -0.3247
 6561TIP3   OH243877   7.184   7.399   0.993  0.1155  0.1677  0.2290
 6561TIP3    H143878   7.268   7.415   1.035  0.5312 -2.1059  0.4231
 6561TIP3    H243879   7.119   7.419   1.060  0.6470 -0.6458  1.0100
 6562TIP3   OH243880   0.171   5.590   0.908  0.2255 -0.0478 -0.2207
 6562TIP3    H143881   0.169   5.625   0.997  3.7028  1.7820 -0.6670
 6562TIP3    H243882   0.220   5.508   0.916 -0.2268 -0.3286 -0.3293
 6563TIP3   OH243883   2.001   5.649   1.389 -0.2202  0.5082  0.1480
 6563TIP3    H143884   1.962   5.630   1.304  1.4033  1.0152 -0.7724
 6563TIP3    H243885   1.962   5.587   1.449 -2.0492  0.6995 -0.7841
 6564TIP3   OH243886   0.353   0.148   1.604  0.5660  0.6038 -0.2196
 6564TIP3    H143887   0.433   0.094   1.603  0.0612 -0.1562 -0.3165
 6564TIP3    H243888   0.288   0.094   1.648 -0.1377  0.8763 -0.8934
 6565TIP3   OH243889   5.674   3.432   1.795 -0.3387  0.0012 -0.0405
 6565TIP3    H143890   5.761   3.415   1.758 -0.0991 -0.4615  0.6942
 6565TIP3    H243891   5.692   3.451   1.888 -1.0585 -0.5733  0.2254
 6566TIP3   OH243892   2.561   5.666   1.574 -0.2252 -0.5023 -0.1148
 6566TIP3    H143893   2.498   5.603   1.610  0.5412 -0.9368  0.4774
 6566TIP3    H243894   2.561   5.647   1.480  0.8905 -2.2378  0.1854
 6567TIP3   OH243895   6.287   1.025   0.469 -0.0183  0.2079  0.2708
 6567TIP3    H143896   6.221   1.093   0.456 -1.6708 -1.2630  0.5537
 6567TIP3    H243897   6.306   0.993   0.381 -1.3142 -0.7793  0.3104
 6568TIP3   OH243898   1.803   5.032   2.962  0.2508 -0.0415  0.0778
 6568TIP3    H143899   1.815   4.972   3.036 -0.9502 -0.0049  0.3238
 6568TIP3    H243900   1.782   5.116   3.002 -1.7478 -0.3201 -0.2771
 6569TIP3   OH243901   2.820   4.727   2.940 -0.0389  0.6130  0.0424
 6569TIP3    H143902   2.885   4.791   2.911  0.9090  0.0018  0.7945
 6569TIP3    H243903   2.827   4.725   3.035 -1.1424  0.5052  0.1422
 6570TIP3   OH243904   2.765   4.281   0.558  0.0051 -0.2257  0.5953
 6570TIP3    H143905   2.703   4.269   0.631 -0.6077 -1.3304 -0.0908
 6570TIP3    H243906   2.724   4.237   0.484  0.4057  1.2749 -0.5710
 6571TIP3   OH243907   5.969   6.263   2.914 -1.0293  0.2333  0.1331
 6571TIP3    H143908   5.963   6.330   2.981  0.6199 -0.5701  1.1665
 6571TIP3    H243909   5.897   6.203   2.933 -0.0879 -0.4399  1.7686
 6572TIP3   OH243910   3.773   0.894   2.329 -0.0782 -0.4238  0.3223
 6572TIP3    H143911   3.726   0.932   2.255  1.3417  0.8905  0.0441
 6572TIP3    H243912   3.783   0.967   2.391 -0.3816 -1.2506  1.3744
 6573TIP3   OH243913   5.492   6.903   1.355  0.8398  0.3927  0.1664
 6573TIP3    H143914   5.582   6.882   1.379  1.5950  1.2925 -1.7604
 6573TIP3    H243915   5.492   6.906   1.260 -1.5077 -0.7252  0.0624
 6574TIP3   OH243916   0.724   4.691   2.494 -0.1555  0.1786  0.0813
 6574TIP3    H143917   0.684   4.665   2.411 -0.0722  0.9300 -0.2040
 6574TIP3    H243918   0.816   4.706   2.473 -0.2271  0.8065  0.2097
 6575TIP3   OH243919   0.258   1.097   0.964  0.6738 -0.5910  0.0490
 6575TIP3    H143920   0.277   1.004   0.952 -0.9274 -0.9626  0.1781
 6575TIP3    H243921   0.188   1.099   1.028  1.1995  0.7680  0.6097
 6576TIP3   OH243922   6.640   5.944   1.177  0.5242  0.1689 -0.2399
 6576TIP3    H143923   6.647   5.888   1.100 -1.1082  1.0197 -1.0815
 6576TIP3    H243924   6.714   6.004   1.170  1.5920 -1.0931  0.0204
 6577TIP3   OH243925   2.948   1.073   0.564  0.2576  0.1932  0.0608
 6577TIP3    H143926   2.922   1.023   0.642  1.8700 -0.0379  0.4802
 6577TIP3    H243927   2.962   1.007   0.496 -1.0544  0.3881 -0.4407
 6578TIP3   OH243928   7.357   0.717   0.536  0.3689 -0.0319  0.1014
 6578TIP3    H143929   7.314   0.786   0.486  0.4555  0.5538  0.8034
 6578TIP3    H243930   7.287   0.660   0.565  0.4612 -1.2700 -1.9630
 6579TIP3   OH243931   4.344   0.468   0.905  0.6943  0.0112  0.5705
 6579TIP3    H143932   4.383   0.549   0.938 -1.1944 -0.0103  3.1634
 6579TIP3    H243933   4.353   0.406   0.977 -1.0187 -1.0253 -0.0548
 6580TIP3   OH243934   0.762   6.251   1.181  0.2224 -0.4262 -0.0011
 6580TIP3    H143935   0.678   6.223   1.145  0.1669 -1.3305  0.7790
 6580TIP3    H243936   0.743   6.271   1.273  0.9058 -0.9586  0.2727
 6581TIP3   OH243937   5.790   3.811   0.876 -0.3073 -0.3472 -0.0277
 6581TIP3    H143938   5.725   3.819   0.806  1.5010  0.1144 -1.7423
 6581TIP3    H243939   5.871   3.785   0.832  1.0341  0.4005  1.8380
 6582TIP3   OH243940   0.505   4.497   0.733  0.7691 -0.7394 -0.5387
 6582TIP3    H143941   0.580   4.549   0.705 -1.0128  0.5360 -3.3771
 6582TIP3    H243942   0.504   4.421   0.675 -1.3903  0.5088 -2.3250
 6583TIP3   OH243943   5.568   5.161   2.200 -0.0730 -0.4808  0.1246
 6583TIP3    H143944   5.646   5.175   2.146 -1.3995  0.9086 -1.5364
 6583TIP3    H243945   5.578   5.222   2.272 -0.4879  1.1425 -1.1264
 6584TIP3   OH243946   0.927   1.011   0.943  0.3833  0.2878  0.0745
 6584TIP3    H143947   1.000   1.026   0.882  1.2204  0.3462  1.0662
 6584TIP3    H243948   0.880   1.094   0.944 -0.0945  0.0478 -1.0662
 6585TIP3   OH243949   4.659   3.920   0.702 -0.3427  0.1248  0.4266
 6585TIP3    H143950   4.647   3.853   0.635 -2.1432 -0.4741  1.2930
 6585TIP3    H243951   4.704   3.875   0.773  0.1842  0.3712  0.2618
 6586TIP3   OH243952   4.833   0.117   2.961  0.6179 -0.3163 -0.0436
 6586TIP3    H143953   4.833   0.051   3.030 -1.0435  0.3115  0.6090
 6586TIP3    H243954   4.879   0.075   2.888 -0.5024 -2.2717  0.2980
 6587TIP3   OH243955   2.588   5.649   1.309  0.2431  0.7767  0.3749
 6587TIP3    H143956   2.674   5.655   1.269  0.9493 -3.8331  0.6975
 6587TIP3    H243957   2.530   5.620   1.239 -0.4166  0.9648  0.8295
 6588TIP3   OH243958   4.432   5.736   0.702 -0.1825  0.4056 -0.7056
 6588TIP3    H143959   4.430   5.828   0.728 -0.5866  0.9128 -2.4058
 6588TIP3    H243960   4.466   5.737   0.613 -0.5387 -1.0688 -0.8863
 6589TIP3   OH243961   5.487   0.747   1.203  0.0984 -0.0248  0.4240
 6589TIP3    H143962   5.487   0.785   1.291  0.2231 -0.4456  0.6064
 6589TIP3    H243963   5.450   0.659   1.214  1.0058 -0.4444  0.2134
 6590TIP3   OH243964   0.650   2.019   2.825 -0.2115 -0.4262 -0.8502
 6590TIP3    H143965   0.711   2.091   2.836  1.2744 -1.7263 -0.1901
 6590TIP3    H243966   0.573   2.045   2.875  1.1803 -0.2283  1.3147
 6591TIP3   OH243967   3.084   3.146   0.454  0.4386 -0.6213 -0.4810
 6591TIP3    H143968   3.098   3.226   0.403  0.4988 -1.0298 -1.1235
 6591TIP3    H243969   3.172   3.116   0.476  0.4254  1.4106  2.9138
 6592TIP3   OH243970   5.691   4.052   2.536 -0.1968 -0.2361 -0.5619
 6592TIP3    H143971   5.752   4.005   2.480  0.3755  1.8962 -1.8396
 6592TIP3    H243972   5.669   3.989   2.605  1.7754 -1.7767 -1.2319
 6593TIP3   OH243973   4.780   2.714   2.396 -0.0222 -0.6866  0.0325
 6593TIP3    H143974   4.814   2.668   2.320  0.3845  2.0744 -1.5759
 6593TIP3    H243975   4.856   2.726   2.453  0.4423  0.2643 -0.7714
 6594TIP3   OH243976   0.016   6.948   3.085  0.0431 -0.0190  0.1297
 6594TIP3    H143977   0.070   6.937   3.007  1.0179  0.7440  0.6689
 6594TIP3    H243978   0.030   6.868   3.135  2.5228  1.0314  1.3191
 6595TIP3   OH243979   3.806   5.824   2.200  0.0745 -0.2868 -0.3979
 6595TIP3    H143980   3.888   5.850   2.158 -0.0895  0.1776 -0.4463
 6595TIP3    H243981   3.745   5.812   2.127  0.3405 -1.5461 -0.4240
 6596TIP3   OH243982   4.231   1.859   0.842 -0.0109 -0.3462  0.4173
 6596TIP3    H143983   4.177   1.781   0.854 -0.8237  0.3309  1.3135
 6596TIP3    H243984   4.267   1.877   0.929 -2.3416  2.0605  0.9946
 6597TIP3   OH243985   0.285   5.355   0.473  0.3628  0.0766 -0.0360
 6597TIP3    H143986   0.248   5.332   0.558  0.9716  0.1033  0.2410
 6597TIP3    H243987   0.210   5.383   0.421 -0.2103 -1.2259  0.0522
 6598TIP3   OH243988   4.873   0.276   0.955 -0.2475  0.7284 -0.0682
 6598TIP3    H143989   4.937   0.344   0.929  0.4458 -0.0905 -0.5492
 6598TIP3    H243990   4.916   0.194   0.933 -1.6689  0.1574 -0.8295
 6599TIP3   OH243991   1.846   6.110   2.186 -0.1773  0.2154 -0.2181
 6599TIP3    H143992   1.907   6.163   2.239 -0.1186 -0.5255  0.4781
 6599TIP3    H243993   1.780   6.079   2.249  0.0908 -0.9785 -0.4953
 6600TIP3   OH243994   2.820   6.190   0.580 -0.2601 -0.4933  0.3262
 6600TIP3    H143995   2.816   6.114   0.639  0.5961 -0.8660 -0.0647
 6600TIP3    H243996   2.756   6.171   0.512 -1.5039  0.1035  1.3116
 6601TIP3   OH243997   7.536   3.422   2.982 -0.0667 -0.2350  0.1613
 6601TIP3    H143998   7.453   3.443   3.025 -1.4692 -1.6929 -1.6288
 6601TIP3    H243999   7.589   3.501   2.993 -2.0470  1.1340  0.5475
 6602TIP3   OH244000   1.498   1.380   3.057  0.2128 -0.5094  0.4890
 6602TIP3    H144001   1.466   1.291   3.042  0.2060 -0.5660  0.8331
 6602TIP3    H244002   1.535   1.378   3.145  0.8815 -0.3601  0.2214
 6603TIP3   OH244003   6.533   4.705   0.562 -0.4089  0.3192 -0.3672
 6603TIP3    H144004   6.616   4.662   0.541 -0.7455  0.1672 -1.4601
 6603TIP3    H244005   6.466   4.645   0.530 -0.9161  0.9049 -0.4236
 6604TIP3   OH244006   6.534   0.491   1.520 -0.0642 -0.0870  0.3231
 6604TIP3    H144007   6.550   0.413   1.467 -0.0210 -0.1268  0.3946
 6604TIP3    H244008   6.512   0.559   1.456  0.9961  0.1260  0.1757
 6605TIP3   OH244009   7.310   5.382   1.814  0.0491 -0.5482 -0.4887
 6605TIP3    H144010   7.369   5.442   1.768  2.9198 -1.8980  1.1671
 6605TIP3    H244011   7.316   5.407   1.906 -0.6103 -1.8457 -0.0673
 6606TIP3   OH244012   3.165   0.825   0.717 -0.4153  0.0483  0.1572
 6606TIP3    H144013   3.075   0.811   0.688  0.5444 -1.7690 -2.3060
 6606TIP3    H244014   3.191   0.742   0.757  0.0250  0.7678  1.4409
 6607TIP3   OH244015   4.571   2.346   0.582 -0.6050 -0.1850 -0.4890
 6607TIP3    H144016   4.641   2.301   0.629 -1.4395 -0.3612  0.6370
 6607TIP3    H244017   4.499   2.282   0.580 -0.7922  0.0418 -1.4937
 6608TIP3   OH244018   7.362   2.781   2.452 -0.7211  0.3335  0.5128
 6608TIP3    H144019   7.336   2.849   2.515 -1.5657  1.0118 -0.5339
 6608TIP3    H244020   7.308   2.798   2.375 -0.8559 -1.4536  0.1716
 6609TIP3   OH244021   1.993   6.373   1.232 -0.1107 -0.1590 -0.2456
 6609TIP3    H144022   2.047   6.447   1.260  0.8751 -1.1217  0.4696
 6609TIP3    H244023   1.991   6.315   1.308  1.9015 -2.4429 -1.7974
 6610TIP3   OH244024   6.931   0.790   9.042  0.0487  0.1304  0.2856
 6610TIP3    H144025   6.901   0.701   9.062  1.4753 -0.3994  0.1866
 6610TIP3    H244026   6.981   0.816   9.118  1.8067 -0.1812 -0.7085
 6611TIP3   OH244027   2.355   0.301   1.872 -0.5570 -0.2303  0.0743
 6611TIP3    H144028   2.413   0.308   1.796 -0.9703  2.6371 -0.0737
 6611TIP3    H244029   2.402   0.346   1.943 -1.7446  0.3830  0.4903
 6612TIP3   OH244030   3.538   2.209   1.735  0.1481 -0.3791  0.6044
 6612TIP3    H144031   3.503   2.128   1.697  0.3300 -0.1104 -0.1530
 6612TIP3    H244032   3.594   2.180   1.807  0.1388 -0.9240  0.3942
 6613TIP3   OH244033   1.488   1.846   1.793  0.7860 -0.1067 -0.3779
 6613TIP3    H144034   1.578   1.871   1.812  0.6499  0.4070 -0.3780
 6613TIP3    H244035   1.490   1.751   1.784  1.4149 -0.0543 -0.8471
 6614TIP3   OH244036   1.436   2.665   2.117 -0.2871  0.0126  0.4910
 6614TIP3    H144037   1.381   2.587   2.109  1.0345 -0.9971  0.7087
 6614TIP3    H244038   1.396   2.730   2.060 -1.2098 -0.9658 -0.0073
 6615TIP3   OH244039   4.382   3.191   2.320  0.3554 -0.1525  0.5805
 6615TIP3    H144040   4.457   3.165   2.373  0.8685  2.6191  1.3469
 6615TIP3    H244041   4.380   3.126   2.249  2.4347 -1.2881  1.4668
 6616TIP3   OH244042   2.352   5.647   0.736 -0.4841  0.0084  0.0280
 6616TIP3    H144043   2.423   5.697   0.776 -0.1529  0.6355 -1.2893
 6616TIP3    H244044   2.346   5.681   0.646  0.2411 -2.8167 -1.1874
 6617TIP3   OH244045   3.872   1.418   3.016  0.5443 -0.0993  0.4894
 6617TIP3    H144046   3.941   1.484   3.012  0.4243  0.0664  1.1343
 6617TIP3    H244047   3.908   1.343   2.968  1.6698 -0.4709  1.8782
 6618TIP3   OH244048   4.318   0.177   0.529  0.1448 -0.0227 -0.0463
 6618TIP3    H144049   4.404   0.176   0.487  0.1564 -0.8685 -0.0024
 6618TIP3    H244050   4.303   0.087   0.557  0.5947  0.6426  2.7070
 6619TIP3   OH244051   3.516   0.173   1.802  0.0149 -0.1782 -0.3705
 6619TIP3    H144052   3.544   0.246   1.858  1.5152 -0.0216 -1.2566
 6619TIP3    H244053   3.598   0.141   1.763 -0.7048 -1.8836 -0.5452
 6620TIP3   OH244054   3.731   2.867   2.256 -0.6086  0.6136  0.2120
 6620TIP3    H144055   3.806   2.830   2.210 -0.3212  0.5749  0.7027
 6620TIP3    H244056   3.687   2.791   2.296 -1.6057  0.4870 -1.0516
 6621TIP3   OH244057   4.116   1.468   1.903  0.9117  0.6861  0.9050
 6621TIP3    H144058   4.156   1.494   1.820  0.5488  1.0235  0.8367
 6621TIP3    H244059   4.048   1.533   1.919  0.2214 -0.0094  0.9034
 6622TIP3   OH244060   0.801   4.064   2.729  0.2394  0.1795  0.5508
 6622TIP3    H144061   0.864   3.997   2.756 -0.5197 -0.5869  0.4397
 6622TIP3    H244062   0.773   4.105   2.811  0.6568  0.3276  0.6235
 6623TIP3   OH244063   0.461   1.591   0.612  0.7564  0.1471  0.2949
 6623TIP3    H144064   0.378   1.555   0.581  0.2932  0.7992  0.7125
 6623TIP3    H244065   0.454   1.685   0.594  1.4089  0.2086  0.3354
 6624TIP3   OH244066   4.439   0.546   1.724  0.1437  0.1160 -0.0385
 6624TIP3    H144067   4.524   0.573   1.690 -0.5081  3.1611  0.4673
 6624TIP3    H244068   4.377   0.572   1.656 -0.6926  1.4890  1.1945
 6625TIP3   OH244069   2.738   4.223   2.256 -0.2108  0.7401  0.1161
 6625TIP3    H144070   2.756   4.210   2.163 -0.2395 -0.6072  0.2785
 6625TIP3    H244071   2.644   4.207   2.264 -0.0828  0.1243  0.4758
 6626TIP3   OH244072   6.715   1.266   0.931 -0.5007 -0.3047  0.1199
 6626TIP3    H144073   6.639   1.297   0.882  1.0232  0.8749 -1.6121
 6626TIP3    H244074   6.681   1.192   0.983 -2.5755 -0.5015 -1.3838
 6627TIP3   OH244075   0.865   5.817   2.587 -0.3928 -0.2687  0.4289
 6627TIP3    H144076   0.930   5.859   2.644 -0.9623 -2.0131  2.4873
 6627TIP3    H244077   0.913   5.744   2.547 -0.4655 -0.1424  0.1154
 6628TIP3   OH244078   6.036   5.491   0.923 -0.5336  0.3329 -0.3293
 6628TIP3    H144079   6.008   5.580   0.900  0.4618  1.0190  0.9539
 6628TIP3    H244080   6.128   5.488   0.898 -0.9641 -0.9384 -1.9050
 6629TIP3   OH244081   1.547   1.705   0.622 -0.2690  0.2482  0.4392
 6629TIP3    H144082   1.617   1.659   0.575  2.1485  4.2405 -0.4177
 6629TIP3    H244083   1.573   1.701   0.714 -0.6508 -0.8448  0.5149
 6630TIP3   OH244084   2.189   2.024   0.959 -0.2965 -0.1053 -0.2714
 6630TIP3    H144085   2.189   1.953   0.895 -3.0131 -0.1198 -0.3655
 6630TIP3    H244086   2.153   1.985   1.038 -0.4308  0.7927  0.1251
 6631TIP3   OH244087   1.161   3.244   0.589  0.2915  0.2747  0.5300
 6631TIP3    H144088   1.089   3.256   0.650  1.0954  0.3247  1.4977
 6631TIP3    H244089   1.122   3.199   0.514 -0.5237 -0.6574  1.4811
 6632TIP3   OH244090   2.519   2.240   1.698 -0.5800 -0.3119  0.4088
 6632TIP3    H144091   2.597   2.187   1.717 -0.2374  0.0821  0.1476
 6632TIP3    H244092   2.512   2.238   1.603  0.6606  1.7685  0.2089
 6633TIP3   OH244093   1.229   1.699   1.676 -0.0591  0.3551  0.2193
 6633TIP3    H144094   1.169   1.736   1.611 -0.4139 -2.3178 -1.1271
 6633TIP3    H244095   1.302   1.666   1.624  0.7350  0.1483  1.4451
 6634TIP3   OH244096   0.933   6.968   3.041 -0.0597  0.1853  0.4527
 6634TIP3    H144097   0.953   6.894   2.984  1.4203  1.3957 -0.7076
 6634TIP3    H244098   0.950   6.936   3.129  2.0382 -0.4685 -0.1217
 6635TIP3   OH244099   2.166   2.196   2.159  0.0340  0.1019 -0.1173
 6635TIP3    H144100   2.079   2.237   2.157  1.0895  2.5370  0.2758
 6635TIP3    H244101   2.226   2.266   2.132  2.0433 -1.0358  1.1259
 6636TIP3   OH244102   7.276   2.239   2.827  0.4534 -0.0351  0.3691
 6636TIP3    H144103   7.261   2.144   2.825  0.7590 -0.0771 -0.7899
 6636TIP3    H244104   7.190   2.277   2.812  0.4551 -0.1527  0.0448
 6637TIP3   OH244105   6.583   3.201   1.603  0.1837  0.0681  0.5144
 6637TIP3    H144106   6.677   3.216   1.594  0.3401 -0.5580  1.0301
 6637TIP3    H244107   6.576   3.124   1.658 -0.6258 -0.5378 -0.4016
 6638TIP3   OH244108   1.605   2.715   1.350 -0.1426  0.2505  0.1916
 6638TIP3    H144109   1.677   2.659   1.322 -0.5556 -0.3799  0.3654
 6638TIP3    H244110   1.542   2.655   1.390 -1.9150  0.4183 -2.1325
 6639TIP3   OH244111   6.902   4.144   2.590 -0.4497  0.3510  0.1564
 6639TIP3    H144112   6.821   4.098   2.613  0.2291 -0.3879  1.1541
 6639TIP3    H244113   6.968   4.075   2.582  0.4398  1.0771  0.9854
 6640TIP3   OH244114   3.940   4.610   2.322 -0.1712 -0.3017  0.7074
 6640TIP3    H144115   3.862   4.642   2.277 -0.8349 -1.2167  1.1638
 6640TIP3    H244116   4.007   4.676   2.305 -1.0989  0.6020  0.4788
 6641TIP3   OH244117   2.476   4.648   1.779 -0.0665  0.1933  0.2167
 6641TIP3    H144118   2.509   4.558   1.782  0.6277  0.3701 -1.2424
 6641TIP3    H244119   2.384   4.639   1.752 -0.6735 -0.1701  2.2138
 6642TIP3   OH244120   4.232   1.739   3.210 -0.0124 -0.2223 -0.0768
 6642TIP3    H144121   4.302   1.674   3.215 -0.4603 -0.6863  0.3227
 6642TIP3    H244122   4.276   1.820   3.185  0.2952 -1.1084 -2.6689
 6643TIP3   OH244123   4.770   6.170   2.252 -0.1312 -0.4559 -0.0820
 6643TIP3    H144124   4.724   6.142   2.173  0.1053  2.4401 -1.3579
 6643TIP3    H244125   4.862   6.161   2.230  0.0096 -2.2851  0.9766
 6644TIP3   OH244126   4.857   1.961   2.533 -0.1641  0.3812 -0.7955
 6644TIP3    H144127   4.788   1.898   2.509  1.5294 -3.1906  2.5984
 6644TIP3    H244128   4.820   2.009   2.606  0.2054 -0.1643 -0.2393
 6645TIP3   OH244129   5.492   2.650   2.466 -0.3714 -0.2979  0.1335
 6645TIP3    H144130   5.440   2.670   2.543  2.4324  0.9898  1.8492
 6645TIP3    H244131   5.533   2.566   2.485 -0.2032 -0.3176 -0.2944
 6646TIP3   OH244132   2.513   2.747   0.627 -0.2959  0.0465  0.2518
 6646TIP3    H144133   2.422   2.776   0.617 -0.6366 -1.1237 -0.2532
 6646TIP3    H244134   2.532   2.756   0.720 -1.4443 -1.1147  0.6228
 6647TIP3   OH244135   1.869   3.349   0.881  0.2731 -0.5337  0.5756
 6647TIP3    H144136   1.869   3.389   0.794  0.0973 -1.0293  0.3470
 6647TIP3    H244137   1.896   3.420   0.939 -0.1790 -0.0400  0.1904
 6648TIP3   OH244138   3.753   0.119   1.678 -0.4313 -0.2648  0.1878
 6648TIP3    H144139   3.837   0.165   1.681  0.1260 -1.2741  0.3836
 6648TIP3    H244140   3.776   0.027   1.688 -1.6554 -0.4614  1.4516
 6649TIP3   OH244141   5.678   0.136   1.656  0.0444  0.1459  0.3703
 6649TIP3    H144142   5.757   0.081   1.656  1.0378  1.4631  1.7887
 6649TIP3    H244143   5.606   0.075   1.671  0.6453 -1.2012 -1.6858
 6650TIP3   OH244144   2.578   5.024   1.188  0.3070 -0.2793  0.7077
 6650TIP3    H144145   2.528   5.095   1.148  0.9016 -0.0526  0.3524
 6650TIP3    H244146   2.534   4.944   1.161 -0.6550 -0.0377  1.5012
 6651TIP3   OH244147   4.602   3.586   2.142 -0.0100 -0.1227  0.3078
 6651TIP3    H144148   4.674   3.532   2.110  0.5150  0.5340  0.3493
 6651TIP3    H244149   4.524   3.532   2.132  0.3988 -0.5941 -0.3760
 6652TIP3   OH244150   3.485   4.086   2.536 -0.2055  0.0201  0.6122
 6652TIP3    H144151   3.444   4.020   2.480  0.3904 -1.6973  2.0680
 6652TIP3    H244152   3.543   4.134   2.477 -0.9412 -0.5001 -0.5822
 6653TIP3   OH244153   6.765   0.455   1.916  0.4186 -0.0605 -0.0915
 6653TIP3    H144154   6.798   0.509   1.844  0.0319  0.3074  0.0019
 6653TIP3    H244155   6.672   0.445   1.898  0.1733  0.6130  0.7122
 6654TIP3   OH244156   3.944   5.020   2.627  0.3140 -0.0471 -0.1100
 6654TIP3    H144157   3.951   5.013   2.532 -0.9699  0.5235 -0.2584
 6654TIP3    H244158   3.873   5.082   2.641  0.4474 -0.1824  1.2321
 6655TIP3   OH244159   4.355   4.055   1.340 -0.1648 -0.2757 -0.0335
 6655TIP3    H144160   4.425   4.120   1.333  0.8641 -1.0901  1.8773
 6655TIP3    H244161   4.377   3.988   1.276 -2.4818  2.1396 -3.7820
 6656TIP3   OH244162   7.574   4.199   0.450  0.2842 -0.3136 -0.1412
 6656TIP3    H144163   7.514   4.260   0.409  0.9810 -0.4023 -1.3164
 6656TIP3    H244164   7.557   4.208   0.544 -1.8116 -0.6109 -0.4566
 6657TIP3   OH244165   3.141   7.181   1.877 -0.6699  0.1321 -0.0895
 6657TIP3    H144166   3.137   7.165   1.783  0.7352 -2.3980  0.2010
 6657TIP3    H244167   3.229   7.216   1.891 -0.2462 -1.1011  0.4445
 6658TIP3   OH244168   5.446   4.709   1.970  0.5075  0.1535  0.3219
 6658TIP3    H144169   5.425   4.673   2.056 -1.1641 -0.8793 -0.4608
 6658TIP3    H244170   5.381   4.779   1.957  0.3924 -0.0602 -0.3053
 6659TIP3   OH244171   5.052   5.764   3.097 -0.4606 -0.1103  0.3926
 6659TIP3    H144172   5.051   5.786   3.004  1.7541 -0.1144  0.3208
 6659TIP3    H244173   5.012   5.678   3.102  0.0435 -0.4270 -0.6712
 6660TIP3   OH244174   7.492   1.738   0.558  0.6541 -0.4651  0.0553
 6660TIP3    H144175   7.535   1.755   0.642  1.0337  0.1227 -0.2517
 6660TIP3    H244176   7.565   1.733   0.496  0.3731 -0.8851 -0.2390
 6661TIP3   OH244177   0.464   6.753   1.659 -0.3363 -0.1921  0.7009
 6661TIP3    H144178   0.419   6.814   1.601  0.0669  0.9913  1.6050
 6661TIP3    H244179   0.557   6.765   1.640 -0.1952  0.2710  1.6489
 6662TIP3   OH244180   0.248   7.174   1.675  0.2310  0.3293  0.0537
 6662TIP3    H144181   0.153   7.164   1.679  0.1634  1.2470  1.4069
 6662TIP3    H244182   0.279   7.137   1.758  0.8930  1.4190  0.3144
 6663TIP3   OH244183   4.646   5.954   1.171  0.0474  0.1876  0.9385
 6663TIP3    H144184   4.577   5.900   1.132  0.8887  0.9227 -1.8374
 6663TIP3    H244185   4.601   6.009   1.235 -1.2488 -1.9578  1.9723
 6664TIP3   OH244186   0.354   4.534   1.741  0.3786  0.3091 -0.0194
 6664TIP3    H144187   0.367   4.627   1.724 -1.6988  0.5005 -0.8849
 6664TIP3    H244188   0.274   4.531   1.793  0.0342 -1.0157 -0.5918
 6665TIP3   OH244189   7.677   3.351   1.211 -0.0234  0.5046 -0.5130
 6665TIP3    H144190   7.649   3.272   1.258 -0.2623  1.5376  1.1393
 6665TIP3    H244191   7.755   3.380   1.258 -0.1791  1.4845 -0.8485
 6666TIP3   OH244192   1.483   4.238   2.101  0.1603  0.5018  0.0919
 6666TIP3    H144193   1.450   4.154   2.132  1.8435 -0.7483 -1.3266
 6666TIP3    H244194   1.536   4.270   2.174  0.2652 -0.1249  0.3015
 6667TIP3   OH244195   4.724   5.028   0.726 -0.4352  0.1381  0.0627
 6667TIP3    H144196   4.705   4.973   0.802 -0.8729  0.1310 -0.0493
 6667TIP3    H244197   4.690   5.115   0.750  1.5144  0.7662  0.8243
 6668TIP3   OH244198   0.566   0.140   0.885  0.2848  0.2194 -0.1268
 6668TIP3    H144199   0.640   0.100   0.931 -0.4635  0.0903  0.9870
 6668TIP3    H244200   0.583   0.234   0.892  0.0611  0.2097  0.6261
 6669TIP3   OH244201   3.167   4.705   2.740 -0.3623  0.1423 -0.4827
 6669TIP3    H144202   3.202   4.694   2.829 -1.5351 -1.5451 -0.1942
 6669TIP3    H244203   3.092   4.765   2.752 -1.7108 -1.5691  0.0323
 6670TIP3   OH244204   0.409   5.939   0.766 -0.5564 -0.2747  0.5084
 6670TIP3    H144205   0.362   5.979   0.840 -0.7903  0.0667  0.1766
 6670TIP3    H244206   0.422   6.011   0.704 -0.4105 -0.5739  0.1910
 6671TIP3   OH244207   2.428   3.968   0.811  0.2696  0.3533  0.3254
 6671TIP3    H144208   2.343   3.962   0.768 -0.1180  1.7089  0.8357
 6671TIP3    H244209   2.412   3.941   0.901  0.6218 -0.4250  0.1616
 6672TIP3   OH244210   1.179   6.368   2.092  0.7525 -0.5118  0.2553
 6672TIP3    H144211   1.151   6.277   2.103  0.0833 -0.5855 -1.6756
 6672TIP3    H244212   1.271   6.362   2.068 -0.0515 -1.0126 -3.2406
 6673TIP3   OH244213   5.952   0.176   3.285 -0.1146 -0.2424 -0.0408
 6673TIP3    H144214   5.926   0.084   3.296  0.4929 -0.5204 -0.9140
 6673TIP3    H244215   6.018   0.175   3.216  0.5250  0.7524  0.5363
 6674TIP3   OH244216   7.198   1.084   0.729 -0.2938 -0.1792 -0.4454
 6674TIP3    H144217   7.293   1.099   0.734 -0.4239  1.0347 -1.1705
 6674TIP3    H244218   7.160   1.170   0.746 -1.2267 -0.3032 -1.7618
 6675TIP3   OH244219   0.877   5.884   2.890 -0.6402 -0.0731 -0.2522
 6675TIP3    H144220   0.843   5.828   2.960 -1.0957  0.2155 -0.2443
 6675TIP3    H244221   0.972   5.881   2.902 -0.7664  1.4336  1.5326
 6676TIP3   OH244222   6.610   3.980   1.878  0.1814  0.3676 -0.0037
 6676TIP3    H144223   6.575   3.941   1.958  0.3398  0.1897 -0.0204
 6676TIP3    H244224   6.649   3.907   1.830  1.3385  0.6839  0.4184
 6677TIP3   OH244225   2.552   3.735   0.481 -0.3837  0.1623 -0.2557
 6677TIP3    H144226   2.474   3.716   0.533  0.3264  0.9062  1.1209
 6677TIP3    H244227   2.535   3.692   0.397 -1.8873 -0.4302  0.3106
 6678TIP3   OH244228   5.058   0.265   1.644 -0.0901 -0.1549 -0.1249
 6678TIP3    H144229   5.083   0.356   1.630 -2.5493  0.3492 -1.8615
 6678TIP3    H244230   5.129   0.229   1.697  1.8629  2.2621 -0.8941
 6679TIP3   OH244231   0.879   0.214   0.947  0.3200 -0.1375 -0.6801
 6679TIP3    H144232   0.897   0.221   1.041 -2.2241  0.2322 -0.1477
 6679TIP3    H244233   0.846   0.125   0.936  0.6279 -0.1858 -1.2415
 6680TIP3   OH244234   3.306   6.979   3.542 -0.1268 -0.5787 -0.0900
 6680TIP3    H144235   3.240   6.920   3.506 -0.1649 -0.3187 -0.4492
 6680TIP3    H244236   3.357   6.924   3.602  1.5823 -1.7345 -2.4402
 6681TIP3   OH244237   3.953   1.187   1.405 -0.4941  0.1770  0.2693
 6681TIP3    H144238   3.999   1.212   1.486  1.1575 -1.0068 -0.2395
 6681TIP3    H244239   3.879   1.134   1.435 -0.9877  1.2731  1.0690
 6682TIP3   OH244240   0.228   2.825   2.395  0.1313  0.0650 -0.1357
 6682TIP3    H144241   0.174   2.880   2.339  0.4043  0.9548  0.4646
 6682TIP3    H244242   0.305   2.877   2.413  0.5230 -0.6250  0.2223
 6683TIP3   OH244243   4.858   4.519   2.946  0.7259  0.1654 -0.4734
 6683TIP3    H144244   4.814   4.469   2.877 -0.9777 -0.8955  1.2812
 6683TIP3    H244245   4.820   4.607   2.939 -0.7447 -0.3852  0.1620
 6684TIP3   OH244246   1.117   2.539   2.722 -0.2348 -0.2292 -0.5288
 6684TIP3    H144247   1.040   2.508   2.770  0.9645 -1.0227  1.0030
 6684TIP3    H244248   1.173   2.578   2.789  1.3644 -1.0644 -1.3166
 6685TIP3   OH244249   2.507   1.373   1.257  0.1900 -0.4353  0.1229
 6685TIP3    H144250   2.596   1.343   1.240  0.6247  0.7380  0.2916
 6685TIP3    H244251   2.517   1.447   1.316 -0.9209 -0.4684  0.3666
 6686TIP3   OH244252   7.614   0.575   1.192  0.6022  0.0775  0.0867
 6686TIP3    H144253   7.589   0.525   1.114  0.5961  0.1243  0.0584
 6686TIP3    H244254   7.686   0.525   1.231 -1.2563 -1.5485  1.6762
 6687TIP3   OH244255   5.298   1.546   2.075  0.1351 -0.3363  0.4164
 6687TIP3    H144256   5.258   1.632   2.067  1.8708  0.4745  0.0038
 6687TIP3    H244257   5.274   1.516   2.163 -1.8530 -0.2022 -0.0195
 6688TIP3   OH244258   1.676   7.275   1.567 -0.4988  0.6598 -0.0002
 6688TIP3    H144259   1.622   7.209   1.610 -1.7693  0.6359 -1.5317
 6688TIP3    H244260   1.760   7.271   1.613 -1.3136 -0.3198  1.5060
 6689TIP3   OH244261   6.446   4.732   0.951 -0.1920  0.0071 -0.4301
 6689TIP3    H144262   6.433   4.814   0.903  1.8491  0.7045  0.0830
 6689TIP3    H244263   6.537   4.736   0.980 -1.2345 -0.4595  3.3890
 6690TIP3   OH244264   2.459   5.149   0.974 -0.0212 -0.2279 -0.2671
 6690TIP3    H144265   2.540   5.141   0.924  0.7177  0.2389  0.8078
 6690TIP3    H244266   2.416   5.064   0.965  1.0967 -0.8372 -0.0214
 6691TIP3   OH244267   6.052   6.284   1.317  0.0807  0.4491  0.1726
 6691TIP3    H144268   6.032   6.376   1.331  0.7809  0.5892  0.2339
 6691TIP3    H244269   6.064   6.276   1.222 -2.9829 -0.1795 -0.2892
 6692TIP3   OH244270   1.272   5.830   2.199  0.2772  0.1858  0.0455
 6692TIP3    H144271   1.281   5.758   2.137  2.6006 -0.0833  0.5937
 6692TIP3    H244272   1.178   5.834   2.218 -0.0466 -2.0172 -0.7619
 6693TIP3   OH244273   6.360   3.009   2.890  0.3617  0.0049  0.3638
 6693TIP3    H144274   6.283   3.054   2.854  1.3629  0.2467 -1.6506
 6693TIP3    H244275   6.433   3.069   2.872  1.3739 -1.3122 -0.0868
 6694TIP3   OH244276   5.466   1.750   1.926  0.5413 -0.4661  0.1101
 6694TIP3    H144277   5.426   1.664   1.941  0.9232 -0.5795  0.5043
 6694TIP3    H244278   5.489   1.750   1.833  0.9094 -0.9570  0.1950
 6695TIP3   OH244279   5.455   6.317   1.182 -0.2952  0.0723  0.2976
 6695TIP3    H144280   5.466   6.400   1.228 -0.3404  0.8187 -0.9819
 6695TIP3    H244281   5.362   6.296   1.190 -0.5931  0.9428 -0.6400
 6696TIP3   OH244282   0.287   3.585   1.293  0.2186 -0.6251  0.5948
 6696TIP3    H144283   0.252   3.512   1.343 -0.4008 -0.5423  0.3039
 6696TIP3    H244284   0.215   3.648   1.290  0.3086 -0.5493 -0.2252
 6697TIP3   OH244285   2.430   1.612   2.256  0.1632  0.2328 -0.0330
 6697TIP3    H144286   2.523   1.629   2.248  0.5353 -1.1181  1.0376
 6697TIP3    H244287   2.399   1.679   2.317  0.2955  1.0420 -0.8339
 6698TIP3   OH244288   7.087   1.921   1.107  0.2304  0.3692 -0.2913
 6698TIP3    H144289   7.128   1.976   1.173 -0.5637  1.3194 -0.5700
 6698TIP3    H244290   7.008   1.888   1.149  0.0542  0.4614 -0.5467
 6699TIP3   OH244291   4.036   0.714   1.009  0.0073  0.5744  0.1589
 6699TIP3    H144292   3.942   0.727   0.995  0.0790  0.6844 -0.2426
 6699TIP3    H244293   4.043   0.632   1.058 -0.0910 -2.0209 -3.7794
 6700TIP3   OH244294   1.079   5.453   1.116 -0.4710  0.2646  0.2894
 6700TIP3    H144295   0.995   5.499   1.115  0.0972  1.3321 -0.6671
 6700TIP3    H244296   1.105   5.448   1.024 -0.2765 -1.5944  0.3953
 6701TIP3   OH244297   6.085   5.208   2.335  0.0015  0.3679  0.0839
 6701TIP3    H144298   5.991   5.220   2.328 -0.5959 -1.5607  3.2183
 6701TIP3    H244299   6.105   5.217   2.428  3.1552  1.8625 -0.5823
 6702TIP3   OH244300   1.704   2.410   1.702 -0.0803 -0.4115 -0.1187
 6702TIP3    H144301   1.694   2.317   1.685  0.8531 -0.4559 -0.5080
 6702TIP3    H244302   1.745   2.414   1.789 -2.1307 -0.2734  0.9056
 6703TIP3   OH244303   1.899   2.896   0.700 -0.2360 -0.2731  0.0437
 6703TIP3    H144304   1.808   2.904   0.671 -0.1322  1.2596  0.0249
 6703TIP3    H244305   1.910   2.969   0.762  0.3816 -1.6987  1.7131
 6704TIP3   OH244306   0.141   3.525   0.729  0.4419 -0.1271  0.6737
 6704TIP3    H144307   0.185   3.543   0.646  1.8767  3.0264  1.9868
 6704TIP3    H244308   0.208   3.484   0.784  0.8217  1.6247  1.5810
 6705TIP3   OH244309   2.118   5.884   2.534 -0.3023 -0.3604 -0.3145
 6705TIP3    H144310   2.041   5.885   2.478 -2.4086  1.1854  2.3909
 6705TIP3    H244311   2.142   5.976   2.544  0.0830 -0.5960  1.1535
 6706TIP3   OH244312   2.764   6.877   2.488 -0.1906  0.2747  0.1731
 6706TIP3    H144313   2.724   6.964   2.483 -0.8665 -0.0560 -0.2767
 6706TIP3    H244314   2.705   6.827   2.545 -0.3853 -0.1982 -0.4395
 6707TIP3   OH244315   3.104   3.269   1.152  0.4212  0.4317 -0.2335
 6707TIP3    H144316   3.155   3.216   1.213  0.1535 -0.4452 -0.7514
 6707TIP3    H244317   3.164   3.288   1.080 -0.3491 -1.8903 -1.5848
 6708TIP3   OH244318   6.781   6.946   2.378 -0.0990 -0.2937  0.3195
 6708TIP3    H144319   6.870   6.980   2.395 -0.1955  0.6358 -0.8936
 6708TIP3    H244320   6.784   6.856   2.409  1.0221 -0.0201  1.0833
 6709TIP3   OH244321   7.283   5.054   1.594 -0.2942  0.1446 -0.0323
 6709TIP3    H144322   7.327   5.097   1.520  1.0941 -1.4705 -0.2079
 6709TIP3    H244323   7.209   5.009   1.555  0.6214 -0.9716 -0.5451
 6710TIP3   OH244324   7.047   6.079   1.624 -0.2110 -0.5320 -0.0619
 6710TIP3    H144325   6.965   6.042   1.657 -0.0637 -1.0020 -0.2112
 6710TIP3    H244326   7.021   6.136   1.552 -0.3638 -1.0985 -0.4576
 6711TIP3   OH244327   3.540   5.141   2.225  0.2711 -0.3093  0.2085
 6711TIP3    H144328   3.543   5.045   2.228  0.5556 -0.2792  0.9447
 6711TIP3    H244329   3.448   5.162   2.240  0.3311 -0.4422  0.7622
 6712TIP3   OH244330   2.355   5.575   1.776 -0.0832 -0.1818  0.0851
 6712TIP3    H144331   2.274   5.537   1.741 -0.4711 -0.5877  1.3901
 6712TIP3    H244332   2.326   5.643   1.836  0.6004  1.3356 -1.2139
 6713TIP3   OH244333   4.509   0.261   1.871 -0.1743 -0.5608 -0.1552
 6713TIP3    H144334   4.583   0.222   1.918 -1.3364 -0.0011  2.3393
 6713TIP3    H244335   4.549   0.320   1.807  1.5209 -1.4665  0.0107
 6714TIP3   OH244336   7.530   7.435   0.595 -0.3300  0.6556  0.0144
 6714TIP3    H144337   7.464   7.447   0.662  0.4460  1.0000  0.7377
 6714TIP3    H244338   7.536   7.519   0.550 -1.3979  0.1990 -1.0183
 6715TIP3   OH244339   7.578   4.284   2.550  0.4608 -0.3271 -0.0165
 6715TIP3    H144340   7.500   4.231   2.562  1.1861 -2.2961 -2.9048
 6715TIP3    H244341   7.545   4.373   2.537 -1.2658 -1.0037 -0.5030
 6716TIP3   OH244342   7.632   2.599   2.885  0.6328 -0.0800  0.2136
 6716TIP3    H144343   7.602   2.509   2.872  1.5540 -0.0788 -2.4628
 6716TIP3    H244344   7.557   2.653   2.859  1.6127 -0.1151 -3.1029
 6717TIP3   OH244345   6.730   5.623   2.504 -0.3024 -0.2146  0.5938
 6717TIP3    H144346   6.690   5.670   2.577  0.0714 -0.2648  0.8305
 6717TIP3    H244347   6.719   5.681   2.429 -0.5780 -0.1105  0.7161
 6718TIP3   OH244348   3.067   4.617   1.056 -0.6273  0.1180  0.3975
 6718TIP3    H144349   3.073   4.702   1.013 -0.3896 -0.6345 -1.1237
 6718TIP3    H244350   2.974   4.597   1.057 -0.6448  0.1973  0.3865
 6719TIP3   OH244351   6.081   4.866   2.288  0.0315 -0.1102 -0.2412
 6719TIP3    H144352   6.146   4.831   2.228  1.3614  0.2309  0.9390
 6719TIP3    H244353   6.125   4.939   2.332 -0.7288 -0.6071  1.4384
 6720TIP3   OH244354   7.155   5.725   2.451 -0.0820  0.1668  0.6416
 6720TIP3    H144355   7.241   5.699   2.419 -1.0000 -0.6393 -1.3239
 6720TIP3    H244356   7.152   5.695   2.542  1.1396 -1.2017  0.2580
 6721TIP3   OH244357   4.932   5.175   0.634  0.1715 -0.1548 -0.0417
 6721TIP3    H144358   4.860   5.113   0.642  0.1267 -0.0186  0.6486
 6721TIP3    H244359   4.967   5.161   0.546 -0.6561 -0.2696 -0.3539
 6722TIP3   OH244360   2.336   6.569   3.331 -0.5981  0.0747  0.0396
 6722TIP3    H144361   2.284   6.491   3.352  0.8456 -1.0688 -0.4920
 6722TIP3    H244362   2.342   6.569   3.235  1.2872 -0.4727  0.1138
 6723TIP3   OH244363   6.320   3.669   1.840  0.0302  0.1816 -0.2502
 6723TIP3    H144364   6.315   3.601   1.772  1.3776 -0.1794 -0.0265
 6723TIP3    H244365   6.314   3.751   1.792 -1.0603 -0.0836 -0.5853
 6724TIP3   OH244366   0.879   7.397   2.304  0.1619  0.8085  0.1094
 6724TIP3    H144367   0.824   7.442   2.240 -0.9838 -1.2961 -0.4710
 6724TIP3    H244368   0.828   7.398   2.385 -0.9243 -1.3095 -0.4767
 6725TIP3   OH244369   5.987   4.451   2.670  0.0164  0.0179  0.6565
 6725TIP3    H144370   6.038   4.522   2.630 -3.2034  2.9162  1.2587
 6725TIP3    H244371   5.909   4.444   2.616  0.4296 -3.6288  0.2894
 6726TIP3   OH244372   1.092   3.049   2.065  0.3382 -0.0209  0.4823
 6726TIP3    H144373   1.184   3.065   2.084  0.6049 -2.4245  1.7456
 6726TIP3    H244374   1.090   2.959   2.031 -1.2781  0.9335 -2.2481
 6727TIP3   OH244375   0.213   5.254   0.712  0.6870 -0.3545  0.4046
 6727TIP3    H144376   0.204   5.166   0.678 -3.6358  0.1037 -0.1681
 6727TIP3    H244377   0.136   5.267   0.768  1.1688  3.0056  0.5376
 6728TIP3   OH244378   5.842   2.222   0.952  0.2035  0.0384 -0.0266
 6728TIP3    H144379   5.803   2.304   0.921 -0.7018 -0.3206  0.1147
 6728TIP3    H244380   5.917   2.249   1.006 -0.0645  0.7708 -0.0111
 6729TIP3   OH244381   2.123   0.283   2.540  0.3098  0.0047  0.0105
 6729TIP3    H144382   2.185   0.267   2.611  1.7012  0.2694 -1.0852
 6729TIP3    H244383   2.043   0.312   2.584  1.1413  0.2118  1.4585
 6730TIP3   OH244384   3.154   0.566   0.794  0.0765  0.2315  0.2755
 6730TIP3    H144385   3.083   0.540   0.736  0.5317  0.8487 -0.5752
 6730TIP3    H244386   3.125   0.540   0.881 -0.3900 -1.1900 -0.2780
 6731TIP3   OH244387   4.925   3.740   3.279  0.2038  0.3065  0.4676
 6731TIP3    H144388   4.905   3.770   3.190  0.0995 -3.9886 -1.2319
 6731TIP3    H244389   5.016   3.766   3.294  1.1252 -1.0853 -2.1124
 6732TIP3   OH244390   2.896   6.782   3.244 -0.1874 -0.3175  0.5832
 6732TIP3    H144391   2.822   6.722   3.235 -0.0070 -0.4801  0.1905
 6732TIP3    H244392   2.903   6.824   3.158 -0.9338  0.9893  1.1191
 6733TIP3   OH244393   1.359   0.478   2.638 -0.8024  0.4436  0.5411
 6733TIP3    H144394   1.371   0.553   2.696  0.5067  0.1204  0.7121
 6733TIP3    H244395   1.311   0.514   2.563 -0.9077  1.2692  0.9909
 6734TIP3   OH244396   4.517   4.288   1.960  0.0596  0.2744  0.0616
 6734TIP3    H144397   4.486   4.231   2.030  0.1509  0.8655  0.5933
 6734TIP3    H244398   4.612   4.287   1.968  0.0943  0.0228 -0.3215
 6735TIP3   OH244399   7.042   4.360   1.862  0.5031  0.3375 -0.1804
 6735TIP3    H144400   6.989   4.328   1.934  1.4625 -1.7826 -0.3444
 6735TIP3    H244401   7.078   4.443   1.893  2.0837 -1.2045  2.4120
 6736TIP3   OH244402   0.522   3.582   2.085  0.3513  0.5692  0.3282
 6736TIP3    H144403   0.486   3.530   2.156  1.7706  0.9504  1.3791
 6736TIP3    H244404   0.446   3.619   2.041 -0.6169 -0.9244  0.6625
 6737TIP3   OH244405   0.134   0.007   2.713  0.0367  0.0960 -0.0865
 6737TIP3    H144406   0.122  -0.084   2.688  3.8268 -0.5153 -0.2499
 6737TIP3    H244407   0.138   0.006   2.809 -0.5361  0.2124 -0.0578
 6738TIP3   OH244408   4.073   1.266   2.075 -0.0726  0.2166 -0.2713
 6738TIP3    H144409   4.095   1.330   2.007 -1.5685 -0.1050 -1.1198
 6738TIP3    H244410   4.153   1.256   2.126  0.3120  2.5354 -0.2846
 6739TIP3   OH244411   3.953   6.003   1.954 -0.0367 -0.6155 -0.0103
 6739TIP3    H144412   4.017   6.029   1.888  1.8204 -1.9264  1.1861
 6739TIP3    H244413   3.959   5.907   1.957 -2.1066 -0.7762  0.1255
 6740TIP3   OH244414   0.818   4.614   2.061 -0.3644  0.6489  0.0798
 6740TIP3    H144415   0.912   4.595   2.061 -0.4999 -0.3976 -2.1931
 6740TIP3    H244416   0.808   4.686   1.999 -1.2077 -0.4410 -1.1074
 6741TIP3   OH244417   5.165   3.954   0.930 -0.0611 -0.2702  0.1495
 6741TIP3    H144418   5.261   3.946   0.929  0.0807  0.9057  1.1748
 6741TIP3    H244419   5.140   3.921   1.016 -0.3930  0.8496  0.5078
 6742TIP3   OH244420   4.585   2.827   2.243 -0.2193 -0.0905  0.0791
 6742TIP3    H144421   4.530   2.850   2.318 -1.5875 -0.2954 -0.8288
 6742TIP3    H244422   4.650   2.766   2.279 -2.7031 -2.6417  0.5670
 6743TIP3   OH244423   2.342   1.223   0.626 -0.0936 -0.7955 -0.2249
 6743TIP3    H144424   2.399   1.147   0.617 -0.9947 -1.5171  0.0798
 6743TIP3    H244425   2.262   1.189   0.667 -0.1362  0.4859  0.8222
 6744TIP3   OH244426   5.761   5.866   1.219 -0.0044  0.0180  0.0232
 6744TIP3    H144427   5.751   5.946   1.167  0.2702 -0.3293 -0.5837
 6744TIP3    H244428   5.840   5.881   1.271 -1.5998  1.3548  2.2103
 6745TIP3   OH244429   0.062   4.431   0.509  0.0591  0.4004 -0.0353
 6745TIP3    H144430   0.051   4.339   0.486 -2.7361  0.6760 -0.0586
 6745TIP3    H244431  -0.024   4.470   0.498  1.6074  3.6342 -2.4200
 6746TIP3   OH244432   2.805   1.379   2.985  0.0185 -0.1193 -0.1641
 6746TIP3    H144433   2.811   1.444   3.055  0.6074 -0.0205 -0.3058
 6746TIP3    H244434   2.711   1.360   2.979 -0.5152  2.5385 -1.8105
 6747TIP3   OH244435   3.851   4.231   2.690 -0.0215 -0.1611  0.4670
 6747TIP3    H144436   3.871   4.303   2.629  0.1558  1.2277  2.1068
 6747TIP3    H244437   3.902   4.251   2.768 -0.2805 -1.8916  1.1126
 6748TIP3   OH244438   4.271   6.195   3.343  0.0619  0.3609 -0.1548
 6748TIP3    H144439   4.204   6.251   3.302 -1.6716 -0.8522  0.9189
 6748TIP3    H244440   4.353   6.224   3.302 -1.3174  0.3838 -3.2317
 6749TIP3   OH244441   5.789   0.631   2.651  0.6191 -0.2162  0.4982
 6749TIP3    H144442   5.773   0.671   2.736  0.1871  0.5476  0.0640
 6749TIP3    H244443   5.784   0.703   2.589 -2.2698 -1.1976 -0.5604
 6750TIP3   OH244444   4.069   3.589   0.932  0.2201 -0.7084  0.1957
 6750TIP3    H144445   4.075   3.597   1.028  0.7571  2.9344 -0.0117
 6750TIP3    H244446   3.977   3.566   0.917 -0.4362  0.7869  1.5670
 6751TIP3   OH244447   6.584   7.308   2.739 -0.4013  0.5269 -0.0202
 6751TIP3    H144448   6.670   7.346   2.717 -0.8689  1.4306 -0.3269
 6751TIP3    H244449   6.530   7.325   2.662 -1.3510  1.4877  0.8286
 6752TIP3   OH244450   6.044   7.672   0.857  0.3787 -0.1573 -0.3419
 6752TIP3    H144451   6.052   7.662   0.952  0.9223 -0.1468 -0.3841
 6752TIP3    H244452   5.952   7.694   0.843  0.7138  1.9540  0.3713
 6753TIP3   OH244453   2.696   5.612   3.389  0.4480  0.4388  0.1812
 6753TIP3    H144454   2.644   5.686   3.421  0.1090 -0.3491  1.5703
 6753TIP3    H244455   2.665   5.537   3.441  1.8385 -0.3734 -0.1099
 6754TIP3   OH244456   6.361   3.172   0.531 -0.1986 -0.2559 -0.1315
 6754TIP3    H144457   6.440   3.137   0.571 -1.0239 -2.6001 -0.3925
 6754TIP3    H244458   6.358   3.131   0.444 -1.1016  0.6991 -0.5746
 6755TIP3   OH244459   5.358   5.669   1.020  0.1028 -0.8501 -1.1557
 6755TIP3    H144460   5.310   5.592   0.989  0.2332 -1.4014 -0.0392
 6755TIP3    H244461   5.314   5.693   1.101 -1.1464  1.4299 -2.3975
 6756TIP3   OH244462   1.114   2.887   3.164  0.1034 -0.3947 -0.5308
 6756TIP3    H144463   1.117   2.981   3.146 -0.2398 -0.6578 -2.1012
 6756TIP3    H244464   1.027   2.860   3.133 -0.1480 -1.0930  0.7206
 6757TIP3   OH244465   5.445   3.271   1.042  0.6320  0.3768 -0.0799
 6757TIP3    H144466   5.474   3.186   1.011 -0.9849 -0.2228 -0.0462
 6757TIP3    H244467   5.499   3.334   0.995  2.6665 -0.6607  0.7447
 6758TIP3   OH244468   2.516   4.110   1.369 -0.0000  0.2744 -0.5703
 6758TIP3    H144469   2.579   4.079   1.303 -0.2419  0.5887 -0.9496
 6758TIP3    H244470   2.500   4.033   1.424  0.7238  0.1926 -0.4645
 6759TIP3   OH244471   6.346   5.113   1.952 -0.0851  0.0078 -0.4707
 6759TIP3    H144472   6.299   5.170   2.012 -0.1152  0.1666 -0.6433
 6759TIP3    H244473   6.282   5.046   1.927 -0.4539  0.6533 -1.2893
 6760TIP3   OH244474   4.798   3.506   1.711  0.1170  0.6280  0.1100
 6760TIP3    H144475   4.877   3.452   1.717  0.5324  1.2742  0.5478
 6760TIP3    H244476   4.756   3.477   1.630 -0.2335 -1.0928  0.8575
 6761TIP3   OH244477   7.303   3.587   1.168  0.1784  0.1540 -0.3621
 6761TIP3    H144478   7.319   3.672   1.127 -0.0921  0.6971  0.6465
 6761TIP3    H244479   7.379   3.534   1.145 -1.1465 -0.5051 -3.9113
 6762TIP3   OH244480   2.405   6.958   1.075 -0.0439  0.1870  0.1841
 6762TIP3    H144481   2.329   7.014   1.094 -0.5483 -0.1403 -0.7740
 6762TIP3    H244482   2.433   6.987   0.988  0.9796  0.3460  0.5625
 6763TIP3   OH244483   5.540   2.206   1.032 -0.7763 -0.0488  0.1206
 6763TIP3    H144484   5.632   2.209   1.060 -0.4468 -2.2052 -0.5055
 6763TIP3    H244485   5.492   2.191   1.113 -0.5604  0.8245  0.4202
 6764TIP3   OH244486   7.325   0.462   2.006 -0.0482  0.7823  0.6487
 6764TIP3    H144487   7.263   0.492   1.939  0.2371  2.9743  1.2964
 6764TIP3    H244488   7.276   0.398   2.057 -0.9499  0.6212 -0.3816
 6765TIP3   OH244489   6.283   4.953   2.499 -0.5008  0.3816 -0.1731
 6765TIP3    H144490   6.315   5.012   2.431  0.9810  0.2215  0.3425
 6765TIP3    H244491   6.360   4.901   2.524 -1.5901 -1.3066 -0.1352
 6766TIP3   OH244492   4.711   3.505   3.124 -0.4055 -0.3187 -0.0704
 6766TIP3    H144493   4.714   3.417   3.163 -2.3395 -0.3086  0.1658
 6766TIP3    H244494   4.693   3.563   3.197  0.8061  0.2954 -0.2392
 6767TIP3   OH244495   6.551   6.985   1.810  0.6860 -0.2787 -0.0500
 6767TIP3    H144496   6.599   6.917   1.763  2.2989  1.2334 -0.6942
 6767TIP3    H244497   6.610   7.061   1.810 -1.3193  1.3816 -0.0232
 6768TIP3   OH244498   0.317   5.406   1.030 -0.3178 -0.3842 -0.2254
 6768TIP3    H144499   0.307   5.406   1.126 -0.8054 -1.0121 -0.2705
 6768TIP3    H244500   0.406   5.376   1.015  0.7351  2.2706  0.0978
 6769TIP3   OH244501   6.287   5.224   1.358  0.0046 -0.0405  0.1284
 6769TIP3    H144502   6.302   5.304   1.408 -0.0547  0.4121 -0.5677
 6769TIP3    H244503   6.204   5.240   1.312 -0.2164 -0.6625  0.2991
 6770TIP3   OH244504   0.635   7.252   2.066 -0.3181  0.0218 -0.2063
 6770TIP3    H144505   0.654   7.290   2.152 -3.4193  2.2411 -0.2959
 6770TIP3    H244506   0.638   7.158   2.080  1.6601  0.2914  1.6814
 6771TIP3   OH244507   5.581   1.232   3.617 -0.4091  0.7075  0.0526
 6771TIP3    H144508   5.508   1.170   3.620 -0.9853  1.3587 -0.0486
 6771TIP3    H244509   5.656   1.180   3.587 -1.2289  0.3843 -1.5554
 6772TIP3   OH244510   6.477   4.718   2.479 -0.3661  0.0458 -0.0898
 6772TIP3    H144511   6.493   4.688   2.569  0.5607 -1.4185 -0.7024
 6772TIP3    H244512   6.562   4.753   2.451  0.2645 -2.3380 -1.3876
 6773TIP3   OH244513   5.806   2.229   0.322  0.2288 -0.1183 -0.7067
 6773TIP3    H144514   5.713   2.244   0.340 -0.0768 -0.7033 -1.7160
 6773TIP3    H244515   5.810   2.218   0.227  1.4462  0.6485 -0.7620
 6774TIP3   OH244516   0.443   2.978   0.558  0.1136 -0.5210  0.6339
 6774TIP3    H144517   0.375   2.949   0.497  1.4171  0.6341 -1.4898
 6774TIP3    H244518   0.418   2.939   0.642 -2.6529 -0.8597 -0.2439
 6775TIP3   OH244519   2.548   3.566   1.055 -0.2208  0.2554  0.7960
 6775TIP3    H144520   2.618   3.626   1.031  1.0856 -1.3970  0.2196
 6775TIP3    H244521   2.548   3.500   0.986 -0.7764 -1.0503  1.9831
 6776TIP3   OH244522   1.557   0.427   1.630  0.5049  0.5032 -0.1696
 6776TIP3    H144523   1.619   0.500   1.621  0.1735  0.9314  0.9088
 6776TIP3    H244524   1.472   0.469   1.639  0.1698 -0.0602 -0.6494
 6777TIP3   OH244525   2.783   7.551   1.084 -0.0592  0.6479  0.0546
 6777TIP3    H144526   2.757   7.494   1.156  1.6014  0.0421  0.2158
 6777TIP3    H244527   2.862   7.595   1.115 -0.5053  1.9875 -0.6156
 6778TIP3   OH244528   7.107   3.397   2.064  0.1941  0.8191  0.7934
 6778TIP3    H144529   7.037   3.344   2.025 -0.5147  1.9124  0.5109
 6778TIP3    H244530   7.129   3.460   1.996 -0.0200  1.8119  1.6216
 6779TIP3   OH244531   1.915   3.617   1.397  0.1302  0.2778 -0.2346
 6779TIP3    H144532   1.820   3.627   1.406  0.0201  0.1447 -1.1552
 6779TIP3    H244533   1.934   3.532   1.437 -0.0258  0.6257  0.6013
 6780TIP3   OH244534   0.330   0.365   1.256 -0.4655 -0.4623 -0.0955
 6780TIP3    H144535   0.399   0.391   1.194 -1.5847 -2.2347 -2.2296
 6780TIP3    H244536   0.303   0.448   1.297  1.9950  0.4455 -0.1116
 6781TIP3   OH244537   4.983   3.214   1.572  0.2910 -0.3020  0.0604
 6781TIP3    H144538   5.001   3.233   1.664  0.6849  2.4741 -0.5088
 6781TIP3    H244539   5.053   3.258   1.524 -1.6028  0.9513 -1.7083
 6782TIP3   OH244540   1.209   4.120   2.833 -0.7669 -0.5186 -0.3478
 6782TIP3    H144541   1.209   4.026   2.815  0.5964 -0.8511  1.2108
 6782TIP3    H244542   1.224   4.127   2.927  0.2034  1.2755 -0.5927
 6783TIP3   OH244543   3.998   4.616   1.501  0.7271  0.4044  0.6403
 6783TIP3    H144544   4.051   4.537   1.496  2.2887  1.4588 -0.1528
 6783TIP3    H244545   3.913   4.586   1.533  1.4140 -1.5137  0.7622
 6784TIP3   OH244546   3.100   5.376   2.242 -0.6480 -0.5678 -0.0852
 6784TIP3    H144547   3.165   5.446   2.243 -1.1682  0.0068 -2.4175
 6784TIP3    H244548   3.036   5.402   2.308 -0.5399  0.8762 -0.5209
 6785TIP3   OH244549   3.630   6.431   2.929 -0.4789 -0.4478 -0.9942
 6785TIP3    H144550   3.686   6.467   2.998  0.0775  0.9902 -2.1549
 6785TIP3    H244551   3.670   6.346   2.908  1.9015  0.9342 -2.4309
 6786TIP3   OH244552   6.250   5.438   2.166 -0.5381 -0.2525 -0.0581
 6786TIP3    H144553   6.305   5.514   2.186 -1.9478  0.7420  0.2001
 6786TIP3    H244554   6.215   5.411   2.251 -1.4927 -0.0382 -0.3750
 6787TIP3   OH244555   1.713   6.486   1.226 -0.4783  0.4502  0.4072
 6787TIP3    H144556   1.633   6.432   1.223  1.3194 -2.4147 -0.1641
 6787TIP3    H244557   1.784   6.423   1.214  1.9156  2.8627  1.0713
 6788TIP3   OH244558   5.379   4.277   0.682  0.0407  0.1420  0.4066
 6788TIP3    H144559   5.330   4.272   0.600  1.4159 -0.3508 -0.4282
 6788TIP3    H244560   5.320   4.321   0.743 -1.2734 -0.1013 -0.6496
 6789TIP3   OH244561   5.238   5.150   2.250  0.5853  0.2726  0.3872
 6789TIP3    H144562   5.208   5.098   2.323  1.5828 -0.0843  0.5647
 6789TIP3    H244563   5.299   5.093   2.203 -0.6166  0.2151 -1.1818
 6790TIP3   OH244564   2.530   4.841   2.110  0.2975  0.7356 -0.3236
 6790TIP3    H144565   2.454   4.783   2.096  1.5285 -1.9855  2.7992
 6790TIP3    H244566   2.603   4.794   2.071  0.7797  2.2601 -1.3245
 6791TIP3   OH244567   6.292   2.020   2.532  0.0342  0.2910 -0.4732
 6791TIP3    H144568   6.208   2.048   2.569  1.4749  2.8735  1.0638
 6791TIP3    H244569   6.307   1.934   2.572 -0.7527  0.8658  1.1685
 6792TIP3   OH244570   7.532   4.289   2.218 -0.0229  0.2758 -0.3501
 6792TIP3    H144571   7.595   4.274   2.289 -0.8699  1.3929  0.6682
 6792TIP3    H244572   7.547   4.379   2.191  0.1142 -0.0603 -1.4422
 6793TIP3   OH244573   1.784   4.206   2.838  0.1532 -0.1319 -0.1216
 6793TIP3    H144574   1.764   4.120   2.874  0.8014 -0.8206 -1.3764
 6793TIP3    H244575   1.793   4.192   2.744  0.2326  1.3158 -0.3552
 6794TIP3   OH244576   5.783   0.400   1.733  0.0486  0.0165 -0.4494
 6794TIP3    H144577   5.726   0.474   1.709 -1.9420 -0.9354  1.0353
 6794TIP3    H244578   5.748   0.326   1.682  1.5875 -0.0978 -1.3997
 6795TIP3   OH244579   4.800   2.358   1.356  0.8060 -0.2993 -0.3152
 6795TIP3    H144580   4.796   2.318   1.443 -0.2403 -2.8273 -1.4261
 6795TIP3    H244581   4.878   2.412   1.358  0.9507 -0.5044  2.1068
 6796TIP3   OH244582   2.876   4.171   1.382 -0.1230  0.4812  0.2967
 6796TIP3    H144583   2.803   4.225   1.412 -0.5291 -0.4317  0.9772
 6796TIP3    H244584   2.941   4.179   1.452 -0.4036 -0.3450  0.6508
 6797TIP3   OH244585   1.207   6.356   1.401 -0.0045 -0.2275 -0.2887
 6797TIP3    H144586   1.193   6.446   1.431  0.5717 -0.7448  1.6860
 6797TIP3    H244587   1.131   6.308   1.433 -1.3502 -0.1172 -3.1099
 6798TIP3   OH244588   6.239   2.335   2.512 -0.1003  0.1292 -0.4567
 6798TIP3    H144589   6.158   2.313   2.560  0.2854  0.0027  0.1437
 6798TIP3    H244590   6.210   2.345   2.421 -1.4237  3.3569  0.1735
 6799TIP3   OH244591   2.372   3.817   2.441 -0.2883 -0.0539 -0.0336
 6799TIP3    H144592   2.279   3.797   2.456  0.0188 -1.9089 -0.4233
 6799TIP3    H244593   2.401   3.857   2.523 -0.7876 -1.9529  1.1354
 6800TIP3   OH244594   5.834   1.013   2.664  0.0161  0.1725  0.6124
 6800TIP3    H144595   5.850   1.070   2.739  1.6531 -0.1960  0.5779
 6800TIP3    H244596   5.739   1.016   2.651 -0.1292  1.3672  1.7923
 6801TIP3   OH244597   3.227   2.119   0.795  0.0148  0.0294 -0.8658
 6801TIP3    H144598   3.173   2.195   0.772 -2.3241 -0.8934  1.0929
 6801TIP3    H244599   3.173   2.043   0.773  0.4885 -0.9389  1.0402
 6802TIP3   OH244600   3.542   0.543   2.551 -0.0077 -0.2768 -0.4328
 6802TIP3    H144601   3.510   0.453   2.540  0.6212 -0.9284  2.2396
 6802TIP3    H244602   3.596   0.559   2.474 -1.3867 -1.5818 -1.7401
 6803TIP3   OH244603   2.987   4.248   3.621 -0.2207  0.7571 -0.3535
 6803TIP3    H144604   3.059   4.298   3.661 -0.2667  0.3709  0.2163
 6803TIP3    H244605   2.977   4.171   3.677  1.1296 -0.9127 -2.2660
 6804TIP3   OH244606   6.662   6.696   2.002  0.6474  0.6715  0.0721
 6804TIP3    H144607   6.692   6.614   2.041  2.9280  1.7099  0.6450
 6804TIP3    H244608   6.728   6.760   2.027 -0.8832  2.6327 -0.6618
 6805TIP3   OH244609   5.953   1.595   1.420 -0.2524  0.2239 -0.0404
 6805TIP3    H144610   5.860   1.573   1.426 -0.3378  0.5409 -0.1465
 6805TIP3    H244611   5.954   1.690   1.408  0.1405  0.5432  2.0730
 6806TIP3   OH244612   0.431   1.574   0.895  0.5120 -0.0160 -0.5938
 6806TIP3    H144613   0.477   1.583   0.812  0.2363  0.8800 -0.6632
 6806TIP3    H244614   0.445   1.483   0.921 -0.8888 -0.8109 -2.4739
 6807TIP3   OH244615   6.817   5.937   2.511  0.3230 -0.4100 -0.3193
 6807TIP3    H144616   6.850   5.900   2.429 -1.8702 -0.6624 -1.1301
 6807TIP3    H244617   6.735   5.980   2.488 -0.5965 -0.8739  1.8096
 6808TIP3   OH244618   4.226   2.120   2.595 -0.2201 -0.3543  0.3114
 6808TIP3    H144619   4.210   2.151   2.506  0.4147  0.4603  0.4761
 6808TIP3    H244620   4.142   2.131   2.640  0.3082  2.5146  0.7650
 6809TIP3   OH244621   6.225   4.959   2.850  0.2072  0.1862  0.3065
 6809TIP3    H144622   6.297   4.993   2.904 -0.8450  1.9104  0.6829
 6809TIP3    H244623   6.151   4.953   2.910 -0.4283  0.1025 -0.4810
 6810TIP3   OH244624   1.340   3.145   2.561  0.0253  0.3729  0.8814
 6810TIP3    H144625   1.310   3.091   2.488  0.2981  0.6961  0.5259
 6810TIP3    H244626   1.435   3.150   2.549  0.2204 -0.5319  1.9188
 6811TIP3   OH244627   1.762   7.001   1.248 -0.0989  0.1010  0.0561
 6811TIP3    H144628   1.750   6.907   1.255  1.1131 -0.0346  0.4675
 6811TIP3    H244629   1.841   7.020   1.298  1.9705  0.7795 -3.1694
 6812TIP3   OH244630   0.045   5.311   2.099  0.3360  0.2734 -0.0253
 6812TIP3    H144631  -0.030   5.252   2.106 -0.2114  0.7240 -1.5901
 6812TIP3    H244632   0.028   5.380   2.163 -1.3602  1.1348 -1.3104
 6813TIP3   OH244633   5.598   5.383   1.493 -0.0209  0.1616  0.3572
 6813TIP3    H144634   5.681   5.336   1.502  0.3161  0.2391 -1.8175
 6813TIP3    H244635   5.580   5.417   1.581  0.5194 -2.6394  1.6937
 6814TIP3   OH244636   1.487   3.094   1.453 -0.4041  0.0286  0.0815
 6814TIP3    H144637   1.538   3.040   1.513  1.0269  0.1326 -0.9924
 6814TIP3    H244638   1.521   3.183   1.465 -0.4872  0.1402 -0.4674
 6815TIP3   OH244639   1.589   5.186   1.207 -0.3186  0.0421 -0.7294
 6815TIP3    H144640   1.610   5.142   1.125 -0.3276 -0.2038 -0.5998
 6815TIP3    H244641   1.528   5.127   1.252 -1.2341  0.6983 -1.0666
 6816TIP3   OH244642   7.340   3.743   0.443  0.1797  0.1713 -0.0749
 6816TIP3    H144643   7.403   3.806   0.410  1.3881 -0.9512  0.0351
 6816TIP3    H244644   7.278   3.731   0.371 -0.3410  1.7861  0.0597
 6817TIP3   OH244645   6.335   2.943   2.316  0.0564  0.6389  0.2955
 6817TIP3    H144646   6.262   2.979   2.366 -0.5795  1.2057 -1.0004
 6817TIP3    H244647   6.313   2.960   2.225  0.8734 -0.9669 -0.2395
 6818TIP3   OH244648   0.753   6.235   0.775 -0.1883  0.4594 -1.2370
 6818TIP3    H144649   0.822   6.266   0.832 -0.3862  0.6328 -1.0911
 6818TIP3    H244650   0.780   6.147   0.750 -1.2722 -0.6189  1.0848
 6819TIP3   OH244651   7.004   0.484   2.034  0.2059  0.6039 -0.2843
 6819TIP3    H144652   7.018   0.506   2.126  1.8618  1.5881 -0.7217
 6819TIP3    H244653   6.917   0.517   2.014 -0.5242 -0.3778  1.1284
 6820TIP3   OH244654   1.818   3.821   1.210 -0.3791 -0.6953  0.2162
 6820TIP3    H144655   1.881   3.819   1.138  2.1419  0.6156  2.2295
 6820TIP3    H244656   1.863   3.777   1.282 -1.3980  1.0180  1.9923
 6821TIP3   OH244657   1.789   2.839   3.214 -0.1247 -0.0158  0.0295
 6821TIP3    H144658   1.777   2.770   3.149  0.0857 -0.4935  0.4912
 6821TIP3    H244659   1.700   2.862   3.241 -0.1777 -0.4858  0.2629
 6822TIP3   OH244660   3.269   7.084   0.580  0.1471 -0.4283 -0.0349
 6822TIP3    H144661   3.341   7.144   0.596  2.4797 -2.7643 -0.9639
 6822TIP3    H244662   3.300   7.028   0.509 -3.6072 -0.0704 -2.2114
 6823TIP3   OH244663   3.581   3.299   3.047  0.0470  0.1733  0.4012
 6823TIP3    H144664   3.494   3.265   3.069  0.2857  0.5565  2.0444
 6823TIP3    H244665   3.641   3.226   3.065 -0.0160 -0.6598 -2.2773
 6824TIP3   OH244666   1.302   4.194   9.298 -0.0073 -0.6078  0.3212
 6824TIP3    H144667   1.388   4.160   9.322 -0.0695 -0.7051  0.4100
 6824TIP3    H244668   1.252   4.192   9.380  0.6928  1.9047  0.8945
 6825TIP3   OH244669   1.423   6.069   0.531 -0.1844 -0.4484  0.1494
 6825TIP3    H144670   1.497   6.128   0.514  0.9239 -1.3462  1.6498
 6825TIP3    H244671   1.421   6.011   0.455  0.3117 -0.0702 -0.1624
 6826TIP3   OH244672   6.774   3.246   2.661  0.6614 -0.2879 -0.2181
 6826TIP3    H144673   6.796   3.338   2.646 -0.1038  0.3205  2.0197
 6826TIP3    H244674   6.855   3.207   2.695  0.2053  0.3809  1.8080
 6827TIP3   OH244675   0.442   6.130   2.533 -0.9136  0.7065  1.0995
 6827TIP3    H144676   0.375   6.065   2.509 -2.1750  1.6832  1.8417
 6827TIP3    H244677   0.393   6.200   2.577  0.7890  0.8225  2.9526
 6828TIP3   OH244678   1.817   4.911   1.859  0.3607  0.3094  0.0878
 6828TIP3    H144679   1.791   4.870   1.942 -2.0593  2.6243  0.5993
 6828TIP3    H244680   1.796   5.004   1.871  0.2912  0.7786 -2.9957
 6829TIP3   OH244681   6.139   6.535   0.746  0.1095 -0.3991  0.1308
 6829TIP3    H144682   6.181   6.487   0.675  0.3356 -2.2829  1.4466
 6829TIP3    H244683   6.176   6.497   0.826  0.1044  1.8446  1.2978
 6830TIP3   OH244684   7.594   0.814   2.466 -0.0611  0.2347 -0.2180
 6830TIP3    H144685   7.681   0.844   2.439 -0.5465  0.9943 -1.0050
 6830TIP3    H244686   7.551   0.892   2.500  0.2876 -0.5553  2.2574
 6831TIP3   OH244687   4.730   3.492   0.414  0.4770  0.3426  0.1958
 6831TIP3    H144688   4.710   3.533   0.498  0.1798  0.8028 -0.0953
 6831TIP3    H244689   4.824   3.507   0.401  0.7572 -0.6790  0.9511
 6832TIP3   OH244690   7.135   5.643   2.123 -0.1714 -0.3890  0.4516
 6832TIP3    H144691   7.134   5.553   2.157  0.9120 -0.7510 -0.3998
 6832TIP3    H244692   7.227   5.670   2.130 -0.4907  0.6484  0.6914
 6833TIP3   OH244693   6.820   3.773   1.446  0.0581 -0.3364 -0.1518
 6833TIP3    H144694   6.892   3.736   1.395 -0.3117 -0.3607 -0.6612
 6833TIP3    H244695   6.813   3.715   1.522  0.9308 -0.0152  0.1843
 6834TIP3   OH244696   3.169   4.304   2.991  0.1842  0.7691 -0.0645
 6834TIP3    H144697   3.099   4.356   2.952  0.2697  1.2493  0.4047
 6834TIP3    H244698   3.243   4.313   2.931 -0.8003 -1.5533 -1.7359
 6835TIP3   OH244699   6.474   6.362   3.265  0.1931 -0.0058 -0.9687
 6835TIP3    H144700   6.540   6.358   3.334 -0.5075 -1.3213 -0.3203
 6835TIP3    H244701   6.458   6.455   3.251 -0.3940  0.2960  1.3914
 6836TIP3   OH244702   0.096   4.635   0.958 -0.3104  0.0467 -0.3247
 6836TIP3    H144703   0.034   4.704   0.933 -1.1128 -0.8526 -0.8850
 6836TIP3    H244704   0.151   4.623   0.881  0.1412  0.3953 -0.0559
 6837TIP3   OH244705   0.824   6.597   1.479 -0.2884  0.1280  0.7090
 6837TIP3    H144706   0.776   6.613   1.560 -0.0032  0.2737  0.8508
 6837TIP3    H244707   0.851   6.684   1.450 -0.4657  0.0832  0.4105
 6838TIP3   OH244708   4.487   0.772   2.429 -0.6769 -0.0737 -0.4180
 6838TIP3    H144709   4.485   0.725   2.345 -1.8418  0.1678 -0.5402
 6838TIP3    H244710   4.418   0.838   2.421  0.2212  0.9679  0.1572
 6839TIP3   OH244711   1.386   3.535   1.013  0.2323 -0.9547 -0.5308
 6839TIP3    H144712   1.425   3.451   0.992  2.0629 -0.7382  1.6102
 6839TIP3    H244713   1.460   3.593   1.029 -0.9565  0.2917  0.7985
 6840TIP3   OH244714   2.229   6.702   2.863 -0.5148  0.0255 -0.2985
 6840TIP3    H144715   2.270   6.663   2.786  2.2384 -0.5054  1.3170
 6840TIP3    H244716   2.268   6.656   2.937 -1.8760  1.6060  1.5029
 6841TIP3   OH244717   1.706   6.358   2.726 -0.4785 -0.3456  0.6286
 6841TIP3    H144718   1.616   6.349   2.758 -0.9321 -2.2242 -1.0024
 6841TIP3    H244719   1.712   6.296   2.653  1.6230  1.0247 -0.4523
 6842TIP3   OH244720   4.654   2.503   1.157  0.1122 -0.2964 -0.4068
 6842TIP3    H144721   4.561   2.485   1.168  0.6352 -2.8389  0.4420
 6842TIP3    H244722   4.695   2.466   1.235  1.8883  0.5249 -0.9002
 6843TIP3   OH244723   6.857   1.573   0.701 -0.0848 -0.0212 -0.4659
 6843TIP3    H144724   6.852   1.531   0.616 -0.9205  2.1044 -1.5463
 6843TIP3    H244725   6.851   1.667   0.682  1.8088  0.6471  1.7793
 6844TIP3   OH244726   1.320   5.025   2.701  0.4066 -0.1332  0.3488
 6844TIP3    H144727   1.308   4.930   2.708 -0.7892 -0.0641 -0.4575
 6844TIP3    H244728   1.356   5.051   2.786  1.2171 -1.3618  0.4131
 6845TIP3   OH244729   1.255   5.595   2.050 -0.0117  0.3418  0.1585
 6845TIP3    H144730   1.326   5.542   2.016  0.2737 -0.2914  1.6426
 6845TIP3    H244731   1.207   5.536   2.109 -1.5386  0.8674 -0.5043
 6846TIP3   OH244732   6.389   6.964   0.478  0.1788  0.3178 -0.0846
 6846TIP3    H144733   6.428   7.009   0.553  0.4817  1.7808 -1.0837
 6846TIP3    H244734   6.458   6.904   0.448  0.1783 -0.0319  0.5910
 6847TIP3   OH244735   1.999   6.412   2.514  0.1842 -0.5759  0.1603
 6847TIP3    H144736   1.915   6.382   2.480  0.4627  0.1882 -1.2539
 6847TIP3    H244737   2.033   6.470   2.447  1.0417  0.5314  1.5050
 6848TIP3   OH244738   4.592   6.266   1.439  0.2830 -0.2672 -0.1391
 6848TIP3    H144739   4.624   6.200   1.501  0.3665 -1.1409 -1.0928
 6848TIP3    H244740   4.543   6.216   1.374  1.8216  0.3720 -1.8715
 6849TIP3   OH244741   7.098   6.943   2.280  0.5500 -1.1173 -0.2927
 6849TIP3    H144742   7.047   6.985   2.210 -2.6512  1.7761  3.3154
 6849TIP3    H244743   7.182   6.988   2.278  0.3464 -0.7351 -1.9247
 6850TIP3   OH244744   5.499   4.547   0.624  0.7568 -0.0753  0.0825
 6850TIP3    H144745   5.435   4.480   0.600  0.4641  0.5591 -0.9956
 6850TIP3    H244746   5.574   4.498   0.657  0.4531 -0.9287 -0.4563
 6851TIP3   OH244747   5.446   5.076   1.585 -0.1117 -0.6888  0.3578
 6851TIP3    H144748   5.517   5.088   1.648  1.8497 -0.1008 -1.8162
 6851TIP3    H244749   5.388   5.151   1.599  1.6106  0.8039 -0.0725
 6852TIP3   OH244750   2.555   3.381   0.584 -0.2734  0.2168 -0.0709
 6852TIP3    H144751   2.577   3.472   0.607 -0.4812  0.3117 -0.2430
 6852TIP3    H244752   2.635   3.346   0.547  0.2374 -0.1068  1.2908
 6853TIP3   OH244753   3.575   1.467   2.286 -0.2446 -0.0755 -0.2207
 6853TIP3    H144754   3.503   1.459   2.224 -0.6328 -0.3501  0.2587
 6853TIP3    H244755   3.596   1.377   2.311 -1.3444  0.0928  1.4536
 6854TIP3   OH244756   2.225   1.798   0.812 -0.4664 -0.0140 -0.9293
 6854TIP3    H144757   2.185   1.743   0.744 -0.7448 -0.9029 -0.0546
 6854TIP3    H244758   2.313   1.761   0.825 -0.3904  0.1940 -0.8359
 6855TIP3   OH244759   6.568   5.144   1.340  0.0571  0.0781  0.0667
 6855TIP3    H144760   6.503   5.210   1.364  0.4578  0.4625  0.1305
 6855TIP3    H244761   6.603   5.114   1.424  0.4520  0.3864  0.0202
 6856TIP3   OH244762   6.241   4.283   1.115 -0.1618 -0.0781 -0.3100
 6856TIP3    H144763   6.286   4.362   1.085  0.6357 -1.2266 -2.4103
 6856TIP3    H244764   6.288   4.211   1.072 -0.1017 -1.8306  2.4472
 6857TIP3   OH244765   5.397   7.095   2.050 -0.0477  0.3246  0.0499
 6857TIP3    H144766   5.395   7.176   1.999 -0.5619  0.0312 -0.4035
 6857TIP3    H244767   5.306   7.081   2.076  0.3460  1.0720  2.0274
 6858TIP3   OH244768   5.816   4.658   2.842 -0.3295  0.1793 -0.4508
 6858TIP3    H144769   5.912   4.659   2.842 -0.2848 -0.7292  1.0003
 6858TIP3    H244770   5.793   4.567   2.823 -0.9677  0.6515 -2.1281
 6859TIP3   OH244771   0.854   6.246   1.792  0.6126 -0.1030 -0.2166
 6859TIP3    H144772   0.889   6.252   1.704  3.3578 -0.3946  0.7472
 6859TIP3    H244773   0.879   6.329   1.834  2.3982 -1.2894  1.2180
 6860TIP3   OH244774   6.535   0.154   2.862 -0.3522  0.1829  0.2847
 6860TIP3    H144775   6.552   0.066   2.828 -2.7699 -0.2769  0.0757
 6860TIP3    H244776   6.441   0.154   2.882 -0.2047  2.4064  1.2361
 6861TIP3   OH244777   2.643   5.719   0.710  0.5339  0.2449  0.2118
 6861TIP3    H144778   2.644   5.814   0.696 -0.3960  0.2900  0.3550
 6861TIP3    H244779   2.728   5.699   0.748  1.5930  0.7033 -1.7998
 6862TIP3   OH244780   1.576   5.329   2.353  0.2602  0.0693 -0.3857
 6862TIP3    H144781   1.605   5.238   2.350  0.9468  0.2958 -0.8772
 6862TIP3    H244782   1.576   5.351   2.446 -0.7036 -0.6691 -0.1917
 6863TIP3   OH244783   5.149   1.089   1.833  0.8979  0.3619  0.6729
 6863TIP3    H144784   5.068   1.140   1.834  0.9218  0.4252  0.0393
 6863TIP3    H244785   5.175   1.083   1.925  0.1785  0.3462  0.8845
 6864TIP3   OH244786   7.561   0.797   0.685  0.1498  0.4481  0.3042
 6864TIP3    H144787   7.520   0.846   0.756  0.7922 -0.8243  1.6221
 6864TIP3    H244788   7.491   0.780   0.623 -0.6041  0.9431  1.0117
 6865TIP3   OH244789   1.313   5.799   0.444 -0.2203 -0.2322  0.1804
 6865TIP3    H144790   1.236   5.842   0.483 -0.7634 -0.5942 -0.4717
 6865TIP3    H244791   1.287   5.707   0.437 -0.1285 -0.1803 -1.0114
 6866TIP3   OH244792   5.582   1.115   2.796 -0.3615 -0.4801 -0.0693
 6866TIP3    H144793   5.507   1.175   2.794 -0.5000 -0.6788 -1.0470
 6866TIP3    H244794   5.579   1.077   2.884 -1.4159 -0.4963 -0.0993
 6867TIP3   OH244795   1.905   0.344   2.675  0.3659  0.1288 -0.0746
 6867TIP3    H144796   1.813   0.364   2.657  0.3852  0.6767  0.4174
 6867TIP3    H244797   1.901   0.282   2.748  0.3438 -0.9579 -0.9682
 6868TIP3   OH244798   2.783   1.571   1.612  0.4414  0.3865 -0.1193
 6868TIP3    H144799   2.735   1.595   1.533 -0.0165  0.9338  0.3158
 6868TIP3    H244800   2.767   1.477   1.622 -2.8009  0.9463  1.4515
 6869TIP3   OH244801   4.605   5.384   1.593  0.2248  0.5384 -0.4118
 6869TIP3    H144802   4.578   5.409   1.682 -1.6459  0.3731 -0.8861
 6869TIP3    H244803   4.590   5.290   1.589 -0.2201  0.6292 -1.0531
 6870TIP3   OH244804   0.883   1.926   1.031  0.3129 -0.2518  0.4591
 6870TIP3    H144805   0.838   1.904   0.950  0.6630 -2.4865  0.8033
 6870TIP3    H244806   0.824   1.988   1.075  0.5078  1.6793 -1.8081
 6871TIP3   OH244807   0.482   6.203   2.199  0.1676 -0.7602  0.4554
 6871TIP3    H144808   0.513   6.116   2.176  0.1295 -0.6329 -0.0804
 6871TIP3    H244809   0.387   6.193   2.208  0.1200 -0.6987  0.0402
 6872TIP3   OH244810   1.081   1.026   1.459 -0.2960  0.3736  0.7833
 6872TIP3    H144811   1.176   1.012   1.451 -0.2449  1.5679 -1.3925
 6872TIP3    H244812   1.044   0.937   1.455  0.6543 -0.0102 -0.1049
 6873TIP3   OH244813   3.776   6.994   1.390  0.1929 -0.1930 -0.0178
 6873TIP3    H144814   3.731   7.057   1.447  1.3778  0.0395  0.6799
 6873TIP3    H244815   3.820   7.048   1.325  0.1041 -0.3834 -0.2382
 6874TIP3   OH244816   4.132   7.239   2.569  0.2574 -0.2908 -0.1037
 6874TIP3    H144817   4.127   7.315   2.512  1.2440  1.9633  2.5412
 6874TIP3    H244818   4.048   7.238   2.615  0.1766 -0.9430 -0.2569
 6875TIP3   OH244819   6.244   5.205   0.768 -0.2539 -0.5436 -0.5828
 6875TIP3    H144820   6.252   5.237   0.858 -1.3680 -0.4097 -0.5092
 6875TIP3    H244821   6.264   5.280   0.713  1.5005 -0.8965 -0.4880
 6876TIP3   OH244822   1.018   0.340   0.758 -0.6086  0.2788  0.1634
 6876TIP3    H144823   0.971   0.322   0.839  1.0644  0.0039  1.1097
 6876TIP3    H244824   1.037   0.433   0.761 -0.7942  0.3266 -0.0682
 6877TIP3   OH244825   5.207   2.249   0.902 -0.3801 -0.5448  0.3247
 6877TIP3    H144826   5.145   2.190   0.945 -0.9923  0.0221  0.2283
 6877TIP3    H244827   5.212   2.325   0.959  0.6528 -0.8019  0.6108
 6878TIP3   OH244828   4.405   7.122   0.844 -0.1871  0.1280  0.4971
 6878TIP3    H144829   4.452   7.204   0.828 -1.3266  0.4564 -1.5219
 6878TIP3    H244830   4.466   7.054   0.817 -0.1975  0.4675 -0.4360
 6879TIP3   OH244831   4.308   7.341   2.307  0.7038  0.3053 -0.5370
 6879TIP3    H144832   4.339   7.352   2.217  0.7323 -1.1553 -0.7271
 6879TIP3    H244833   4.348   7.259   2.337 -1.6446 -0.8137 -0.2252
 6880TIP3   OH244834   6.467   0.132   2.367  0.2332 -0.7457 -0.0616
 6880TIP3    H144835   6.433   0.050   2.403 -1.3114 -0.2227 -0.2886
 6880TIP3    H244836   6.548   0.147   2.416  1.0281 -2.8441 -0.6183
 6881TIP3   OH244837   5.213   2.106   0.653  0.6058  0.2219  0.5924
 6881TIP3    H144838   5.126   2.109   0.614 -0.2365 -1.5371  2.1544
 6881TIP3    H244839   5.201   2.140   0.742  1.6260  0.4896  0.6406
 6882TIP3   OH244840   0.312   1.406   1.416  0.6511 -0.1596 -0.2504
 6882TIP3    H144841   0.342   1.489   1.453 -2.9048  0.8086  0.8844
 6882TIP3    H244842   0.293   1.351   1.491  1.1118 -1.3132 -0.9515
 6883TIP3   OH244843   1.221   3.575   3.208  0.0927 -0.2476 -0.1696
 6883TIP3    H144844   1.294   3.514   3.220 -0.2559 -0.3330  1.9017
 6883TIP3    H244845   1.147   3.519   3.184  0.0299 -0.5263  0.6462
 6884TIP3   OH244846   4.334   3.009   1.478  0.4994  0.5465  0.0241
 6884TIP3    H144847   4.277   3.085   1.467  1.0228  0.7862 -1.3000
 6884TIP3    H244848   4.293   2.940   1.425  1.2367  0.6229 -0.6702
 6885TIP3   OH244849   0.055   0.262   0.680  0.0382 -0.5652  0.2710
 6885TIP3    H144850   0.145   0.292   0.672  0.0349 -0.8603 -0.9620
 6885TIP3    H244851   0.004   0.342   0.694  0.3061 -0.2197 -0.6502
 6886TIP3   OH244852   0.274   1.250   2.958 -0.2581 -0.5088 -0.0181
 6886TIP3    H144853   0.193   1.205   2.935  0.8926 -1.9260 -1.6039
 6886TIP3    H244854   0.304   1.289   2.875  0.0810  1.0541  0.8037
 6887TIP3   OH244855   4.781   3.136   2.433 -0.3710  0.0655  0.4177
 6887TIP3    H144856   4.732   3.075   2.488  0.1067  0.4920  1.3503
 6887TIP3    H244857   4.772   3.102   2.344  0.8822 -2.0699  1.0318
 6888TIP3   OH244858   4.437   5.710   1.978 -0.2576 -0.5209  0.2825
 6888TIP3    H144859   4.447   5.616   1.988  0.9919 -0.4341  0.0498
 6888TIP3    H244860   4.450   5.726   1.884 -1.4012 -0.2127  0.1671
 6889TIP3   OH244861   6.663   2.033   1.074 -0.5158 -0.2700 -0.9898
 6889TIP3    H144862   6.739   2.085   1.047 -0.0258  0.3382  1.3566
 6889TIP3    H244863   6.682   1.945   1.041  1.5831 -0.2978  0.0977
 6890TIP3   OH244864   4.820   6.998   2.368 -0.3971 -0.2186 -0.2150
 6890TIP3    H144865   4.791   6.987   2.278  0.0450 -1.9596 -0.1833
 6890TIP3    H244866   4.834   6.908   2.400  1.7592  0.4058  0.8070
 6891TIP3   OH244867   7.276   4.159   3.067  0.1396 -0.0166  1.0857
 6891TIP3    H144868   7.339   4.192   3.131 -0.1191  0.2650  1.1957
 6891TIP3    H244869   7.324   4.159   2.985 -0.1431  1.5711  0.8892
 6892TIP3   OH244870   5.282   1.780   1.290 -0.5948 -0.4702  0.1004
 6892TIP3    H144871   5.233   1.705   1.323 -0.3561 -1.6916 -2.1937
 6892TIP3    H244872   5.227   1.819   1.223  0.4871 -0.3184 -0.7335
 6893TIP3   OH244873   2.014   1.799   2.760 -0.0235  0.0248  0.7749
 6893TIP3    H144874   2.022   1.806   2.665 -0.5286  0.0010  0.7259
 6893TIP3    H244875   2.030   1.707   2.779  1.5854  0.2933  0.8825
 6894TIP3   OH244876   1.209   3.847   2.781  0.0701  0.5831  0.1130
 6894TIP3    H144877   1.217   3.770   2.837  2.0007 -0.3865 -1.3784
 6894TIP3    H244878   1.246   3.820   2.697 -2.0133  2.2105 -1.4472
 6895TIP3   OH244879   1.840   6.895   2.407 -0.4989  0.3684  0.0871
 6895TIP3    H144880   1.789   6.910   2.487 -1.8617  0.1257 -0.7013
 6895TIP3    H244881   1.779   6.853   2.347  1.1129 -1.5459 -0.3413
 6896TIP3   OH244882   7.089   0.939   2.934  0.1026 -0.5846 -0.1661
 6896TIP3    H144883   7.038   0.865   2.902  0.8470 -0.6308 -1.2985
 6896TIP3    H244884   7.051   0.959   3.020 -0.9356 -1.4509 -0.4033
 6897TIP3   OH244885   4.466   3.250   2.942 -0.3558  0.5970 -0.5692
 6897TIP3    H144886   4.527   3.241   3.015 -0.2318  0.9224 -0.6302
 6897TIP3    H244887   4.379   3.249   2.983 -0.3523 -0.6118 -0.5522
 6898TIP3   OH244888   2.453   2.136   2.419 -0.4062  0.2687 -0.6795
 6898TIP3    H144889   2.496   2.214   2.455 -1.9107  0.7041  0.2972
 6898TIP3    H244890   2.360   2.151   2.435 -0.7534 -1.6348 -0.6621
 6899TIP3   OH244891   7.595   3.974   2.788 -0.3707  0.3651 -0.4398
 6899TIP3    H144892   7.637   3.889   2.800 -1.2636  0.0196  0.3665
 6899TIP3    H244893   7.502   3.957   2.800 -0.8266  1.0368 -2.5871
 6900TIP3   OH244894   3.896   6.508   2.220  0.5847  0.3140 -0.2712
 6900TIP3    H144895   3.820   6.556   2.253 -0.0610 -1.1838  0.5036
 6900TIP3    H244896   3.860   6.450   2.153  1.2394  0.3796 -0.6900
 6901TIP3   OH244897   0.531   5.276   0.351 -0.2236 -0.1112  0.1023
 6901TIP3    H144898   0.526   5.337   0.277  1.2913 -1.6173 -1.3363
 6901TIP3    H244899   0.447   5.286   0.396 -1.1113  1.0458 -1.6671
 6902TIP3   OH244900   3.518   6.782   1.811  0.1602  0.2657 -0.1299
 6902TIP3    H144901   3.555   6.785   1.899 -0.2825  2.2025  0.0347
 6902TIP3    H244902   3.457   6.707   1.814  2.4814 -1.7192  0.1679
 6903TIP3   OH244903   7.140   5.981   2.554  0.0201  0.1524 -0.4871
 6903TIP3    H144904   7.150   5.892   2.523  0.0099  0.2851 -0.8741
 6903TIP3    H244905   7.132   6.034   2.475  1.8063  0.7201 -0.3352
 6904TIP3   OH244906   6.998   0.478   3.215 -0.5068  0.2344 -0.2770
 6904TIP3    H144907   6.953   0.396   3.229  0.5108 -0.3409 -0.2600
 6904TIP3    H244908   7.091   0.455   3.213 -0.1866  1.4013 -0.0869
 6905TIP3   OH244909   1.907   5.125   2.181  0.3701  0.0319 -0.3450
 6905TIP3    H144910   1.861   5.096   2.260  2.0382  1.5953  1.2987
 6905TIP3    H244911   1.960   5.049   2.155  0.9004 -0.0502  0.9206
 6906TIP3   OH244912   5.632   3.606   2.102  0.4475  0.5674 -0.0029
 6906TIP3    H144913   5.539   3.612   2.121  0.3530  0.3910 -0.3991
 6906TIP3    H244914   5.667   3.693   2.121 -0.0092  0.9735 -0.9633
 6907TIP3   OH244915   5.019   3.519   3.099  0.7953  0.2840  0.0296
 6907TIP3    H144916   5.017   3.531   3.194  0.9318 -1.9180  0.3685
 6907TIP3    H244917   4.943   3.567   3.066  0.2769  0.3850  1.3360
 6908TIP3   OH244918   4.995   4.774   2.570  0.2822 -0.3163  0.0610
 6908TIP3    H144919   4.954   4.691   2.592  0.4372 -0.4744 -0.2470
 6908TIP3    H244920   5.055   4.792   2.643  0.5456 -0.6728 -0.0675
 6909TIP3   OH244921   1.921   5.403   2.174  0.0794  0.6371 -0.5453
 6909TIP3    H144922   1.882   5.427   2.258 -0.1066 -0.1833 -0.3921
 6909TIP3    H244923   1.905   5.309   2.166  0.0950  0.7135 -1.5046
 6910TIP3   OH244924   1.999   2.200   0.808 -0.2176  0.1907  0.0888
 6910TIP3    H144925   1.967   2.131   0.749 -0.8318 -1.3110  2.0378
 6910TIP3    H244926   2.044   2.152   0.878  0.2905  1.8652  0.9586
 6911TIP3   OH244927   3.058   2.238   2.176 -0.1660  0.2272 -0.2913
 6911TIP3    H144928   3.086   2.196   2.257  1.7551  0.1060 -0.9611
 6911TIP3    H244929   3.017   2.168   2.125 -2.8927  0.6290  1.1243
 6912TIP3   OH244930   0.423   7.063   0.558  0.0860 -0.0672 -0.1954
 6912TIP3    H144931   0.329   7.049   0.552  0.0112 -0.0805  0.7934
 6912TIP3    H244932   0.462   6.984   0.521 -0.3036 -0.4982  0.2970
 6913TIP3   OH244933   4.997   5.240   0.888  0.2353  0.0517 -0.0199
 6913TIP3    H144934   4.972   5.224   0.797  0.5576 -1.9765  0.1992
 6913TIP3    H244935   4.942   5.314   0.915  0.4972  1.0263 -1.9850
 6914TIP3   OH244936   4.671   4.550   2.341 -0.0924  0.2232  0.3429
 6914TIP3    H144937   4.736   4.526   2.275 -1.5520  0.0210 -1.0714
 6914TIP3    H244938   4.723   4.585   2.414  1.5670  0.4183 -0.8729
 6915TIP3   OH244939   1.893   4.074   1.790  0.2864 -0.5433 -0.2126
 6915TIP3    H144940   1.899   4.162   1.827  1.6676 -0.8735  0.4138
 6915TIP3    H244941   1.803   4.068   1.758 -0.1513  0.7090  0.6884
 6916TIP3   OH244942   0.048   2.469   2.034  0.8965 -0.6736  0.5819
 6916TIP3    H144943   0.115   2.535   2.052  0.2767  0.1741 -0.0816
 6916TIP3    H244944   0.063   2.443   1.944  2.1158 -2.6519  1.3010
 6917TIP3   OH244945   3.028   6.883   2.430  0.4716  0.4656  0.7541
 6917TIP3    H144946   3.067   6.799   2.404  1.3863  0.7545  1.1331
 6917TIP3    H244947   2.937   6.863   2.449  0.0068  0.0454 -1.6567
 6918TIP3   OH244948   6.183   1.202   1.777  0.2501 -0.1516  0.1825
 6918TIP3    H144949   6.235   1.230   1.702  0.0607 -0.5133 -0.0883
 6918TIP3    H244950   6.117   1.143   1.740  0.7299 -1.0730  0.7609
 6919TIP3   OH244951   7.096   4.902   0.732 -0.5425  0.3515 -0.4030
 6919TIP3    H144952   7.185   4.869   0.724  0.0518  1.7257  0.1767
 6919TIP3    H244953   7.050   4.866   0.656  0.6733  0.1138 -1.0541
 6920TIP3   OH244954   5.785   4.972   1.744  0.2350 -0.1834  0.2095
 6920TIP3    H144955   5.730   5.048   1.764 -0.4522 -1.0183  1.7132
 6920TIP3    H244956   5.841   5.001   1.672 -1.5077  1.0132 -0.7435
 6921TIP3   OH244957   2.556   1.354   0.723 -0.6723 -0.0058 -0.1168
 6921TIP3    H144958   2.475   1.323   0.683 -1.4876 -0.7791  2.0504
 6921TIP3    H244959   2.539   1.354   0.817  1.7712  0.0398  0.3892
 6922TIP3   OH244960   0.902   1.500   1.685 -0.0452  0.1348 -0.4829
 6922TIP3    H144961   0.827   1.443   1.668  0.3555  0.1876 -2.8398
 6922TIP3    H244962   0.865   1.587   1.697 -0.5429 -0.3114  1.4905
 6923TIP3   OH244963   2.674   4.661   1.418 -0.5785 -0.2403  0.1035
 6923TIP3    H144964   2.701   4.661   1.510  1.0169 -1.5065 -0.3319
 6923TIP3    H244965   2.718   4.736   1.380 -2.8023  1.5016  0.7307
 6924TIP3   OH244966   6.037   5.968   2.335  0.0732 -0.2546  0.1048
 6924TIP3    H144967   5.956   5.926   2.307  1.3395 -1.7229 -1.6172
 6924TIP3    H244968   6.014   6.059   2.349 -1.7153 -0.4834 -1.1011
 6925TIP3   OH244969   4.858   1.370   2.612 -0.2025  0.5320 -0.4303
 6925TIP3    H144970   4.879   1.463   2.613 -1.3745  0.8057 -0.2637
 6925TIP3    H244971   4.771   1.365   2.573  0.6972 -0.6955 -2.4720
 6926TIP3   OH244972   7.428   6.841   0.555  0.2481  0.5339 -0.1998
 6926TIP3    H144973   7.522   6.833   0.542  0.2731  0.6184 -0.0760
 6926TIP3    H244974   7.406   6.770   0.616 -0.0663 -0.6324 -1.6068
 6927TIP3   OH244975   5.114   5.022   2.459 -0.1644 -0.3453 -0.1969
 6927TIP3    H144976   5.160   5.050   2.538 -0.7660 -0.2558  0.1288
 6927TIP3    H244977   5.038   4.974   2.492 -0.9966  0.6012 -0.7058
 6928TIP3   OH244978   0.107   3.783   1.291  0.7102 -0.2403  0.8152
 6928TIP3    H144979   0.018   3.789   1.325  0.2876 -1.5489  0.0038
 6928TIP3    H244980   0.103   3.826   1.206  1.0474  0.3728  1.1031
 6929TIP3   OH244981   3.594   6.308   1.952 -0.1898 -0.4480 -0.1579
 6929TIP3    H144982   3.640   6.388   1.925 -1.2769 -0.0057 -0.7577
 6929TIP3    H244983   3.512   6.310   1.904  0.3283 -2.6476 -1.3155
 6930TIP3   OH244984   6.202   3.821   2.200 -0.1515  0.4019 -0.5764
 6930TIP3    H144985   6.141   3.833   2.127 -0.0129  1.9276 -0.4634
 6930TIP3    H244986   6.179   3.888   2.263  0.5315 -0.1191  0.2556
 6931TIP3   OH244987   3.646   0.164   2.922  0.2566  0.1001  0.1397
 6931TIP3    H144988   3.607   0.246   2.892  0.4269  0.7626  1.6112
 6931TIP3    H244989   3.579   0.098   2.904  0.2714  0.4720 -1.4269
 6932TIP3   OH244990   4.516   0.068   1.170  0.0758 -0.2748  0.7246
 6932TIP3    H144991   4.485  -0.011   1.127  0.6717  0.0598 -0.3510
 6932TIP3    H244992   4.526   0.043   1.262 -1.8842 -0.8031  0.8470
 6933TIP3   OH244993   0.742   1.652   0.823  0.2097 -0.2290  0.5589
 6933TIP3    H144994   0.701   1.578   0.867 -0.5502  0.1387  0.4946
 6933TIP3    H244995   0.750   1.625   0.732  0.2355 -0.3588  0.6000
 6934TIP3   OH244996   4.937   6.746   2.106  0.0461  0.0616  0.0429
 6934TIP3    H144997   4.918   6.687   2.179 -0.7609  1.9482  1.4059
 6934TIP3    H244998   5.032   6.758   2.110  0.2927 -1.4117 -0.5164
 6935TIP3   OH244999   0.180   3.141   2.393  0.1687 -0.0662 -0.6289
 6935TIP3    H145000   0.152   3.137   2.302  0.7568  0.1755 -0.8248
 6935TIP3    H245001   0.271   3.171   2.389  1.3501 -3.2560 -0.1453
 6936TIP3   OH245002   6.028   7.322   1.838  0.1105 -0.5992 -0.2173
 6936TIP3    H145003   6.114   7.314   1.880  0.6644  0.7055 -1.0357
 6936TIP3    H245004   5.974   7.255   1.880  0.5947  0.6682  2.6401
 6937TIP3   OH245005   5.886   7.322   2.462 -0.3589 -0.0486 -0.4528
 6937TIP3    H145006   5.886   7.414   2.436 -0.9988  0.1533  0.2299
 6937TIP3    H245007   5.800   7.289   2.435  0.1897 -0.6902 -1.4909
 6938TIP3   OH245008   2.090   7.043   1.925 -0.4613 -0.1940  0.1311
 6938TIP3    H145009   2.029   7.116   1.914  1.2555  1.4429  0.8290
 6938TIP3    H245010   2.176   7.082   1.914  0.6168 -1.7370  2.2515
 6939TIP3   OH245011   1.616   2.984   0.798 -0.6487 -0.0391 -0.6305
 6939TIP3    H145012   1.549   3.046   0.771  0.1640  1.3069  0.3248
 6939TIP3    H245013   1.567   2.914   0.842 -1.4207  0.9814  0.1690
 6940TIP3   OH245014   1.954   4.444   1.087 -0.3360 -0.2003 -0.2552
 6940TIP3    H145015   2.032   4.395   1.062 -0.7139 -0.8692 -0.1474
 6940TIP3    H245016   1.950   4.435   1.182 -0.1103  0.5040 -0.1716
 6941TIP3   OH245017   1.785   6.538   1.781 -0.4658  0.2713 -0.2854
 6941TIP3    H145018   1.754   6.461   1.733 -0.3022 -0.2521  0.4240
 6941TIP3    H245019   1.875   6.549   1.752 -0.1644 -0.4254  0.3507
 6942TIP3   OH245020   4.802   7.037   3.366  0.3072  0.3539 -0.7403
 6942TIP3    H145021   4.846   7.081   3.438 -2.7136  0.4052  1.2854
 6942TIP3    H245022   4.825   6.945   3.378 -0.1680  0.3550  0.3663
 6943TIP3   OH245023   4.851   7.526   1.993  0.2730 -0.4232  0.2500
 6943TIP3    H145024   4.795   7.565   2.061  2.3888  0.4004  1.6219
 6943TIP3    H245025   4.872   7.439   2.028 -0.3567 -0.8509 -0.4090
 6944TIP3   OH245026   1.596   7.068   0.586 -0.6072  0.4309  0.1064
 6944TIP3    H145027   1.590   7.157   0.553 -2.2269  0.5999  0.7629
 6944TIP3    H245028   1.513   7.054   0.632 -0.1389 -1.2106  0.5097
 6945TIP3   OH245029   7.253   7.090   1.324 -0.0707 -0.5597  0.2755
 6945TIP3    H145030   7.268   7.000   1.352  1.9345 -0.9788 -1.8388
 6945TIP3    H245031   7.170   7.087   1.276 -0.6231 -0.9960  1.2336
 6946TIP3   OH245032   4.692   1.236   1.247  0.2045 -0.0005  0.1056
 6946TIP3    H145033   4.638   1.158   1.254  0.6602 -0.2709  0.7196
 6946TIP3    H245034   4.630   1.307   1.230 -0.0868 -0.6881 -1.9305
 6947TIP3   OH245035   3.146   6.856   3.372 -0.1082 -0.0843  0.5108
 6947TIP3    H145036   3.165   6.763   3.354  2.1738  0.5038 -0.5177
 6947TIP3    H245037   3.055   6.867   3.347 -0.0808 -1.8018 -0.5265
 6948TIP3   OH245038   5.297   3.592   1.516 -0.1265 -0.1131 -0.1486
 6948TIP3    H145039   5.334   3.668   1.472 -0.1360  0.6082  1.0616
 6948TIP3    H245040   5.372   3.534   1.531  0.4200  0.9836  1.5677
 6949TIP3   OH245041   4.483   5.434   3.178  0.7751 -0.2145  0.3458
 6949TIP3    H145042   4.578   5.449   3.182  1.1971 -1.4392 -2.5456
 6949TIP3    H245043   4.446   5.522   3.176  1.7639  0.2938  2.2584
 6950TIP3   OH245044   0.465   3.805   2.693  0.3450  0.4882 -0.1702
 6950TIP3    H145045   0.557   3.823   2.673  0.0459  1.5173 -0.6744
 6950TIP3    H245046   0.419   3.884   2.667 -0.9456 -0.7517 -1.8496
 6951TIP3   OH245047   5.958   4.375   1.782 -0.3120 -0.4524  0.7285
 6951TIP3    H145048   6.035   4.416   1.822  0.4033  0.0190 -1.0387
 6951TIP3    H245049   5.918   4.444   1.729 -0.8550 -1.1979  0.1347
 6952TIP3   OH245050   0.006   6.715   2.137 -0.2503 -0.0640 -0.4709
 6952TIP3    H145051  -0.054   6.760   2.196 -1.7929 -1.5157 -0.8651
 6952TIP3    H245052  -0.048   6.651   2.091  1.3479 -0.5175 -1.8287
 6953TIP3   OH245053   2.454   5.999   1.985  0.0182 -0.4462  0.0133
 6953TIP3    H145054   2.442   5.925   2.045  1.2939 -1.3118 -0.7521
 6953TIP3    H245055   2.543   6.029   2.001 -0.0017 -0.0009 -0.6877
 6954TIP3   OH245056   6.591   4.178   1.670  0.6586  0.5487 -0.4291
 6954TIP3    H145057   6.570   4.132   1.752 -1.1701  2.0455 -0.0107
 6954TIP3    H245058   6.580   4.112   1.602 -2.0480  0.2882  0.1421
 6955TIP3   OH245059   2.116   1.278   2.625  0.3010  0.1921  0.0126
 6955TIP3    H145060   2.107   1.250   2.534 -0.7411  1.4403 -0.2886
 6955TIP3    H245061   2.176   1.352   2.622 -0.1338  0.5590  0.2689
 6956TIP3   OH245062   3.465   6.600   1.476 -0.0782 -0.6913  0.3284
 6956TIP3    H145063   3.498   6.565   1.393  0.8014 -0.2045  0.4612
 6956TIP3    H245064   3.467   6.695   1.464 -1.7686 -0.6355  0.2229
 6957TIP3   OH245065   4.448   1.610   2.157 -0.3017  0.6400  0.5172
 6957TIP3    H145066   4.411   1.695   2.182 -0.1023  0.5800  1.0367
 6957TIP3    H245067   4.376   1.548   2.170 -0.8269  0.8815 -1.0282
 6958TIP3   OH245068   1.754   2.109   2.571 -0.3932 -0.1671  0.0101
 6958TIP3    H145069   1.696   2.180   2.600 -0.9059 -0.0249 -1.2942
 6958TIP3    H245070   1.750   2.045   2.642 -1.3442  0.3040  0.4127
 6959TIP3   OH245071   4.326   1.519   1.332  0.1550 -0.4575  0.4421
 6959TIP3    H145072   4.389   1.474   1.276 -0.7779 -2.5941  1.0226
 6959TIP3    H245073   4.375   1.538   1.412  0.2666 -1.4377  0.6128
 6960TIP3   OH245074   0.488   4.681   0.955  0.4044  0.2918 -0.3953
 6960TIP3    H145075   0.498   4.672   0.860 -0.4692  0.3370 -0.4960
 6960TIP3    H245076   0.557   4.626   0.991 -0.1671 -0.8945 -1.0575
 6961TIP3   OH245077   3.033   1.076   2.594 -0.4418 -0.1627 -0.5701
 6961TIP3    H145078   2.997   1.116   2.674 -0.8183  1.1574 -1.3793
 6961TIP3    H245079   3.123   1.106   2.590 -0.5185  0.0315 -0.8187
 6962TIP3   OH245080   2.363   6.311   2.981 -0.2639  0.3277  0.4691
 6962TIP3    H145081   2.324   6.257   3.049 -2.6288  0.5553 -0.6229
 6962TIP3    H245082   2.424   6.252   2.936 -1.8476 -1.0836  0.0958
 6963TIP3   OH245083   5.163   6.959   1.550  0.3259 -0.1850  0.1939
 6963TIP3    H145084   5.179   6.931   1.641  1.0930  0.5371  0.3023
 6963TIP3    H245085   5.192   6.885   1.497  0.8267 -0.2335  0.5194
 6964TIP3   OH245086   4.382   3.989   2.441 -0.2276 -0.3362  0.2063
 6964TIP3    H145087   4.462   3.936   2.430  0.8040  1.4820 -1.6467
 6964TIP3    H245088   4.326   3.963   2.368 -0.2463  0.1895  0.0285
 6965TIP3   OH245089   7.401   5.290   2.658 -0.2160  0.1550 -0.1415
 6965TIP3    H145090   7.335   5.323   2.719 -0.5889  0.4521 -0.7011
 6965TIP3    H245091   7.383   5.197   2.650  0.2665 -0.0216  0.7314
 6966TIP3   OH245092   1.905   5.189   1.884 -0.2673 -0.2080 -0.3978
 6966TIP3    H145093   1.962   5.184   1.961  1.3420  3.2332 -1.1775
 6966TIP3    H245094   1.857   5.271   1.895  0.3280  0.6120 -3.2160
 6967TIP3   OH245095   5.161   1.237   2.791 -0.2095 -0.1737 -0.1210
 6967TIP3    H145096   5.150   1.332   2.780 -1.4630 -0.3364 -0.4492
 6967TIP3    H245097   5.133   1.220   2.881 -0.1552 -0.2468 -0.1185
 6968TIP3   OH245098   6.953   0.957   1.224  0.1516  0.5082 -0.0797
 6968TIP3    H145099   6.948   0.914   1.309  3.3567  0.2247  0.0879
 6968TIP3    H245100   6.956   0.886   1.160 -0.6517  0.6778 -0.3159
 6969TIP3   OH245101   3.856   4.803   1.165  1.1432 -0.1467  0.0695
 6969TIP3    H145102   3.773   4.811   1.117  0.5923 -0.6310  0.9160
 6969TIP3    H245103   3.921   4.842   1.107  0.5431 -0.9706 -1.2053
 6970TIP3   OH245104   0.240   0.838   1.046  0.4424  0.0244  0.3685
 6970TIP3    H145105   0.232   0.747   1.017  0.6777 -0.1732  0.9124
 6970TIP3    H245106   0.168   0.850   1.108 -0.5854  0.7013 -0.9054
 6971TIP3   OH245107   1.106   5.520   1.516  0.0355  0.1633 -0.7706
 6971TIP3    H145108   1.138   5.476   1.596  0.1540 -2.2623 -2.0567
 6971TIP3    H245109   1.047   5.588   1.548 -0.4034 -1.1381  1.3989
 6972TIP3   OH245110   2.590   2.442   1.862  0.4386 -0.1027 -0.0258
 6972TIP3    H145111   2.634   2.484   1.788 -2.5634  0.3938 -1.6809
 6972TIP3    H245112   2.545   2.367   1.823 -2.0144  0.7327  1.0565
 6973TIP3   OH245113   6.436   2.412   2.209 -0.2094 -0.0616  0.1278
 6973TIP3    H145114   6.385   2.482   2.250  0.7616  1.0330 -0.4788
 6973TIP3    H245115   6.520   2.453   2.187 -0.7794 -0.4409 -3.2842
 6974TIP3   OH245116   2.062   1.561   2.878 -0.5422 -0.0384 -0.7430
 6974TIP3    H145117   2.124   1.593   2.944 -1.1793  1.0236 -0.6384
 6974TIP3    H245118   2.039   1.473   2.907  0.6121 -0.3093 -0.5743
 6975TIP3   OH245119   5.202   5.418   0.995 -0.0577 -0.6158  0.0358
 6975TIP3    H145120   5.228   5.413   1.087 -1.8374  1.4022  0.7214
 6975TIP3    H245121   5.139   5.347   0.984  0.0714 -0.7886  0.3918
 6976TIP3   OH245122   4.657   3.703   3.327 -0.4224  0.1303 -0.1463
 6976TIP3    H145123   4.642   3.797   3.316 -0.1479  0.0853 -0.9378
 6976TIP3    H245124   4.742   3.697   3.371  0.0712  0.2307 -1.0701
 6977TIP3   OH245125   4.681   1.053   1.855  0.1286  0.1273 -0.4450
 6977TIP3    H145126   4.737   0.979   1.835 -0.9721 -1.5264  2.1591
 6977TIP3    H245127   4.592   1.017   1.854 -0.5364  1.6720 -0.1997
 6978TIP3   OH245128   7.012   1.350   2.307  0.1299  0.0443  0.1805
 6978TIP3    H145129   6.996   1.405   2.230  0.7408  0.4762  0.3556
 6978TIP3    H245130   7.088   1.389   2.349  1.9708 -2.1449 -0.8740
 6979TIP3   OH245131   2.890   1.943   1.072  0.6428 -0.0231  0.5249
 6979TIP3    H145132   2.981   1.968   1.058  0.6024  0.1894  0.6381
 6979TIP3    H245133   2.846   2.025   1.095  0.0747  0.1780 -1.1914
 6980TIP3   OH245134   5.335   6.562   2.339 -0.5818 -0.3100 -0.2546
 6980TIP3    H145135   5.350   6.632   2.404  0.0656 -0.6448 -0.0391
 6980TIP3    H245136   5.392   6.585   2.266 -1.3910  0.1234 -0.7624
 6981TIP3   OH245137   7.282   6.617   1.924 -0.0106  0.3275  0.2270
 6981TIP3    H145138   7.374   6.627   1.948  0.1393 -0.1543 -0.1392
 6981TIP3    H245139   7.268   6.682   1.855  0.1431  0.1574  0.0378
 6982TIP3   OH245140   6.491   4.023   2.351  0.4123  0.0367  0.3913
 6982TIP3    H145141   6.427   3.972   2.401  0.2446  0.0032  0.1395
 6982TIP3    H245142   6.486   4.111   2.390 -0.5610  0.3181 -0.3252
 6983TIP3   OH245143   2.430   1.266   1.979  0.0134  0.4595  0.1288
 6983TIP3    H145144   2.393   1.214   1.907  0.7320  0.6638 -0.3950
 6983TIP3    H245145   2.370   1.341   1.987  0.2159  0.7069 -0.6097
 6984TIP3   OH245146   4.971   3.881   0.718 -0.2953 -0.2578 -0.1084
 6984TIP3    H145147   4.945   3.969   0.689  3.2965  0.9820 -0.1034
 6984TIP3    H245148   5.017   3.896   0.800 -0.5354 -2.3331  0.4549
 6985TIP3   OH245149   7.487   1.457   1.371 -0.1185  0.2851  0.6435
 6985TIP3    H145150   7.423   1.500   1.314 -0.5378 -0.8575  0.2403
 6985TIP3    H245151   7.522   1.385   1.318  0.2614 -0.1434  1.4617
 6986TIP3   OH245152   6.652   0.120   0.407  0.1208  0.3670  0.2818
 6986TIP3    H145153   6.583   0.055   0.423  0.2842  0.3465  0.9628
 6986TIP3    H245154   6.611   0.186   0.352  0.0537 -0.4920 -0.7281
 6987TIP3   OH245155   5.600   7.261   2.445  0.0415  0.1357 -0.2892
 6987TIP3    H145156   5.557   7.187   2.488  0.7020 -0.1247 -0.0635
 6987TIP3    H245157   5.571   7.338   2.494  0.1140 -0.0717  0.0819
 6988TIP3   OH245158   2.042   4.528   2.238 -0.2951  0.7243 -0.1748
 6988TIP3    H145159   2.017   4.445   2.279  0.7199  0.7121  0.4388
 6988TIP3    H245160   1.961   4.560   2.197 -0.1597 -1.8803 -2.7758
 6989TIP3   OH245161   1.915   0.101   2.286 -0.6487 -0.0745  0.0426
 6989TIP3    H145162   1.885   0.157   2.215 -0.6324  0.0667  0.1453
 6989TIP3    H245163   2.010   0.115   2.290 -0.6148 -0.2720 -0.0703
 6990TIP3   OH245164   4.890   0.614   2.754 -0.1939 -0.4921 -0.0323
 6990TIP3    H145165   4.875   0.542   2.815  0.0479 -0.1595  0.4292
 6990TIP3    H245166   4.875   0.576   2.667 -0.4797 -0.9858  0.2309
 6991TIP3   OH245167   3.997   7.473   3.485  0.2327 -0.0449  0.2537
 6991TIP3    H145168   4.066   7.479   3.419  0.3368  1.3528  0.4626
 6991TIP3    H245169   4.036   7.422   3.556  0.9874  0.5418  0.2748
 6992TIP3   OH245170   6.308   7.549   1.824  0.4052 -0.2743  0.1314
 6992TIP3    H145171   6.300   7.456   1.844  1.7806 -0.6845 -1.0591
 6992TIP3    H245172   6.402   7.567   1.827  0.1945  0.9777 -0.0923
 6993TIP3   OH245173   5.878   3.748   1.716  0.2988 -0.1757  0.0447
 6993TIP3    H145174   5.902   3.840   1.726 -1.5113  0.2068  1.4326
 6993TIP3    H245175   5.787   3.744   1.745 -0.3460 -2.0530 -2.0014
 6994TIP3   OH245176   3.375   4.446   2.410 -0.4161 -1.0333 -0.2429
 6994TIP3    H145177   3.368   4.513   2.343  2.2559 -0.9014 -0.5153
 6994TIP3    H245178   3.311   4.472   2.477 -0.6601  0.7982 -1.1269
 6995TIP3   OH245179   5.489   1.579   2.424  0.5423 -0.1279  0.1731
 6995TIP3    H145180   5.499   1.542   2.337 -0.4324 -0.3865  0.1570
 6995TIP3    H245181   5.549   1.528   2.479  0.2520 -0.7956 -0.1156
 6996TIP3   OH245182   2.178   5.419   0.929 -0.0537  0.3973 -0.8097
 6996TIP3    H145183   2.239   5.492   0.926 -0.0002  0.3278 -1.8408
 6996TIP3    H245184   2.204   5.363   0.856  0.4779 -1.1297  0.4670
 6997TIP3   OH245185   4.032   5.274   2.929 -0.0502  0.4270 -0.5923
 6997TIP3    H145186   3.939   5.271   2.952  0.3539 -1.2455  1.1343
 6997TIP3    H245187   4.071   5.333   2.995  0.4497 -0.8419  0.2888
 6998TIP3   OH245188   5.606   3.057   2.129 -0.2067  0.0441  0.0345
 6998TIP3    H145189   5.595   3.072   2.223  0.9367 -1.1295  0.3843
 6998TIP3    H245190   5.532   3.001   2.105  0.2919 -0.8579  0.5571
 6999TIP3   OH245191   5.380   6.796   0.620 -0.4655  0.1960  0.3344
 6999TIP3    H145192   5.412   6.755   0.539 -0.8382  0.9061 -0.1763
 6999TIP3    H245193   5.292   6.761   0.631 -0.2210 -0.3216  0.7441
 7000TIP3   OH245194   2.419   4.482   2.693 -0.1611  0.0863  0.3182
 7000TIP3    H145195   2.499   4.516   2.733  0.4770  0.4310 -1.2074
 7000TIP3    H245196   2.369   4.560   2.670  0.2809 -0.0298 -1.1288
 7001TIP3   OH245197   5.733   4.341   2.565  0.4040 -0.5498  0.0117
 7001TIP3    H145198   5.682   4.365   2.642 -0.7275  0.6915 -1.0517
 7001TIP3    H245199   5.722   4.246   2.557 -0.1386 -0.5738  0.9033
 7002TIP3   OH245200   2.665   0.722   1.367  0.3608 -0.2065 -0.3671
 7002TIP3    H145201   2.630   0.654   1.424  0.0561  0.4012  0.1807
 7002TIP3    H245202   2.644   0.693   1.278 -1.7359  0.2405 -0.0571
 7003TIP3   OH245203   5.662   5.573   0.757  0.7528  0.5503 -0.0453
 7003TIP3    H145204   5.614   5.493   0.735 -0.1451  1.1315 -0.2636
 7003TIP3    H245205   5.661   5.576   0.852 -0.1768  0.8539 -0.0530
 7004TIP3   OH245206   0.235   4.969   2.151  0.0982 -0.4808  0.3651
 7004TIP3    H145207   0.274   4.902   2.207 -0.3309 -0.1038  1.1317
 7004TIP3    H245208   0.301   4.985   2.083  0.2186 -1.6443  0.1874
 7005TIP3   OH245209   2.715   6.901   2.086  0.1361 -0.1384  0.2803
 7005TIP3    H145210   2.721   6.852   2.004 -0.1054  1.4321 -0.7188
 7005TIP3    H245211   2.671   6.983   2.062  0.4155  0.5277  1.8973
 7006TIP3   OH245212   2.107   6.741   1.264 -0.1656  0.5305  0.3316
 7006TIP3    H145213   2.142   6.816   1.313 -0.1613  1.2985 -0.8034
 7006TIP3    H245214   2.167   6.669   1.285 -0.6662  0.5839  2.1236
 7007TIP3   OH245215   7.129   0.584   0.624  0.6155  0.0433 -0.0692
 7007TIP3    H145216   7.057   0.639   0.595  0.6774 -1.0773 -2.6274
 7007TIP3    H245217   7.109   0.497   0.590  3.0816 -0.3388 -0.7946
 7008TIP3   OH245218   3.508   6.011   2.892  0.1200 -0.7358  0.0686
 7008TIP3    H145219   3.597   6.011   2.858  0.7859 -1.4363  1.7447
 7008TIP3    H245220   3.494   5.923   2.926 -0.3307  0.0170  1.9803
 7009TIP3   OH245221   1.666   0.947   0.602  0.1894 -0.0426 -0.4457
 7009TIP3    H145222   1.651   0.860   0.565  2.3289 -0.1267 -1.2447
 7009TIP3    H245223   1.613   1.005   0.549  1.0470 -0.5204 -1.8774
 7010TIP3   OH245224   5.700   2.790   1.782  0.0494 -0.0403 -0.0346
 7010TIP3    H145225   5.767   2.737   1.739 -0.3107  0.8079 -1.7639
 7010TIP3    H245226   5.671   2.738   1.857  0.2616 -1.9375 -1.2199
 7011TIP3   OH245227   2.443   3.069   1.290  0.1854  0.6935 -0.5895
 7011TIP3    H145228   2.483   2.984   1.309  0.0017  1.0412  1.6068
 7011TIP3    H245229   2.428   3.068   1.195 -0.3769 -1.9569 -0.5453
 7012TIP3   OH245230   1.625   5.994   2.368 -0.3473 -0.1127  0.7448
 7012TIP3    H145231   1.583   6.037   2.293 -0.2136  1.3838  1.4944
 7012TIP3    H245232   1.650   5.907   2.335 -2.3380 -0.3631 -0.2671
 7013TIP3   OH245233   1.241   1.729   1.226 -0.5093 -0.2086 -0.2067
 7013TIP3    H145234   1.193   1.757   1.304 -0.8734  0.3520 -0.6254
 7013TIP3    H245235   1.175   1.725   1.157 -0.2611 -1.0905 -0.3989
 7014TIP3   OH245236   4.297   4.280   2.928 -0.6494 -0.0716  0.5266
 7014TIP3    H145237   4.232   4.323   2.984 -1.0778  0.5576 -0.4239
 7014TIP3    H245238   4.284   4.320   2.842  0.1313 -0.8779  0.0233
 7015TIP3   OH245239   3.598   6.802   1.345 -0.3250  0.2158  0.3339
 7015TIP3    H145240   3.632   6.891   1.350  0.6342 -0.2086  1.6489
 7015TIP3    H245241   3.671   6.746   1.370 -0.6130 -1.0379 -1.4159
 7016TIP3   OH245242   7.050   2.799   0.755  0.0979 -0.0677  0.4642
 7016TIP3    H145243   7.020   2.711   0.780  1.3350 -0.6888 -0.1755
 7016TIP3    H245244   7.110   2.824   0.825 -0.7312  0.5623  0.9763
 7017TIP3   OH245245   7.579   1.746   2.503  0.2132 -0.5374  0.3500
 7017TIP3    H145246   7.651   1.723   2.444 -0.2065  0.2523 -0.4810
 7017TIP3    H245247   7.559   1.664   2.548 -1.3242 -1.9751 -2.6232
 7018TIP3   OH245248   6.615   1.558   2.797  0.1136  0.5463  0.0709
 7018TIP3    H145249   6.696   1.540   2.844  0.2415  1.4999  0.2361
 7018TIP3    H245250   6.566   1.616   2.855 -0.9833 -0.5161  0.2547
 7019TIP3   OH245251   2.142   3.573   0.443 -0.5077  0.1152 -0.9370
 7019TIP3    H145252   2.216   3.623   0.479 -0.7159  1.4401 -2.2536
 7019TIP3    H245253   2.065   3.619   0.476 -0.7495 -0.8223 -0.1743
 7020TIP3   OH245254   6.067   5.205   1.193  0.1283  0.3429  0.0870
 7020TIP3    H145255   5.980   5.208   1.233  0.7223  0.7866  1.4102
 7020TIP3    H245256   6.059   5.140   1.124 -2.2576  2.9423 -2.3571
 7021TIP3   OH245257   3.159   5.719   0.696 -0.5320  0.0981  0.3155
 7021TIP3    H145258   3.241   5.684   0.665 -0.0804  0.3868  1.1394
 7021TIP3    H245259   3.148   5.801   0.648 -0.3536  0.0479  0.1888
 7022TIP3   OH245260   1.006   3.074   0.780  0.6957  0.0302 -0.1516
 7022TIP3    H145261   0.932   3.017   0.758  1.2102 -0.6979  0.0073
 7022TIP3    H245262   1.084   3.025   0.754  1.1621  0.5351  0.2604
 7023TIP3   OH245263   4.078   0.461   2.453 -0.2908  0.1132  0.3591
 7023TIP3    H145264   3.989   0.432   2.431  0.5286 -2.2739 -0.0487
 7023TIP3    H245265   4.134   0.386   2.432  1.6445  0.9579  2.1670
 7024TIP3   OH245266   6.370   0.749   2.683  0.3065  0.2663  0.2675
 7024TIP3    H145267   6.378   0.788   2.769 -1.7708  2.9158 -0.6195
 7024TIP3    H245268   6.436   0.795   2.630  0.9403 -0.6968  0.1945
 7025TIP3   OH245269   4.200   5.051   0.760 -0.4113 -0.7398 -0.0726
 7025TIP3    H145270   4.223   5.143   0.748  0.4113 -1.2246 -2.8974
 7025TIP3    H245271   4.130   5.052   0.825 -1.4051  2.0315 -1.0438
 7026TIP3   OH245272   4.476   0.021   1.683 -0.2922 -0.2482  0.5404
 7026TIP3    H145273   4.440   0.110   1.683  0.6235  0.1738  2.7768
 7026TIP3    H245274   4.523   0.014   1.766  0.5343 -2.4861 -0.0539
 7027TIP3   OH245275   1.979   1.340   2.999 -0.3358 -0.1783  0.1636
 7027TIP3    H145276   1.897   1.324   3.046 -0.6664 -0.7803 -0.6070
 7027TIP3    H245277   1.969   1.293   2.916  1.3292 -1.3808  0.6036
 7028TIP3   OH245278   6.338   1.727   2.619 -0.4962  0.1609  0.1738
 7028TIP3    H145279   6.313   1.753   2.707 -0.0592  1.3926 -0.0479
 7028TIP3    H245280   6.291   1.645   2.604 -0.2314 -0.2907  1.6972
 7029TIP3   OH245281   6.865   4.805   2.899  0.7867  0.1280  0.8783
 7029TIP3    H145282   6.904   4.826   2.814 -0.9660 -0.4606 -0.1341
 7029TIP3    H245283   6.889   4.714   2.916  0.7982  0.1189  0.8102
 7030TIP3   OH245284   3.021   1.343   2.292 -0.0803 -0.3808 -0.1853
 7030TIP3    H145285   3.106   1.299   2.294 -0.3759 -0.9400  0.2766
 7030TIP3    H245286   2.994   1.347   2.384  0.2302  1.3404 -0.1332
 7031TIP3   OH245287   1.540   1.352   1.005  0.3108  0.4279  0.3479
 7031TIP3    H145288   1.452   1.368   1.040  0.0561 -0.7429  0.2752
 7031TIP3    H245289   1.532   1.271   0.956  1.5422  0.0721  0.7068
 7032TIP3   OH245290   0.052   5.299   0.934  0.0469 -0.8306 -0.2567
 7032TIP3    H145291   0.119   5.321   0.999 -0.7375 -1.9265  0.9636
 7032TIP3    H245292   0.034   5.382   0.890 -1.1211  0.5404  2.5696
 7033TIP3   OH245293   5.438   1.079   1.911 -0.0149 -0.4161 -0.1247
 7033TIP3    H145294   5.435   1.175   1.907  1.1998 -0.2671  1.6510
 7033TIP3    H245295   5.419   1.051   1.821 -0.4915  1.4683 -0.6584
 7034TIP3   OH245296   2.242   0.176   1.526  0.5060 -0.2952 -0.0402
 7034TIP3    H145297   2.314   0.168   1.464  1.2785  1.6774  0.5048
 7034TIP3    H245298   2.281   0.152   1.610  0.2287 -0.2851  0.0913
 7035TIP3   OH245299   2.044   6.088   0.747  0.2063 -0.3800  0.1498
 7035TIP3    H145300   2.114   6.023   0.761  1.9011  1.6897  1.9991
 7035TIP3    H245301   1.964   6.036   0.746  1.5256 -2.5918  0.8076
 7036TIP3   OH245302   7.170   6.005   1.977 -0.5623  0.3664 -0.0482
 7036TIP3    H145303   7.082   5.999   2.016  0.0574 -0.8963  1.2751
 7036TIP3    H245304   7.224   6.044   2.045  0.1229  0.0857 -0.4201
 7037TIP3   OH245305   1.426   1.065   1.638  0.1037 -0.2571  0.5831
 7037TIP3    H145306   1.401   1.040   1.549 -2.7335 -0.4069  1.3191
 7037TIP3    H245307   1.520   1.053   1.640  0.3571  0.2344 -2.5343
 7038TIP3   OH245308   7.003   1.551   7.106 -0.2740 -0.6361 -0.2201
 7038TIP3    H145309   6.932   1.508   7.058  0.8114 -0.6512 -1.8896
 7038TIP3    H245310   6.990   1.645   7.088 -1.1883 -0.4243  1.3775
 7039TIP3   OH245311   3.093   4.984   2.489 -0.0716 -0.7269 -0.3955
 7039TIP3    H145312   3.016   5.023   2.449 -0.4295 -0.7759  0.2378
 7039TIP3    H245313   3.153   4.969   2.416  0.0319  0.8828 -0.6668
 7040TIP3   OH245314   5.892   6.541   0.663  0.4786  0.5287 -0.5916
 7040TIP3    H145315   5.841   6.489   0.725  0.1387  0.7888 -0.6502
 7040TIP3    H245316   5.983   6.521   0.684  0.3773  0.9439  0.2754
 7041TIP3   OH245317   4.264   2.568   1.639 -0.5114  0.4519  0.5551
 7041TIP3    H145318   4.202   2.583   1.567 -0.2888 -0.4688  0.1573
 7041TIP3    H245319   4.332   2.633   1.626  0.4053 -0.7588 -1.0894
 7042TIP3   OH245320   7.074   3.924   1.044 -0.0098  0.2186  0.0027
 7042TIP3    H145321   7.079   3.862   0.971 -0.0885 -0.1108  0.2784
 7042TIP3    H245322   7.037   3.874   1.116  1.8737 -0.0020  0.8747
 7043TIP3   OH245323   2.411   6.284   1.000  0.0148 -0.5551  0.2133
 7043TIP3    H145324   2.325   6.253   1.029  0.1548 -0.2108  1.0236
 7043TIP3    H245325   2.456   6.310   1.081  0.7794 -0.4752 -0.2274
 7044TIP3   OH245326   7.458   2.128   1.436 -0.3853 -0.3221  0.5183
 7044TIP3    H145327   7.441   2.045   1.481  0.0104 -0.9796 -0.4932
 7044TIP3    H245328   7.510   2.103   1.359  0.0816  0.9176  0.4088
 7045TIP3   OH245329   1.728   6.195   2.505 -0.3012 -0.1143  0.2149
 7045TIP3    H145330   1.746   6.135   2.578  0.4766 -1.2031 -0.8343
 7045TIP3    H245331   1.668   6.147   2.448 -1.3245  0.9382  0.3772
 7046TIP3   OH245332   5.242   0.258   1.878  0.6350 -0.0711  0.0511
 7046TIP3    H145333   5.165   0.214   1.916  0.1600  0.7091  0.0028
 7046TIP3    H245334   5.315   0.230   1.934 -0.0507  1.0464  1.5760
 7047TIP3   OH245335   5.299   4.405   0.906 -0.6393  0.3622 -0.6455
 7047TIP3    H145336   5.264   4.484   0.948  0.2955  0.5943 -0.2898
 7047TIP3    H245337   5.275   4.334   0.966  1.2336  0.7655  0.6548
 7048TIP3   OH245338   3.472   3.610   0.821  0.0309 -0.1436  0.4339
 7048TIP3    H145339   3.420   3.655   0.888  1.3304 -1.1186  2.1737
 7048TIP3    H245340   3.499   3.528   0.862  0.6330 -0.9296 -1.4170
 7049TIP3   OH245341   5.801   7.102   1.070  0.1972 -0.0667  0.1379
 7049TIP3    H145342   5.787   7.185   1.115  2.1695  0.8772 -0.9094
 7049TIP3    H245343   5.732   7.045   1.105 -0.0986  1.4428  2.2185
 7050TIP3   OH245344   6.690   7.115   0.926  0.2825  0.0161  1.0095
 7050TIP3    H145345   6.757   7.092   0.862 -0.0475  0.7549  0.3687
 7050TIP3    H245346   6.735   7.174   0.987 -0.3513  2.7944 -0.9797
 7051TIP3   OH245347   5.427   2.609   1.261  0.2169  0.1083 -0.0831
 7051TIP3    H145348   5.478   2.661   1.199  0.2984  2.0830  1.5656
 7051TIP3    H245349   5.482   2.602   1.339  0.3268 -2.7743 -0.3125
 7052TIP3   OH245350   5.900   3.139   2.071  0.0107  0.3826  0.3504
 7052TIP3    H145351   5.893   3.231   2.047  0.7332  0.4279  0.2777
 7052TIP3    H245352   5.810   3.106   2.069 -0.0583  0.4949 -2.0145
 7053TIP3   OH245353   5.352   1.836   2.800  0.4500 -0.1583 -0.0270
 7053TIP3    H145354   5.261   1.865   2.804  0.6472  1.1222 -2.6578
 7053TIP3    H245355   5.348   1.749   2.761  0.4044  1.1412 -3.2101
 7054TIP3   OH245356   0.959   3.835   2.868  0.5331  0.0423  0.2092
 7054TIP3    H145357   0.978   3.783   2.946 -2.2431 -2.5117 -0.6391
 7054TIP3    H245358   1.040   3.833   2.818  1.1437 -1.8190  1.1671
 7055TIP3   OH245359   0.834   6.806   0.561 -0.1630  0.5977 -0.6554
 7055TIP3    H145360   0.895   6.875   0.587 -0.1735 -0.2629  1.9421
 7055TIP3    H245361   0.887   6.727   0.560 -0.9831 -0.0278  0.8375
 7056TIP3   OH245362   0.894   2.473   1.959 -0.3258  0.3042 -0.4887
 7056TIP3    H145363   0.863   2.556   1.922  0.5430  0.0723 -1.8216
 7056TIP3    H245364   0.931   2.496   2.044  1.4849  1.5989 -1.5635
 7057TIP3   OH245365   2.005   6.724   1.889  0.0731 -0.1510  0.1405
 7057TIP3    H145366   2.052   6.731   1.806 -0.9861 -2.0005 -0.6854
 7057TIP3    H245367   1.919   6.763   1.871  0.9068  2.5386  1.4255
 7058TIP3   OH245368   5.991   4.127   0.425  0.3164  0.0243  0.4630
 7058TIP3    H145369   5.941   4.066   0.480  0.6945  0.2605  1.0721
 7058TIP3    H245370   5.931   4.200   0.411  0.2027 -0.0577  0.5159
 7059TIP3   OH245371   6.169   6.585   1.467 -0.1913 -0.1672  0.0603
 7059TIP3    H145372   6.169   6.679   1.482 -0.1538 -0.3198  1.0506
 7059TIP3    H245373   6.113   6.573   1.390 -0.9338  0.5694  0.4791
 7060TIP3   OH245374   0.081   1.184   1.147 -0.5222  0.2655  0.2891
 7060TIP3    H145375  -0.005   1.153   1.176 -0.4337  0.1950  0.4742
 7060TIP3    H245376   0.075   1.280   1.153  0.2502  0.2243  2.7485
 7061TIP3   OH245377   5.496   0.993   0.400  0.3140  0.2527  0.3185
 7061TIP3    H145378   5.482   1.088   0.402 -0.6697  0.1058  0.7867
 7061TIP3    H245379   5.416   0.956   0.436  0.8327 -0.7503  0.4745
 7062TIP3   OH245380   6.549   6.596   1.508 -0.5476  0.3564  0.8342
 7062TIP3    H145381   6.505   6.576   1.591  0.4580 -1.5249  0.9749
 7062TIP3    H245382   6.642   6.585   1.527 -0.2846  0.2446 -0.4492
 7063TIP3   OH245383   4.014   5.719   1.999  0.0637  0.5507  0.4459
 7063TIP3    H145384   4.103   5.687   2.013 -0.3222 -0.6909  0.2796
 7063TIP3    H245385   3.969   5.645   1.956 -0.5009  1.8770 -1.3871
 7064TIP3   OH245386   6.760   3.579   1.978 -0.1795  1.0195 -0.1618
 7064TIP3    H145387   6.831   3.522   1.950 -0.2549  1.2214 -0.7804
 7064TIP3    H245388   6.681   3.529   1.961 -0.3273  1.8229 -2.0331
 7065TIP3   OH245389   5.393   7.609   0.560 -0.1557 -0.4508 -0.3893
 7065TIP3    H145390   5.423   7.520   0.547  0.5440 -0.3911  0.6854
 7065TIP3    H245391   5.430   7.659   0.487  0.7200 -0.7546 -0.1528
 7066TIP3   OH245392   3.585   7.400   0.990 -0.0892 -0.0785  0.4636
 7066TIP3    H145393   3.548   7.355   1.066 -1.3501  0.0134 -0.0671
 7066TIP3    H245394   3.520   7.467   0.968  1.3000  1.3952  0.6511
 7067TIP3   OH245395   6.277   1.291   2.576 -0.2952 -0.2994 -0.1442
 7067TIP3    H145396   6.347   1.315   2.637 -1.2601  0.2490  0.7972
 7067TIP3    H245397   6.240   1.375   2.549 -1.3985 -0.6049  0.3701
 7068TIP3   OH245398   4.702   1.548   1.380 -0.1544  0.4024  0.8952
 7068TIP3    H145399   4.777   1.503   1.341 -1.3109  1.0832 -2.3908
 7068TIP3    H245400   4.738   1.632   1.409  0.1844  1.3483 -2.0051
 7069TIP3   OH245401   1.190   4.988   3.808  0.0474  0.0816  0.9160
 7069TIP3    H145402   1.242   5.002   3.729  0.0234  0.5696  0.9828
 7069TIP3    H245403   1.107   4.951   3.777 -0.5374  1.6352  0.5618
 7070TIP3   OH245404   6.591   3.171   2.852 -0.4021 -0.0612 -0.1791
 7070TIP3    H145405   6.628   3.089   2.885  2.5295  1.7621  1.5208
 7070TIP3    H245406   6.659   3.207   2.796 -1.5459  1.3080 -0.7381
 7071TIP3   OH245407   7.307   3.253   2.791  0.2770  0.1698 -0.3634
 7071TIP3    H145408   7.372   3.314   2.825 -0.3304 -0.0306  1.2369
 7071TIP3    H245409   7.244   3.243   2.862 -0.8125 -0.6338 -1.4091
 7072TIP3   OH245410   2.411   2.447   2.268 -0.1807 -0.1894  0.4844
 7072TIP3    H145411   2.347   2.462   2.338 -0.3485 -1.3335  0.6059
 7072TIP3    H245412   2.493   2.429   2.315 -0.8022 -3.4892  0.5945
 7073TIP3   OH245413   6.194   7.587   0.638  0.2251  0.1844 -0.3553
 7073TIP3    H145414   6.231   7.669   0.605 -1.1820  1.0694  0.1884
 7073TIP3    H245415   6.141   7.613   0.713 -0.6375 -1.1727 -0.4664
 7074TIP3   OH245416   1.773   3.869   0.831  0.3958  0.7085  0.7997
 7074TIP3    H145417   1.677   3.871   0.830  0.3535  3.8115 -0.8380
 7074TIP3    H245418   1.798   3.961   0.841  3.1934  0.1464 -0.3277
 7075TIP3   OH245419   1.598   1.753   2.837 -0.4593 -0.6031 -0.0133
 7075TIP3    H145420   1.687   1.770   2.868 -0.6715  0.5691  0.0023
 7075TIP3    H245421   1.586   1.659   2.849  1.1254 -0.9624 -0.9436
 7076TIP3   OH245422   2.372   3.264   2.845 -0.0794  0.4364  0.1393
 7076TIP3    H145423   2.286   3.270   2.803  0.9376  1.3464 -1.9324
 7076TIP3    H245424   2.395   3.171   2.839 -0.1691  0.4709 -0.9025
 7077TIP3   OH245425   6.228   1.112   2.178  0.3680 -0.3064  0.4616
 7077TIP3    H145426   6.172   1.190   2.179 -0.0799 -0.6251  0.5075
 7077TIP3    H245427   6.260   1.107   2.087 -2.7426 -2.2603 -0.6770
 7078TIP3   OH245428   0.490   0.883   0.968  0.5190 -0.3435  0.5073
 7078TIP3    H145429   0.399   0.875   0.996 -0.0169  0.5357 -0.8736
 7078TIP3    H245430   0.534   0.923   1.043 -0.9837  2.4088  0.0951
 7079TIP3   OH245431   7.640   7.484   1.270  0.1953  0.3422 -0.7477
 7079TIP3    H145432   7.565   7.427   1.289  0.2548  0.4241 -0.2618
 7079TIP3    H245433   7.717   7.430   1.289  0.2531  0.7431  0.2257
 7080TIP3   OH245434   7.107   3.431   3.415 -0.1909  0.4532  0.1848
 7080TIP3    H145435   7.156   3.390   3.343  0.2380  0.3895  0.5078
 7080TIP3    H245436   7.039   3.368   3.436  0.6583 -0.2517  0.8871
 7081TIP3   OH245437   6.201   3.325   2.228 -0.1869  0.1502 -1.5309
 7081TIP3    H145438   6.192   3.364   2.141  0.0749 -0.2846 -1.7596
 7081TIP3    H245439   6.112   3.325   2.264  0.0288  2.5539 -0.8021
 7082TIP3   OH245440   7.014   2.564   1.187  0.4286  0.4122 -0.3275
 7082TIP3    H145441   6.970   2.634   1.139  1.8432  0.5760 -1.4471
 7082TIP3    H245442   7.096   2.603   1.217 -0.0329  0.0464  1.5158
 7083TIP3   OH245443   2.032   5.159   3.188  0.6611  0.2153 -0.0376
 7083TIP3    H145444   2.077   5.077   3.206  0.9167  0.1934 -0.7542
 7083TIP3    H245445   1.979   5.175   3.266  2.3262  0.5338  1.0650
 7084TIP3   OH245446   4.499   5.340   0.949 -0.2726  0.0882 -0.1495
 7084TIP3    H145447   4.415   5.357   0.992 -2.1559 -1.6151 -2.8135
 7084TIP3    H245448   4.512   5.415   0.892  0.3104  0.5787  0.6075
 7085TIP3   OH245449   2.355   7.224   2.342 -0.2757  0.0351  0.0467
 7085TIP3    H145450   2.260   7.233   2.334 -0.5281  0.7851  2.8173
 7085TIP3    H245451   2.373   7.244   2.433  2.1336 -3.8835  0.6713
 7086TIP3   OH245452   5.318   5.597   1.783  0.2967 -0.5156 -0.6602
 7086TIP3    H145453   5.324   5.595   1.687 -3.4120  0.7860 -1.1033
 7086TIP3    H245454   5.227   5.573   1.801  1.3476 -2.5535  2.7362
 7087TIP3   OH245455   7.612   2.860   2.273 -0.3618 -0.0549  0.0185
 7087TIP3    H145456   7.520   2.832   2.276 -0.1999 -0.5883  0.3080
 7087TIP3    H245457   7.620   2.923   2.345 -0.0100 -1.6372  1.4412
 7088TIP3   OH245458   0.926   7.015   1.179  0.1390  0.1567 -0.6003
 7088TIP3    H145459   0.912   7.102   1.217 -1.3076 -0.5077  0.4669
 7088TIP3    H245460   0.840   6.990   1.144  0.1794 -1.4084  0.3369
 7089TIP3   OH245461   1.116   5.829   0.649 -0.0136 -0.0496 -0.1864
 7089TIP3    H145462   1.184   5.854   0.712 -0.1636 -0.6866  0.2335
 7089TIP3    H245463   1.040   5.808   0.703 -0.3280 -0.0249 -0.6193
 7090TIP3   OH245464   0.175   1.934   1.489  0.6937 -0.2450 -0.1493
 7090TIP3    H145465   0.261   1.965   1.462  1.2071 -0.1423  1.5066
 7090TIP3    H245466   0.114   1.980   1.432  1.6777  0.4578 -0.6679
 7091TIP3   OH245467   6.437   7.607   0.375 -0.4088 -0.1317  0.1778
 7091TIP3    H145468   6.354   7.622   0.329 -0.5127  1.6563  0.8716
 7091TIP3    H245469   6.435   7.514   0.399 -2.7761  0.1185  1.2057
 7092TIP3   OH245470   7.461   5.616   2.773 -0.1028 -0.0813 -0.3765
 7092TIP3    H145471   7.409   5.577   2.844  0.1541 -0.0527 -0.1707
 7092TIP3    H245472   7.550   5.582   2.787 -0.1674 -0.5611 -1.0387
 7093TIP3   OH245473   0.160   1.871   0.514 -0.1364 -0.4951  0.0437
 7093TIP3    H145474   0.133   1.782   0.537  0.7316 -0.8604 -0.3091
 7093TIP3    H245475   0.092   1.927   0.552 -0.3656 -1.2659  0.8039
 7094TIP3   OH245476   1.586   1.761   0.889  0.6230 -0.5106  0.2703
 7094TIP3    H145477   1.498   1.731   0.912  0.3081  1.2764  1.6377
 7094TIP3    H245478   1.644   1.710   0.947  0.4206 -0.9848  0.0636
 7095TIP3   OH245479   7.606   3.831   1.546 -0.0157  0.0938  0.0839
 7095TIP3    H145480   7.537   3.898   1.553 -1.6195 -1.5465  1.1361
 7095TIP3    H245481   7.628   3.811   1.637 -1.3584 -2.4605 -0.0600
 7096TIP3   OH245482   4.667   1.915   1.992 -0.6581  0.5276  0.2246
 7096TIP3    H145483   4.577   1.884   1.992 -0.9534  1.2682  1.9005
 7096TIP3    H245484   4.661   2.009   2.007  0.3540  0.8950 -1.3722
 7097TIP3   OH245485   7.181   7.225   0.610  0.0097  0.1202 -0.6395
 7097TIP3    H145486   7.269   7.224   0.649  0.5154 -0.4993 -1.7394
 7097TIP3    H245487   7.122   7.215   0.684  0.9236 -0.6051  0.0167
 7098TIP3   OH245488   3.281   6.047   1.128  0.0676  0.5889 -0.2601
 7098TIP3    H145489   3.345   6.042   1.057 -0.2730  0.3542 -0.5456
 7098TIP3    H245490   3.197   6.030   1.087 -0.4949  3.0954 -0.3211
 7099TIP3   OH245491   6.624   0.699   2.527 -0.0935 -0.3319  0.0757
 7099TIP3    H145492   6.622   0.631   2.594 -0.6610  0.3687  0.8040
 7099TIP3    H245493   6.625   0.652   2.444 -0.3504 -1.2221  0.5636
 7100TIP3   OH245494   1.922   0.456   1.669 -0.2024  0.3130 -0.9589
 7100TIP3    H145495   1.948   0.482   1.581  0.0720  0.3105 -0.8773
 7100TIP3    H245496   1.908   0.361   1.663 -1.1754  0.4583 -1.2490
 7101TIP3   OH245497   6.177   0.618   1.304 -0.2450  0.5638 -0.1386
 7101TIP3    H145498   6.132   0.665   1.234  1.5330 -0.3271 -1.9883
 7101TIP3    H245499   6.158   0.669   1.383 -0.5922  2.8605 -1.5895
 7102TIP3   OH245500   1.127   7.048   2.066 -0.1909  0.6817 -0.1147
 7102TIP3    H145501   1.114   7.126   2.011 -0.2440  1.1484  0.5511
 7102TIP3    H245502   1.222   7.035   2.067 -0.0424  1.7079  1.0835
 7103TIP3   OH245503   5.726   2.173   3.063 -0.6257 -0.2874  0.2227
 7103TIP3    H145504   5.703   2.259   3.098 -2.1754 -0.2840 -0.6999
 7103TIP3    H245505   5.758   2.124   3.139 -1.5145  0.5194  1.1463
 7104TIP3   OH245506   2.753   2.184   0.821  0.3920  0.4745 -0.1701
 7104TIP3    H145507   2.730   2.096   0.850  1.5997 -0.0426 -0.7085
 7104TIP3    H245508   2.725   2.188   0.730  1.8719  0.0010 -0.6881
 7105TIP3   OH245509   5.303   4.634   1.061 -0.7271 -0.6606  0.6353
 7105TIP3    H145510   5.269   4.723   1.074 -1.3317 -0.4543 -1.8083
 7105TIP3    H245511   5.342   4.611   1.145 -0.6279  1.8909  1.3963
 7106TIP3   OH245512   1.950   1.999   2.052  0.3590  0.4393  0.1319
 7106TIP3    H145513   1.905   2.016   2.135  1.1002  0.0090  0.6362
 7106TIP3    H245514   2.035   2.041   2.062  0.1691  1.0534 -0.7270
 7107TIP3   OH245515   3.589   4.793   1.061 -0.1731  0.1757 -0.4382
 7107TIP3    H145516   3.572   4.759   0.973  0.8204 -1.1658 -0.1454
 7107TIP3    H245517   3.552   4.727   1.120 -0.2604  0.7505  0.1657
 7108TIP3   OH245518   2.546   6.628   0.665 -0.3622 -0.3262  0.0786
 7108TIP3    H145519   2.519   6.537   0.655 -0.3072 -0.2304 -1.0351
 7108TIP3    H245520   2.469   6.679   0.639 -0.3161 -0.0575  0.4711
 7109TIP3   OH245521   4.263   2.800   2.092 -0.0941  0.2162  0.2316
 7109TIP3    H145522   4.288   2.885   2.128 -1.3251 -0.2036  2.2058
 7109TIP3    H245523   4.346   2.758   2.069  0.7074  0.9054  1.7267
 7110TIP3   OH245524   3.129   4.882   0.904  0.2622 -0.4582 -0.1093
 7110TIP3    H145525   3.167   4.954   0.854  0.7205 -0.3862  0.3332
 7110TIP3    H245526   3.116   4.919   0.992 -3.3183  0.4129 -0.8282
 7111TIP3   OH245527   4.150   6.486   1.908  0.2297 -0.6994  0.0378
 7111TIP3    H145528   4.230   6.524   1.946 -0.8635  1.7773 -0.0023
 7111TIP3    H245529   4.117   6.428   1.977  0.0570  1.2004  1.6437
 7112TIP3   OH245530   6.122   4.417   2.234 -0.1444 -0.4283 -0.0083
 7112TIP3    H145531   6.047   4.465   2.270 -0.0922 -0.7720  0.5749
 7112TIP3    H245532   6.198   4.472   2.254 -0.1257 -0.5774  0.3397
 7113TIP3   OH245533   2.664   0.439   2.873  0.0386  0.2504  0.1447
 7113TIP3    H145534   2.754   0.447   2.906 -0.6407 -0.6365  2.4029
 7113TIP3    H245535   2.644   0.526   2.838  1.7049  0.4947 -0.2913
 7114TIP3   OH245536   4.790   1.325   0.994  0.5866  0.0687 -0.4849
 7114TIP3    H145537   4.786   1.252   1.057  0.3020  1.5343  1.2740
 7114TIP3    H245538   4.698   1.346   0.976  0.6267  0.9821  0.2705
 7115TIP3   OH245539   6.715   0.278   2.114  0.1346  0.0831 -0.2352
 7115TIP3    H145540   6.758   0.193   2.102  0.4353  0.2429 -0.2757
 7115TIP3    H245541   6.759   0.336   2.052  1.5971  0.8904  1.4932
 7116TIP3   OH245542   3.501   4.690   0.814 -0.0061 -0.3461  0.0975
 7116TIP3    H145543   3.484   4.745   0.738  1.3488 -1.0769 -0.7863
 7116TIP3    H245544   3.418   4.644   0.831 -0.2904 -0.2520 -1.0056
 7117TIP3   OH245545   7.346   7.458   1.999 -0.1538  0.1520 -0.6510
 7117TIP3    H145546   7.261   7.499   2.009  0.2971  0.9622 -0.0442
 7117TIP3    H245547   7.327   7.365   1.985 -1.1467  0.4156 -1.1202
 7118TIP3   OH245548   1.522   3.712   2.345  0.0696 -0.3384  0.6862
 7118TIP3    H145549   1.590   3.775   2.366  1.2567 -1.9168  1.7397
 7118TIP3    H245550   1.503   3.667   2.427  1.3589 -3.3204 -0.4730
 7119TIP3   OH245551   7.048   1.626   1.151  0.4786  0.0806 -0.5600
 7119TIP3    H145552   7.002   1.598   1.072  0.4870  0.9701 -0.8908
 7119TIP3    H245553   6.984   1.677   1.199  0.0151 -1.6241  0.7312
 7120TIP3   OH245554   1.352   5.539   1.170  0.4078 -0.1559  0.4869
 7120TIP3    H145555   1.263   5.547   1.203  0.9798 -0.9894  2.3657
 7120TIP3    H245556   1.365   5.445   1.157  0.0855  0.1373 -2.6748
 7121TIP3   OH245557   4.478   2.644   1.373 -0.4948 -0.5429 -0.3492
 7121TIP3    H145558   4.391   2.671   1.344 -0.6158  0.5681  0.9824
 7121TIP3    H245559   4.537   2.678   1.305 -0.9751 -0.0857 -0.5440
 7122TIP3   OH245560   4.898   0.494   1.838 -0.5486 -0.2018 -0.0432
 7122TIP3    H145561   4.876   0.491   1.931  0.0256 -1.6522  0.0737
 7122TIP3    H245562   4.819   0.464   1.793 -0.1425 -1.5916  0.1308
 7123TIP3   OH245563   4.906   5.300   1.484  0.1332 -0.3441 -0.1331
 7123TIP3    H145564   4.942   5.343   1.561  1.0830 -1.8882  0.3403
 7123TIP3    H245565   4.982   5.274   1.433 -0.4776  0.4933 -1.5332
 7124TIP3   OH245566   2.820   5.357   2.214  0.0550 -0.3605  0.2483
 7124TIP3    H145567   2.725   5.358   2.224  0.0102 -1.6999  0.0333
 7124TIP3    H245568   2.839   5.437   2.164 -0.8472  0.3953  1.0641
 7125TIP3   OH245569   0.405   3.420   1.668 -0.5899  0.4133  0.0521
 7125TIP3    H145570   0.474   3.465   1.621 -1.0434  0.8102 -0.2485
 7125TIP3    H245571   0.439   3.410   1.757  0.7069 -1.3130 -0.5887
 7126TIP3   OH245572   3.188   6.433   2.122  0.3734  0.0706  0.7607
 7126TIP3    H145573   3.132   6.408   2.195 -4.0823  1.3967 -1.8251
 7126TIP3    H245574   3.195   6.529   2.129 -3.5973  0.8521 -2.3736
 7127TIP3   OH245575   3.259   1.909   2.057 -0.4963  0.2309  0.2738
 7127TIP3    H145576   3.351   1.917   2.084  0.2915  3.5536 -2.5442
 7127TIP3    H245577   3.210   1.958   2.122  0.3860  1.9657 -0.2877
 7128TIP3   OH245578   5.933   1.861   0.839  0.1577 -0.2037 -0.3641
 7128TIP3    H145579   6.026   1.854   0.858  0.3030  1.5385 -0.3282
 7128TIP3    H245580   5.929   1.882   0.746 -0.0629  1.8664  0.0651
 7129TIP3   OH245581   5.299   4.866   1.460 -0.1593  0.0105 -0.6168
 7129TIP3    H145582   5.214   4.886   1.498  0.1709 -1.0058  0.7718
 7129TIP3    H245583   5.355   4.940   1.486 -0.0174 -0.5220  0.6764
 7130TIP3   OH245584   5.514   1.427   2.205  0.2727  0.5841 -0.1013
 7130TIP3    H145585   5.603   1.415   2.174  0.3180  1.5218 -0.3686
 7130TIP3    H245586   5.466   1.459   2.128 -0.1914  0.4946  0.1487
 7131TIP3   OH245587   6.275   7.149   2.266 -0.4566 -0.0746  0.1906
 7131TIP3    H145588   6.327   7.098   2.204 -0.5085 -1.2120  1.0540
 7131TIP3    H245589   6.294   7.240   2.243  1.5644 -0.4480  0.1806
 7132TIP3   OH245590   3.221   7.219   1.254  0.0070 -0.4862 -0.0823
 7132TIP3    H145591   3.243   7.159   1.183  0.3088 -1.5515  0.8836
 7132TIP3    H245592   3.223   7.165   1.333 -1.6572  0.3778  0.5935
 7133TIP3   OH245593   2.253   2.693   0.892  0.0821 -0.0675 -0.2989
 7133TIP3    H145594   2.219   2.642   0.818 -0.4905  1.3998 -1.0689
 7133TIP3    H245595   2.268   2.780   0.857  1.3139  0.2572  0.9361
 7134TIP3   OH245596   4.301   3.545   2.527  0.6182  0.1872 -0.5851
 7134TIP3    H145597   4.244   3.541   2.603  0.0004  0.7207 -1.0102
 7134TIP3    H245598   4.242   3.551   2.452  1.1958 -1.1146 -1.1812
 7135TIP3   OH245599   2.184   5.165   2.743 -0.3182 -0.3393 -0.1625
 7135TIP3    H145600   2.099   5.192   2.708  0.1657  2.2364  0.4049
 7135TIP3    H245601   2.162   5.101   2.811 -1.9147  0.9090  0.5709
 7136TIP3   OH245602   1.917   2.726   2.285 -0.4278 -0.1933  0.2529
 7136TIP3    H145603   1.823   2.728   2.300 -0.2587  0.9214  1.2979
 7136TIP3    H245604   1.937   2.814   2.251  0.3434 -0.1501  0.7988
 7137TIP3   OH245605   2.915   2.933   2.103  0.2872  0.2203  0.6461
 7137TIP3    H145606   2.843   2.974   2.151 -0.8154  1.5426 -1.9095
 7137TIP3    H245607   2.976   2.903   2.170 -2.9667 -1.7141  3.0130
 7138TIP3   OH245608   4.603   0.036   2.318  0.0742  0.5222  0.1132
 7138TIP3    H145609   4.512   0.007   2.326 -0.2432  0.2991 -3.1297
 7138TIP3    H245610   4.654  -0.036   2.357 -1.0121 -1.4220 -1.8469
 7139TIP3   OH245611   6.983   7.625   0.721  0.0337  0.4482  0.1196
 7139TIP3    H145612   7.003   7.555   0.659  0.4031 -0.2625  1.0060
 7139TIP3    H245613   6.926   7.684   0.673  0.9597  0.3520 -1.1590
 7140TIP3   OH245614   2.846   3.884   3.062  0.4447  0.2118  0.3201
 7140TIP3    H145615   2.761   3.878   3.018  1.1339 -3.3983 -0.8451
 7140TIP3    H245616   2.829   3.856   3.152  0.3170  0.1599  0.2792
 7141TIP3   OH245617   3.691   1.955   1.556 -0.0934 -0.3532  0.2950
 7141TIP3    H145618   3.597   1.959   1.575  0.0697  1.0101  0.9602
 7141TIP3    H245619   3.696   1.943   1.462 -0.9544  0.9393  0.0537
 7142TIP3   OH245620   6.398   0.856   1.092  0.6103 -0.0071  0.5184
 7142TIP3    H145621   6.486   0.894   1.093  0.7646 -0.2930 -0.6358
 7142TIP3    H245622   6.345   0.915   1.147  1.0569  1.3438 -0.4524
 7143TIP3   OH245623   0.104   0.544   0.521 -0.1450 -0.7408 -0.0663
 7143TIP3    H145624   0.050   0.525   0.598 -1.1467 -0.9281 -0.7874
 7143TIP3    H245625   0.192   0.517   0.546 -0.5499 -1.2970  0.8269
 7144TIP3   OH245626   2.281   4.932   1.006  0.5997 -0.2019  0.4153
 7144TIP3    H145627   2.221   4.996   1.045  0.4750 -0.5698  0.8341
 7144TIP3    H245628   2.223   4.865   0.969  0.7564 -0.6574  0.9913
 7145TIP3   OH245629   4.980   2.476   3.229  0.2286 -0.4860  0.4982
 7145TIP3    H145630   4.949   2.400   3.278 -2.1828  0.0068 -0.1479
 7145TIP3    H245631   4.991   2.444   3.139 -0.5621 -0.1576  0.2746
 7146TIP3   OH245632   0.230   7.119   1.306 -0.0750  0.0146  0.2083
 7146TIP3    H145633   0.228   7.203   1.261  1.5809  0.8450  1.5654
 7146TIP3    H245634   0.159   7.123   1.370 -0.3498  0.1625 -0.1074
 7147TIP3   OH245635   2.677   0.138   2.981  0.0696  0.1313 -0.4841
 7147TIP3    H145636   2.727   0.163   3.059 -0.0413  0.1728 -0.4264
 7147TIP3    H245637   2.605   0.085   3.014 -2.0032  2.9265 -0.1467
 7148TIP3   OH245638   7.536   6.613   1.373 -0.1675  0.3392  0.7895
 7148TIP3    H145639   7.592   6.556   1.426 -1.5816 -0.4784  1.4663
 7148TIP3    H245640   7.468   6.555   1.339 -1.7570  1.6154  1.6399
 7149TIP3   OH245641   1.213   0.243   1.050  0.0871  0.0308  0.0056
 7149TIP3    H145642   1.130   0.261   1.094  0.5625  1.3424  0.4123
 7149TIP3    H245643   1.272   0.218   1.121  0.8891  2.2638  0.1984
 7150TIP3   OH245644   0.258   6.337   1.274  0.0197 -0.6245 -0.3667
 7150TIP3    H145645   0.305   6.360   1.354 -1.4488  0.3611  0.2546
 7150TIP3    H245646   0.317   6.363   1.204  0.4079  0.5985  0.3858
 7151TIP3   OH245647   4.096   5.047   3.429  0.1680  0.1424 -0.2805
 7151TIP3    H145648   4.041   5.046   3.351  0.0721 -0.1910 -0.2100
 7151TIP3    H245649   4.181   5.016   3.400  0.3020  0.5967 -0.3762
 7152TIP3   OH245650   1.346   1.366   1.619  0.3165 -0.0348  0.3995
 7152TIP3    H145651   1.356   1.272   1.633  2.3303 -0.3785 -2.4599
 7152TIP3    H245652   1.262   1.374   1.574  1.0933 -0.8066 -1.2837
 7153TIP3   OH245653   4.129   7.132   0.909 -0.2566  0.0853  0.4632
 7153TIP3    H145654   4.223   7.138   0.890  0.2351 -0.7506  2.3066
 7153TIP3    H245655   4.101   7.222   0.918  0.6166  0.3322  0.8521
 7154TIP3   OH245656   7.502   5.330   1.472  0.0182 -0.0508  0.9747
 7154TIP3    H145657   7.512   5.386   1.549  1.1536  4.0851 -1.8214
 7154TIP3    H245658   7.410   5.340   1.447 -0.2693 -1.1366  1.5215
 7155TIP3   OH245659   1.348   4.280   1.422  0.3106 -0.3340 -0.5323
 7155TIP3    H145660   1.367   4.225   1.347 -0.2899  0.8070 -1.5572
 7155TIP3    H245661   1.259   4.256   1.448 -0.5407  1.1356 -1.9246
 7156TIP3   OH245662   1.877   5.107   1.569 -0.6897 -0.4629 -0.0933
 7156TIP3    H145663   1.869   5.176   1.634  0.2043  0.1572 -0.6127
 7156TIP3    H245664   1.893   5.153   1.486 -0.4955 -1.2741 -0.5206
 7157TIP3   OH245665   1.179   3.989   3.310 -0.5240 -0.1656  0.2399
 7157TIP3    H145666   1.206   4.038   3.387  1.7944  0.1085 -0.6758
 7157TIP3    H245667   1.112   4.045   3.269 -0.1921  0.7295  0.8773
 7158TIP3   OH245668   1.537   2.585   3.291 -0.0414  0.3226  0.3863
 7158TIP3    H145669   1.459   2.541   3.327 -0.9296  0.7136 -0.9648
 7158TIP3    H245670   1.537   2.672   3.331  0.9374 -0.3674  2.0047
 7159TIP3   OH245671   1.405   2.573   1.505  0.7760  0.4583 -0.5571
 7159TIP3    H145672   1.401   2.585   1.600 -0.0371  1.6009 -0.7197
 7159TIP3    H245673   1.409   2.478   1.493  0.4357  0.2880  0.6081
 7160TIP3   OH245674   4.042   5.332   2.349  0.2972  0.3637 -0.1504
 7160TIP3    H145675   4.026   5.384   2.427 -1.1674 -0.8956  0.4259
 7160TIP3    H245676   3.957   5.295   2.326  0.5290  1.2449 -2.7772
 7161TIP3   OH245677   5.317   0.925   1.078  0.5243  0.3198 -0.1159
 7161TIP3    H145678   5.370   0.855   1.118  0.6049 -0.4531 -1.5312
 7161TIP3    H245679   5.232   0.919   1.122  0.8384 -0.0095  0.4647
 7162TIP3   OH245680   0.615   0.387   2.122  0.0808 -0.7885  0.3663
 7162TIP3    H145681   0.657   0.302   2.135 -1.3826 -1.4606  0.9201
 7162TIP3    H245682   0.600   0.421   2.210 -0.5230 -0.5642  0.1843
 7163TIP3   OH245683   4.022   2.746   0.435  0.9679 -0.0654  0.0287
 7163TIP3    H145684   4.051   2.793   0.513 -1.2213  0.8993  0.3627
 7163TIP3    H245685   4.025   2.812   0.365  1.1980 -0.4167 -0.2931
 7164TIP3   OH245686   4.999   4.224   0.553  0.2321 -0.3365 -0.0869
 7164TIP3    H145687   4.992   4.208   0.647  0.7151  0.8130  0.1685
 7164TIP3    H245688   4.915   4.262   0.528 -0.0106 -0.9359 -0.1875
 7165TIP3   OH245689   0.533   2.071   1.505  0.3306  0.0564 -0.0340
 7165TIP3    H145690   0.486   2.004   1.554  0.4574 -1.2300 -1.5994
 7165TIP3    H245691   0.474   2.093   1.433 -0.0426  2.2332  0.8480
 7166TIP3   OH245692   4.463   0.635   2.671 -0.0752  0.1166 -0.1043
 7166TIP3    H145693   4.496   0.675   2.591 -1.0998 -1.7850 -1.5605
 7166TIP3    H245694   4.474   0.541   2.658 -0.0535 -0.2503  2.1044
 7167TIP3   OH245695   4.523   2.001   2.290  0.4173 -0.3459  0.0847
 7167TIP3    H145696   4.458   1.941   2.256 -0.0470  0.2228 -0.0394
 7167TIP3    H245697   4.475   2.081   2.309  1.2250  0.3958 -0.8517
 7168TIP3   OH245698   4.064   0.868   2.238  0.0741 -0.0817 -0.1838
 7168TIP3    H145699   3.974   0.891   2.258  0.3340  0.7210  0.0861
 7168TIP3    H245700   4.088   0.805   2.306  0.7173  2.0717  1.7253
 7169TIP3   OH245701   0.164   1.760   1.701  0.0520 -0.5385  0.2143
 7169TIP3    H145702   0.170   1.826   1.631  1.9847 -1.1464 -0.2433
 7169TIP3    H245703   0.096   1.699   1.670 -0.0412 -0.0860 -0.5066
 7170TIP3   OH245704   6.465   5.978   0.744 -0.4165 -0.2304 -0.3697
 7170TIP3    H145705   6.540   6.035   0.757 -0.6433  0.5817 -2.2929
 7170TIP3    H245706   6.390   6.037   0.740 -0.7640 -0.7055 -1.4753
 7171TIP3   OH245707   1.962   3.769   0.992 -0.3489 -0.1837  0.0689
 7171TIP3    H145708   1.898   3.808   0.932 -1.1841 -0.0727  1.0047
 7171TIP3    H245709   2.047   3.788   0.952 -0.7264  2.2051  0.2378
 7172TIP3   OH245710   6.801   1.670   2.599  0.0514  0.1900 -0.0423
 7172TIP3    H145711   6.765   1.619   2.671 -0.8178  0.2190 -0.4421
 7172TIP3    H245712   6.733   1.667   2.531  0.2347  1.3661 -0.3066
 7173TIP3   OH245713   0.462   5.170   1.773 -0.2457  0.0426 -0.0022
 7173TIP3    H145714   0.373   5.170   1.738 -0.4122 -2.5369  0.1887
 7173TIP3    H245715   0.509   5.107   1.719  0.9519 -0.0063  1.0441
 7174TIP3   OH245716   5.541   5.774   1.860  0.3900  0.0797  0.4213
 7174TIP3    H145717   5.519   5.819   1.942 -0.4723  0.5038 -0.0241
 7174TIP3    H245718   5.461   5.727   1.837 -0.0575  1.5253 -1.1634
 7175TIP3   OH245719   0.483   5.756   2.945  0.2654 -0.2825 -0.6491
 7175TIP3    H145720   0.485   5.669   2.986 -1.2033 -0.8422 -1.6683
 7175TIP3    H245721   0.558   5.756   2.886  1.5506 -0.0056  0.9044
 7176TIP3   OH245722   1.789   0.264   3.327 -0.3636  0.3229  0.2222
 7176TIP3    H145723   1.879   0.242   3.347 -0.3558 -0.8549 -1.0255
 7176TIP3    H245724   1.794   0.351   3.286  0.2226  0.1879 -0.0015
 7177TIP3   OH245725   1.319   4.915   0.763  0.1683  0.3171  0.1919
 7177TIP3    H145726   1.281   4.998   0.736  1.6509  0.9270 -0.1161
 7177TIP3    H245727   1.388   4.939   0.825  3.3077 -0.2486 -2.7546
 7178TIP3   OH245728   7.332   3.508   3.153 -0.2047  0.1567 -0.1934
 7178TIP3    H145729   7.296   3.574   3.212  1.1858 -0.4348  1.3921
 7178TIP3    H245730   7.300   3.425   3.187 -0.1269 -0.1405 -0.8318
 7179TIP3   OH245731   3.370   7.319   1.913  0.1850 -0.2094 -0.1379
 7179TIP3    H145732   3.397   7.356   1.998  2.5347 -1.6631 -0.1400
 7179TIP3    H245733   3.374   7.393   1.852  0.2116  0.4824  0.6827
 7180TIP3   OH245734   6.842   5.401   1.241 -0.3281  0.4067 -0.2211
 7180TIP3    H145735   6.891   5.322   1.216  1.2983  0.9721  0.9328
 7180TIP3    H245736   6.756   5.390   1.202 -0.2274 -2.0558  0.0811
 7181TIP3   OH245737   4.715   5.474   2.955  0.7191  0.0370  0.0745
 7181TIP3    H145738   4.765   5.507   2.880  0.8015  0.0528  0.1359
 7181TIP3    H245739   4.736   5.381   2.958  1.0127  0.1058  0.3024
 7182TIP3   OH245740   4.265   6.860   1.067  0.3329  0.5707  0.0066
 7182TIP3    H145741   4.277   6.882   0.974 -2.7327 -0.0477 -0.6761
 7182TIP3    H245742   4.250   6.765   1.067 -1.9548  0.8750  0.7608
 7183TIP3   OH245743   5.652   2.352   1.381 -0.2409  0.3822  0.2859
 7183TIP3    H145744   5.637   2.371   1.474 -0.6149 -0.2052  0.3463
 7183TIP3    H245745   5.741   2.384   1.365  0.1895 -0.3472  1.0842
 7184TIP3   OH245746   0.144   3.321   2.598  0.2446  0.1457 -0.6527
 7184TIP3    H145747   0.177   3.271   2.523  2.2386  1.0579 -0.4459
 7184TIP3    H245748   0.201   3.296   2.670  0.0093  1.2536 -0.0725
 7185TIP3   OH245749   3.905   4.512   2.049  0.1635  0.3610  0.4896
 7185TIP3    H145750   3.841   4.442   2.055 -0.3209  0.9117  3.3353
 7185TIP3    H245751   3.964   4.497   2.123  1.0032  2.0290  0.2075
 7186TIP3   OH245752   5.817   2.323   1.775  0.3981 -0.9355 -0.6453
 7186TIP3    H145753   5.780   2.354   1.857 -0.5269 -0.9791 -1.0406
 7186TIP3    H245754   5.911   2.314   1.793  0.5379  1.0234 -0.2131
 7187TIP3   OH245755   0.090   4.156   0.916 -0.1422 -0.2165  0.3931
 7187TIP3    H145756   0.126   4.226   0.971  0.9066 -1.1484  0.9472
 7187TIP3    H245757   0.166   4.118   0.873 -0.8413 -0.2197 -0.8730
 7188TIP3   OH245758   3.212   5.932   1.724  0.1573 -0.0330 -0.1400
 7188TIP3    H145759   3.216   6.023   1.696 -0.7813  0.6252  1.7480
 7188TIP3    H245760   3.255   5.931   1.810  0.6356 -1.4812 -0.3596
 7189TIP3   OH245761   3.130   3.533   3.471 -0.1509  0.8889  0.6977
 7189TIP3    H145762   3.036   3.522   3.480 -0.2329 -1.4206 -1.6995
 7189TIP3    H245763   3.146   3.531   3.377  2.3834 -0.1160  1.0492
 7190TIP3   OH245764   0.201   4.551   0.751 -0.3985  0.9158  0.3783
 7190TIP3    H145765   0.143   4.501   0.692 -0.9252  0.3698  1.3391
 7190TIP3    H245766   0.283   4.558   0.702 -0.3424 -0.8060  0.1513
 7191TIP3   OH245767   5.430   1.258   2.611 -0.3516 -0.5539  0.1417
 7191TIP3    H145768   5.417   1.314   2.687  0.1737 -0.3895  0.1196
 7191TIP3    H245769   5.342   1.237   2.580 -0.5584 -0.2123  0.4968
 7192TIP3   OH245770   3.254   1.212   2.353 -0.2480  0.3459 -0.4416
 7192TIP3    H145771   3.339   1.187   2.318 -0.9784 -4.3836  0.5428
 7192TIP3    H245772   3.263   1.202   2.447 -1.4937  1.5365 -0.1566
 7193TIP3   OH245773   6.817   0.145   0.616 -0.4241 -0.2678  0.1383
 7193TIP3    H145774   6.763   0.121   0.540 -0.8075 -0.1289  0.3609
 7193TIP3    H245775   6.753   0.159   0.686 -0.1773  0.8957  0.1496
 7194TIP3   OH245776   2.223   6.129   2.319  0.3987  0.1444  0.3579
 7194TIP3    H145777   2.258   6.215   2.342  1.2873 -0.5207  1.6552
 7194TIP3    H245778   2.173   6.143   2.239  1.9245  1.5624 -0.4012
 7195TIP3   OH245779   6.416   6.639   3.239  0.3194  0.4038  0.0987
 7195TIP3    H145780   6.325   6.663   3.220 -0.2384 -0.1739  1.8300
 7195TIP3    H245781   6.468   6.710   3.202 -0.8862  1.1881 -0.1608
 7196TIP3   OH245782   1.544   2.833   3.354 -0.4341  0.4584 -0.0221
 7196TIP3    H145783   1.614   2.840   3.419 -0.3376  2.9396 -0.3145
 7196TIP3    H245784   1.485   2.905   3.374 -1.5452 -0.0230 -1.3931
 7197TIP3   OH245785   0.989   6.188   1.511 -0.1696 -0.0579  0.4745
 7197TIP3    H145786   1.036   6.138   1.578 -0.8237  0.6535  1.4933
 7197TIP3    H245787   0.918   6.130   1.483  0.2741 -0.4675  0.1769
 7198TIP3   OH245788   4.910   4.276   1.034 -0.0718  0.0162 -0.1535
 7198TIP3    H145789   4.891   4.215   1.105 -2.9654  2.5433  1.4996
 7198TIP3    H245790   4.972   4.338   1.071 -0.2615  0.3864 -0.4499
 7199TIP3   OH245791   3.305   2.385   1.905 -0.5570 -0.1249  0.0548
 7199TIP3    H145792   3.292   2.308   1.960  1.6893 -0.8139 -0.2674
 7199TIP3    H245793   3.299   2.351   1.816  1.2794 -0.1743 -0.0983
 7200TIP3   OH245794   6.527   4.391   3.035  0.1193 -0.0679  0.8531
 7200TIP3    H145795   6.588   4.342   2.978  1.9858  1.0574  1.7810
 7200TIP3    H245796   6.513   4.333   3.110  0.0174 -0.3561  0.6120
 7201TIP3   OH245797   5.191   0.620   2.477 -0.0184 -0.0110 -0.4432
 7201TIP3    H145798   5.154   0.565   2.546  0.2412  0.0857 -0.2264
 7201TIP3    H245799   5.123   0.687   2.461  0.2054  0.3776  0.2038
 7202TIP3   OH245800   4.491   1.272   2.060  0.2116  0.4521 -0.1674
 7202TIP3    H145801   4.530   1.332   1.996  1.7832  1.2655  1.4572
 7202TIP3    H245802   4.492   1.321   2.143  0.6661 -1.4487  1.0241
 7203TIP3   OH245803   2.431   6.701   1.448  0.3326  0.2787 -0.9210
 7203TIP3    H145804   2.447   6.720   1.355 -0.5301  0.8854 -0.9638
 7203TIP3    H245805   2.392   6.782   1.482  0.6624  0.0678 -0.0240
 7204TIP3   OH245806   4.062   1.947   2.309  0.3361  0.0313 -0.1390
 7204TIP3    H145807   4.107   2.031   2.306 -0.3809  0.4097 -0.2865
 7204TIP3    H245808   4.023   1.943   2.396 -0.4735  0.2930 -0.4864
 7205TIP3   OH245809   5.747   5.870   1.708  0.2861  0.4737  0.3622
 7205TIP3    H145810   5.701   5.849   1.790  0.4326  2.5095  1.0260
 7205TIP3    H245811   5.708   5.953   1.680  1.1007  0.4253 -1.0010
 7206TIP3   OH245812   5.301   6.442   0.786 -0.2627 -0.2639  0.4149
 7206TIP3    H145813   5.210   6.432   0.759 -0.3703  1.3207  0.0788
 7206TIP3    H245814   5.322   6.533   0.767  1.3291 -0.5292  0.7123
 7207TIP3   OH245815   0.632   5.575   0.937  0.7086  0.8307 -0.2355
 7207TIP3    H145816   0.612   5.486   0.968  0.6740  0.8131 -0.3077
 7207TIP3    H245817   0.558   5.598   0.881  0.8263  0.8147 -0.4017
 7208TIP3   OH245818   2.134   2.869   1.306  0.2884  0.7095 -0.4375
 7208TIP3    H145819   2.201   2.938   1.304  0.5206  0.4943 -0.2283
 7208TIP3    H245820   2.094   2.872   1.220  0.5213  0.8933 -0.5405
 7209TIP3   OH245821   2.189   1.775   3.309  0.3401 -0.1160  0.1604
 7209TIP3    H145822   2.170   1.827   3.231  2.1847  1.7669  0.8695
 7209TIP3    H245823   2.196   1.685   3.277 -0.8304  0.3361 -1.4877
 7210TIP3   OH245824   5.752   2.696   1.126 -0.0999  0.1588  0.0863
 7210TIP3    H145825   5.746   2.617   1.073 -1.7412  0.8526 -0.8575
 7210TIP3    H245826   5.839   2.692   1.166 -0.3615 -2.4063  0.5809
 7211TIP3   OH245827   2.001   3.298   2.101 -0.2918  0.1566 -0.0232
 7211TIP3    H145828   2.037   3.310   2.189 -0.1463  1.2038 -0.2158
 7211TIP3    H245829   2.073   3.323   2.043 -0.9562  1.2215 -0.4177
 7212TIP3   OH245830   0.456   0.137   2.921  0.3148 -0.4331 -0.1151
 7212TIP3    H145831   0.529   0.075   2.921  0.6957  0.0067 -0.6554
 7212TIP3    H245832   0.492   0.216   2.963 -0.7429 -1.2133  2.4578
 7213TIP3   OH245833   0.492   6.029   1.815  0.1755  0.4460  0.4675
 7213TIP3    H145834   0.412   5.988   1.849  0.5627  0.5250  1.5088
 7213TIP3    H245835   0.560   5.963   1.828  1.1453  1.8998  3.6809
 7214TIP3   OH245836   5.675   1.523   1.388  0.1579 -0.0126  0.2073
 7214TIP3    H145837   5.690   1.514   1.294  0.8373 -1.8620  0.4515
 7214TIP3    H245838   5.619   1.449   1.411  0.3087  0.2025  1.3282
 7215TIP3   OH245839   5.393   4.627   2.243  0.1332  0.4919 -0.0891
 7215TIP3    H145840   5.448   4.566   2.292 -2.4236 -1.7747  0.1987
 7215TIP3    H245841   5.355   4.684   2.310 -0.2377  0.0242  0.1059
 7216TIP3   OH245842   2.704   1.349   1.902 -0.4731  0.1011 -0.8413
 7216TIP3    H145843   2.620   1.326   1.942 -0.7065  0.2345 -1.2518
 7216TIP3    H245844   2.722   1.438   1.933  0.5449 -0.6548  0.9393
 7217TIP3   OH245845   1.926   3.247   1.831  0.1564 -0.4056  0.3660
 7217TIP3    H145846   1.940   3.277   1.921  0.8953  0.3718  0.0114
 7217TIP3    H245847   1.836   3.270   1.811 -0.2027 -1.1391  1.1098
 7218TIP3   OH245848   1.549   7.392   1.080 -0.1708  0.7843 -0.2359
 7218TIP3    H145849   1.537   7.327   1.149  0.5203 -0.2060 -1.0184
 7218TIP3    H245850   1.597   7.464   1.122  0.6522 -0.0090  0.2127
 7219TIP3   OH245851   6.732   0.914   2.918 -0.0194 -0.0029 -0.2767
 7219TIP3    H145852   6.638   0.908   2.936 -0.7666  1.5161 -3.0408
 7219TIP3    H245853   6.755   0.831   2.876  0.1727 -0.7751  1.2699
 7220TIP3   OH245854   4.630   5.859   2.845 -0.6222  0.5372  0.3657
 7220TIP3    H145855   4.669   5.849   2.931 -0.1956 -0.1429  0.0964
 7220TIP3    H245856   4.687   5.922   2.800  1.2434 -1.7034 -0.6231
 7221TIP3   OH245857   0.164   3.077   1.447  0.1249  0.6831  0.4603
 7221TIP3    H145858   0.154   2.981   1.442 -1.0902  0.8551 -2.4483
 7221TIP3    H245859   0.077   3.111   1.425  0.4276  2.5170  1.8441
 7222TIP3   OH245860   5.153   2.988   0.326 -0.0689  0.0166 -0.4816
 7222TIP3    H145861   5.116   2.905   0.295 -0.2806  1.5658 -5.1770
 7222TIP3    H245862   5.238   2.964   0.362 -1.8363 -2.6026  2.5249
 7223TIP3   OH245863   6.582   5.716   2.005 -0.3043 -0.2496 -0.0231
 7223TIP3    H145864   6.488   5.722   1.988 -0.2777 -1.8561 -0.9615
 7223TIP3    H245865   6.620   5.698   1.919  1.0362  1.7492  0.0971
 7224TIP3   OH245866   4.713   7.333   2.659 -0.2217  0.0619 -0.1128
 7224TIP3    H145867   4.806   7.313   2.667  0.1329  1.7871  0.4550
 7224TIP3    H245868   4.674   7.253   2.623  1.5450 -0.5030 -0.8665
 7225TIP3   OH245869   2.657   1.156   2.125 -0.2688  0.5286  0.2472
 7225TIP3    H145870   2.570   1.168   2.085 -0.2820  1.3403  0.4974
 7225TIP3    H245871   2.681   1.243   2.156  0.6651  0.3186  0.1391
 7226TIP3   OH245872   5.934   0.727   1.351  0.0291 -0.3757 -0.0941
 7226TIP3    H145873   5.880   0.786   1.299  0.9086 -0.5494 -1.2479
 7226TIP3    H245874   5.902   0.737   1.441 -0.6397  0.9190 -0.4607
 7227TIP3   OH245875   5.397   0.388   0.848 -0.1002 -0.2767  0.1276
 7227TIP3    H145876   5.376   0.408   0.757  0.3827 -2.3116 -0.4775
 7227TIP3    H245877   5.492   0.397   0.853 -0.1594  0.1913  0.5549
 7228TIP3   OH245878   1.718   0.627   1.573  0.0239  0.0820  0.3702
 7228TIP3    H145879   1.675   0.632   1.487 -0.5630 -1.2544  0.5619
 7228TIP3    H245880   1.811   0.618   1.553 -0.1178 -0.3181 -0.1362
 7229TIP3   OH245881   6.389   4.430   0.484  0.1162  0.1663  0.1917
 7229TIP3    H145882   6.395   4.456   0.576 -1.7310  0.0430  0.4049
 7229TIP3    H245883   6.326   4.357   0.485 -0.1661  0.3665 -1.2013
 7230TIP3   OH245884   2.729   2.131   1.835 -0.4108 -0.0494  0.0090
 7230TIP3    H145885   2.751   2.192   1.905 -0.1759 -1.2370  0.9997
 7230TIP3    H245886   2.742   2.044   1.873 -0.7723 -0.7332 -1.3487
 7231TIP3   OH245887   5.559   1.473   1.663 -0.1344 -0.0321  0.1608
 7231TIP3    H145888   5.603   1.398   1.621 -0.5160 -0.6559  0.8456
 7231TIP3    H245889   5.623   1.544   1.657  1.2655 -1.0738  1.6717
 7232TIP3   OH245890   7.679   6.877   2.645 -0.7027  0.5393 -0.5562
 7232TIP3    H145891   7.750   6.873   2.709 -3.4735  0.5373  2.7670
 7232TIP3    H245892   7.672   6.787   2.612 -0.2171  0.1501  0.3632
 7233TIP3   OH245893   2.253   2.617   1.328  0.1166 -0.0571  0.7210
 7233TIP3    H145894   2.210   2.703   1.324  2.0331  0.9451  0.6670
 7233TIP3    H245895   2.226   2.574   1.246 -0.5552  0.6313  0.5573
 7234TIP3   OH245896   1.113   3.273   2.387 -0.2937 -0.8134  0.0912
 7234TIP3    H145897   1.094   3.216   2.312 -0.4918  0.1602 -0.6102
 7234TIP3    H245898   1.131   3.359   2.349  3.0740 -1.0240  0.8648
 7235TIP3   OH245899   7.001   1.159   0.494  0.4137  0.5645 -0.0396
 7235TIP3    H145900   6.969   1.234   0.442 -0.7231 -0.2590 -0.5803
 7235TIP3    H245901   6.956   1.168   0.578  1.1281  1.0919  0.2894
 7236TIP3   OH245902   5.173   1.617   0.638  0.4411 -0.5139 -0.2583
 7236TIP3    H145903   5.169   1.705   0.599 -0.1197  0.5604  2.0458
 7236TIP3    H245904   5.117   1.622   0.715  0.6489 -2.8343  0.1266
 7237TIP3   OH245905   7.343   6.192   1.411 -0.0712  0.8369 -0.3486
 7237TIP3    H145906   7.426   6.161   1.449 -1.3057 -2.2883  0.1365
 7237TIP3    H245907   7.327   6.133   1.338 -0.7520  2.9362 -1.9654
 7238TIP3   OH245908   5.316   1.646   1.660  0.6030 -0.1932 -0.6741
 7238TIP3    H145909   5.385   1.588   1.629  1.7124  0.6839  0.0411
 7238TIP3    H245910   5.348   1.734   1.641  0.2219  0.2778  0.6911
 7239TIP3   OH245911   5.958   2.715   2.325 -0.5571  0.5357 -0.3146
 7239TIP3    H145912   5.962   2.749   2.414  0.5969  0.8575 -0.4729
 7239TIP3    H245913   5.867   2.727   2.299 -0.7690  0.9944  0.6059
 7240TIP3   OH245914   3.541   6.643   0.498 -0.0912  0.3570  0.2217
 7240TIP3    H145915   3.485   6.660   0.574  0.0305 -0.2286  0.4492
 7240TIP3    H245916   3.617   6.701   0.510  1.4728 -1.9160  2.2287
 7241TIP3   OH245917   0.542   1.432   2.293  0.0748  0.0411 -0.8055
 7241TIP3    H145918   0.615   1.371   2.284  0.5143  0.4386 -0.0053
 7241TIP3    H245919   0.577   1.516   2.263  0.2341  0.4307  0.4240
 7242TIP3   OH245920   4.928   3.958   1.569 -0.4304  0.1115  0.9035
 7242TIP3    H145921   4.867   3.887   1.550  0.1316  0.5703 -3.7538
 7242TIP3    H245922   5.013   3.926   1.539 -0.0809  2.4672 -0.9096
 7243TIP3   OH245923   2.431   5.955   3.277 -0.3799  0.4334 -0.1741
 7243TIP3    H145924   2.415   6.046   3.304  0.0328  1.1682 -2.2539
 7243TIP3    H245925   2.522   5.955   3.246 -0.4488 -0.6429 -0.4007
 7244TIP3   OH245926   4.066   1.028   2.582  0.2889 -0.7999 -0.1557
 7244TIP3    H145927   4.119   0.979   2.520  2.1130 -1.0613  1.4878
 7244TIP3    H245928   4.113   1.019   2.665 -0.1771  2.3263  0.5713
 7245TIP3   OH245929   0.879   1.355   0.400  0.6085 -0.2108 -0.3067
 7245TIP3    H145930   0.973   1.373   0.398  0.4377  0.9074 -3.1766
 7245TIP3    H245931   0.872   1.262   0.381  1.1380 -0.4398  0.5739
 7246TIP3   OH245932   4.404   2.378   1.141 -0.5887  0.1663  1.1312
 7246TIP3    H145933   4.359   2.457   1.112 -0.9920 -0.8486 -1.3088
 7246TIP3    H245934   4.333   2.314   1.153 -0.1051 -0.5137  0.5046
 7247TIP3   OH245935   5.238   1.196   2.381 -0.6687 -0.0192 -0.2436
 7247TIP3    H145936   5.239   1.290   2.365 -2.9088  0.3270  1.1363
 7247TIP3    H245937   5.244   1.156   2.294 -1.0069  1.4394 -0.9632
 7248TIP3   OH245938   4.153   5.318   0.666 -0.1160  0.3820 -0.3747
 7248TIP3    H145939   4.206   5.364   0.731 -0.9621  0.8854 -0.0401
 7248TIP3    H245940   4.078   5.375   0.651 -0.5350 -0.2985 -0.9035
 7249TIP3   OH245941   2.857   5.438   3.085 -0.1946 -0.1102  0.1503
 7249TIP3    H145942   2.843   5.354   3.130 -2.6747  0.0447 -0.1658
 7249TIP3    H245943   2.830   5.421   2.994  0.7732  0.6402 -0.2911
 7250TIP3   OH245944   1.415   6.194   1.749 -0.4373  0.4861 -0.6257
 7250TIP3    H145945   1.342   6.254   1.763 -2.4281 -1.1097 -3.0653
 7250TIP3    H245946   1.440   6.208   1.658 -1.2044 -2.4380 -1.4113
 7251TIP3   OH245947   3.532   3.814   2.795  0.7683 -0.0204  0.5985
 7251TIP3    H145948   3.619   3.803   2.758  0.6171 -3.8168  0.9730
 7251TIP3    H245949   3.479   3.745   2.755 -0.9365 -0.5392  3.3905
 7252TIP3   OH245950   2.479   0.889   1.903 -0.5822 -0.5047  0.3870
 7252TIP3    H145951   2.442   0.856   1.821 -0.7307 -1.5834  0.8792
 7252TIP3    H245952   2.410   0.876   1.968 -0.0570 -0.7044  0.9119
 7253TIP3   OH245953   7.026   0.744   1.012 -0.9377  0.1068 -0.1529
 7253TIP3    H145954   7.017   0.817   0.951 -1.4262  1.2807  1.2552
 7253TIP3    H245955   7.112   0.758   1.053 -1.1933  0.1169  0.3881
 7254TIP3   OH245956   1.585   0.013   0.648  0.1979 -0.3490 -0.3504
 7254TIP3    H145957   1.546  -0.033   0.723 -1.0098 -1.0936 -1.3898
 7254TIP3    H245958   1.526   0.087   0.633  0.1570 -0.4788 -0.8507
 7255TIP3   OH245959   0.183   7.270   2.296  0.0056 -0.3600 -0.0211
 7255TIP3    H145960   0.238   7.201   2.258  0.1423 -1.9300  2.7225
 7255TIP3    H245961   0.152   7.232   2.378 -3.1137  1.4618 -0.2183
 7256TIP3   OH245962   1.130   4.364   0.731 -0.2555  0.5342 -0.2119
 7256TIP3    H145963   1.166   4.349   0.644 -2.0374 -0.0699 -0.8971
 7256TIP3    H245964   1.172   4.445   0.761  0.1399  0.9369 -1.7723
 7257TIP3   OH245965   2.112   1.170   1.198 -0.0600  0.2582  0.4172
 7257TIP3    H145966   2.170   1.209   1.263 -1.3497  0.4594  1.4720
 7257TIP3    H245967   2.143   1.080   1.190  0.8289  0.5506  0.4422
 7258TIP3   OH245968   6.761   1.783   2.261 -0.4513  0.1771 -0.1451
 7258TIP3    H145969   6.688   1.787   2.322 -1.6993  0.2457 -1.5917
 7258TIP3    H245970   6.772   1.690   2.243  0.2426  0.1152  0.5216
 7259TIP3   OH245971   5.358   6.019   1.944 -0.3548  0.1638 -0.3025
 7259TIP3    H145972   5.391   6.003   1.855  0.3271  2.9232 -0.6394
 7259TIP3    H245973   5.409   5.958   1.998 -0.1496 -0.9591 -1.6656
 7260TIP3   OH245974   2.849   3.223   1.263  0.7884 -0.1930 -0.0500
 7260TIP3    H145975   2.796   3.204   1.186 -0.2814 -0.3429  0.7023
 7260TIP3    H245976   2.939   3.212   1.233  0.4346  0.7904 -1.5387
 7261TIP3   OH245977   3.753   3.593   2.273 -0.2195 -0.7514  0.2317
 7261TIP3    H145978   3.840   3.568   2.241 -0.1188 -0.9231  0.6412
 7261TIP3    H245979   3.727   3.522   2.331  0.1962  0.2239  1.6516
 7262TIP3   OH245980   6.788   6.942   2.081  0.5636  0.2844 -0.0280
 7262TIP3    H145981   6.759   7.030   2.059  1.8497  0.7978  0.2297
 7262TIP3    H245982   6.787   6.939   2.177  1.4400  0.3579 -0.0064
 7263TIP3   OH245983   3.148   5.848   2.213  0.0952  0.6912  0.5286
 7263TIP3    H145984   3.214   5.869   2.278  0.8238  0.1897 -0.0386
 7263TIP3    H245985   3.097   5.929   2.203  1.4053  1.4824  0.0561
 7264TIP3   OH245986   0.293   4.061   1.475  0.3446 -0.4740 -0.3796
 7264TIP3    H145987   0.282   4.072   1.569 -0.2095  0.5307 -0.5455
 7264TIP3    H245988   0.212   4.094   1.437  0.7873 -0.3365 -1.2442
 7265TIP3   OH245989   1.312   3.604   7.841  0.7054  0.3808 -0.1345
 7265TIP3    H145990   1.383   3.638   7.787  0.0017 -0.6542 -1.8051
 7265TIP3    H245991   1.233   3.644   7.804  0.1330 -0.9499 -0.4033
 7266TIP3   OH245992   6.022   2.054   2.399  0.0432 -0.0328  0.3541
 7266TIP3    H145993   6.027   2.044   2.494 -0.1229  0.4312  0.4161
 7266TIP3    H245994   6.035   1.966   2.364  1.4030 -0.0074  0.7573
 7267TIP3   OH245995   6.456   7.256   0.933 -0.0982 -0.4712  0.1190
 7267TIP3    H145996   6.425   7.297   0.853 -0.9766 -2.2159 -0.4860
 7267TIP3    H245997   6.531   7.204   0.906  0.2950 -0.1873  0.6500
 7268TIP3   OH245998   7.168   4.383   2.172 -0.6210  0.1139 -1.0524
 7268TIP3    H145999   7.082   4.355   2.140 -0.9631  0.2930 -0.3013
 7268TIP3    H246000   7.168   4.360   2.265 -1.0922  2.9119 -0.2461
 7269TIP3   OH246001   5.837   1.538   3.033 -0.3062  0.0154 -0.3193
 7269TIP3    H146002   5.819   1.618   3.082  0.8977  0.1195 -0.0174
 7269TIP3    H246003   5.867   1.475   3.099 -1.0039 -0.6220 -0.5889
 7270TIP3   OH246004   5.366   5.023   1.137 -0.0448  0.6151  0.2229
 7270TIP3    H146005   5.280   5.051   1.109 -0.1806  0.1029  0.1105
 7270TIP3    H246006   5.426   5.091   1.106 -0.4878  1.3708  0.9864
 7271TIP3   OH246007   2.517   6.345   2.623  0.0176 -0.6290 -0.3341
 7271TIP3    H146008   2.533   6.305   2.708 -0.9038  1.6928  1.0435
 7271TIP3    H246009   2.604   6.368   2.590  0.3213 -0.2325  0.7037
 7272TIP3   OH246010   0.813   3.696   3.135  0.0792  0.3231 -0.0943
 7272TIP3    H146011   0.906   3.717   3.142  0.1322  0.4123 -0.9614
 7272TIP3    H246012   0.769   3.781   3.130 -0.0447  0.2802  0.2397
 7273TIP3   OH246013   0.973   6.026   1.900  0.3163 -0.7638  0.1495
 7273TIP3    H146014   0.903   5.961   1.895 -0.8134  0.2965  1.2850
 7273TIP3    H246015   0.931   6.108   1.874  0.8585  0.0788  1.7921
 7274TIP3   OH246016   1.051   5.479   0.826 -0.3255 -0.3552  0.7314
 7274TIP3    H146017   1.017   5.568   0.823 -0.8618 -0.5543 -2.3986
 7274TIP3    H246018   0.981   5.425   0.790 -0.3860 -2.2654  3.4141
 7275TIP3   OH246019   1.609   2.515   0.879  0.1740 -0.6673 -0.7091
 7275TIP3    H146020   1.587   2.449   0.813 -3.5731 -0.3530 -0.0233
 7275TIP3    H246021   1.607   2.468   0.962 -1.8000  0.0677 -0.2873
 7276TIP3   OH246022   7.637   1.659   1.991  1.0676 -0.1397  0.3333
 7276TIP3    H146023   7.625   1.600   2.066  0.7687 -1.3587 -0.6285
 7276TIP3    H246024   7.563   1.639   1.934  1.4612  0.5479 -0.4235
 7277TIP3   OH246025   4.088   3.156   0.680  0.1729  0.4538 -0.5627
 7277TIP3    H146026   4.166   3.207   0.703 -0.0175  0.3177  0.4677
 7277TIP3    H246027   4.027   3.220   0.642  0.2680  0.8324 -0.0890
 7278TIP3   OH246028   2.126   0.675   1.710 -0.2487  0.2287  0.3862
 7278TIP3    H146029   2.098   0.735   1.779  2.6037 -0.9506  2.7900
 7278TIP3    H246030   2.103   0.588   1.742  1.4539 -0.3769  0.0787
 7279TIP3   OH246031   2.871   0.793   0.635 -0.0898  0.8028 -0.1490
 7279TIP3    H146032   2.778   0.771   0.644 -0.8633  3.3244 -1.1962
 7279TIP3    H246033   2.893   0.839   0.716  0.2688  0.3008  0.0526
 7280TIP3   OH246034   3.097   6.967   1.429 -0.0740 -0.0239  0.2580
 7280TIP3    H146035   3.176   6.960   1.482  0.6933  2.8692 -0.3230
 7280TIP3    H246036   3.085   6.879   1.392  2.7051 -0.6371  0.5885
 7281TIP3   OH246037   5.403   5.234   2.643 -0.1283  0.2616 -0.3939
 7281TIP3    H146038   5.440   5.239   2.731 -0.4656 -0.3014 -0.2109
 7281TIP3    H246039   5.343   5.159   2.647  0.0423  0.0766 -1.1726
 7282TIP3   OH246040   3.059   6.920   0.965 -0.0242  0.6549  0.4638
 7282TIP3    H146041   3.130   6.975   0.999 -0.6325  2.1442 -0.5263
 7282TIP3    H246042   2.982   6.946   1.017 -0.1806  0.2321  0.4451
 7283TIP3   OH246043   3.101   3.973   2.948 -0.4427  0.3168  0.5131
 7283TIP3    H146044   3.096   4.069   2.948 -0.1364  0.3358  1.1847
 7283TIP3    H246045   3.017   3.945   2.984 -0.0475  0.3723  1.5115
 7284TIP3   OH246046   7.141   5.871   1.410  0.3000  0.1000 -0.5189
 7284TIP3    H146047   7.106   5.939   1.468  1.3174  0.2018  0.0040
 7284TIP3    H246048   7.159   5.797   1.469 -1.1765 -0.7903 -1.1455
 7285TIP3   OH246049   1.328   4.160   1.902 -0.1811 -0.0776  0.0239
 7285TIP3    H146050   1.396   4.187   1.964  0.4257 -1.0837 -0.1755
 7285TIP3    H246051   1.374   4.105   1.839 -1.3766 -1.7815  0.5646
 7286TIP3   OH246052   3.751   4.287   1.342 -0.2775 -0.1014 -0.1977
 7286TIP3    H146053   3.831   4.257   1.297  1.0057 -1.5092  2.7059
 7286TIP3    H246054   3.771   4.377   1.369  0.7488 -0.6780  1.1443
 7287TIP3   OH246055   0.579   2.555   2.713 -0.1141 -0.3749  0.1564
 7287TIP3    H146056   0.532   2.608   2.777  0.4464 -0.4370  0.6334
 7287TIP3    H246057   0.615   2.482   2.764  0.5932 -0.2649 -0.1700
 7288TIP3   OH246058   4.688   1.803   2.396 -0.5402 -0.5698  0.3122
 7288TIP3    H146059   4.632   1.853   2.336 -0.8157 -1.6784 -0.3773
 7288TIP3    H246060   4.656   1.713   2.389 -0.6646 -0.7138  2.2401
 7289TIP3   OH246061   2.132   1.189   2.352 -0.5556  0.1453 -0.4255
 7289TIP3    H146062   2.119   1.138   2.272 -0.6539 -0.3822 -0.0769
 7289TIP3    H246063   2.204   1.249   2.331  1.0437 -1.6061 -0.1618
 7290TIP3   OH246064   6.892   0.666   3.415  0.1394  0.2404 -0.5349
 7290TIP3    H146065   6.801   0.649   3.392  0.2558  1.0857 -1.7323
 7290TIP3    H246066   6.943   0.619   3.349  0.6884 -2.3705  1.5955
 7291TIP3   OH246067   3.680   7.160   0.670 -0.0885  0.0891 -0.0551
 7291TIP3    H146068   3.748   7.149   0.736  0.2255 -0.8689 -0.5142
 7291TIP3    H246069   3.702   7.095   0.603 -1.2345  0.0258 -0.3850
 7292TIP3   OH246070   6.823   0.059   2.801 -0.1378  0.0215  0.2669
 7292TIP3    H146071   6.828  -0.025   2.845 -0.6807  0.0328  0.3532
 7292TIP3    H246072   6.730   0.071   2.781 -0.4218  1.6134  2.2527
 7293TIP3   OH246073   6.794   1.822   0.604 -0.1891  0.2455  0.2699
 7293TIP3    H146074   6.834   1.827   0.517  1.2453 -2.5013  0.6528
 7293TIP3    H246075   6.734   1.897   0.608  0.3149  0.9227 -2.7428
 7294TIP3   OH246076   6.927   5.809   2.303  0.0794 -0.6462 -0.0634
 7294TIP3    H146077   7.005   5.780   2.349 -0.3339  0.1284  1.1925
 7294TIP3    H246078   6.910   5.742   2.238  1.4403 -1.1236  0.0585
 7295TIP3   OH246079   5.436   5.569   3.387 -0.1357  0.3155  0.0375
 7295TIP3    H146080   5.392   5.652   3.369  0.4412  0.3168 -1.4060
 7295TIP3    H246081   5.508   5.593   3.445 -1.2678  0.4811  1.4468
 7296TIP3   OH246082   5.025   0.835   2.391  0.0233 -0.3944 -0.0191
 7296TIP3    H146083   4.940   0.876   2.409  0.2135 -0.8392  2.1033
 7296TIP3    H246084   5.020   0.810   2.299 -1.4828  1.1125 -0.4092
 7297TIP3   OH246085   3.389   5.768   2.107  0.3766  0.0688 -0.3363
 7297TIP3    H146086   3.351   5.856   2.105 -0.3886 -0.2183  0.7385
 7297TIP3    H246087   3.441   5.762   2.027  3.2646  2.7312  1.0957
 7298TIP3   OH246088   6.516   0.676   1.314  0.6082 -0.1499 -0.3521
 7298TIP3    H146089   6.438   0.659   1.260  0.7194  0.8205 -0.8560
 7298TIP3    H246090   6.587   0.686   1.250  1.6145 -3.0977  0.1816
 7299TIP3   OH246091   3.844   6.781   2.000  0.2225 -0.3180 -0.4653
 7299TIP3    H146092   3.858   6.819   2.087 -1.7077  0.0171 -0.2719
 7299TIP3    H246093   3.833   6.856   1.942 -1.4914 -0.5335 -0.4505
 7300TIP3   OH246094   6.007   0.436   1.453 -0.0262 -0.6477 -0.6475
 7300TIP3    H146095   5.973   0.518   1.417  2.5673  0.3357 -1.0470
 7300TIP3    H246096   6.083   0.462   1.505  0.7752 -2.7739 -0.6488
 7301TIP3   OH246097   6.341   4.033   0.776  0.0130 -0.1342  0.2046
 7301TIP3    H146098   6.426   4.076   0.787  0.1397 -0.6148  1.1649
 7301TIP3    H246099   6.358   3.964   0.711  0.4926 -0.5862  0.8007
 7302TIP3   OH246100   0.208   2.491   3.145  0.4365  0.0825 -0.4900
 7302TIP3    H146101   0.282   2.462   3.091  1.0967  0.4129  0.2140
 7302TIP3    H246102   0.162   2.554   3.091  1.5499  1.0074 -0.3902
 7303TIP3   OH246103   1.858   0.527   2.151 -0.2569  0.2087  0.3042
 7303TIP3    H146104   1.797   0.528   2.077 -1.8568 -1.9151  1.5092
 7303TIP3    H246105   1.820   0.466   2.214  3.2084 -1.4410  1.0461
 7304TIP3   OH246106   5.449   7.577   1.336 -0.3235 -0.3220  0.4638
 7304TIP3    H146107   5.421   7.486   1.345  0.4917 -0.7140 -0.7301
 7304TIP3    H246108   5.382   7.628   1.381 -1.8095 -1.3671 -0.5068
 7305TIP3   OH246109   2.681   2.695   2.122 -0.5161 -0.3242  0.0919
 7305TIP3    H146110   2.628   2.652   2.055 -0.9709 -0.1325  0.3199
 7305TIP3    H246111   2.738   2.626   2.156 -2.5547 -1.2938  1.8050
 7306TIP3   OH246112   7.190   6.973   0.465  0.7072  0.5349 -0.0595
 7306TIP3    H146113   7.234   6.937   0.542  0.6367  1.3476  0.3819
 7306TIP3    H246114   7.237   7.055   0.447  1.2643 -0.0533 -1.4035
 7307TIP3   OH246115   5.738   1.964   0.998  0.0179  0.1659 -0.1428
 7307TIP3    H146116   5.790   2.044   0.992  1.6601 -0.6376  1.9440
 7307TIP3    H246117   5.776   1.906   0.931  0.0417  0.4855 -0.4107
 7308TIP3   OH246118   3.097   7.492   2.067 -0.3840  0.0277  0.0105
 7308TIP3    H146119   3.027   7.426   2.063 -1.4353  1.1403 -1.3562
 7308TIP3    H246120   3.051   7.573   2.090  0.8586  0.3353  1.5090
 7309TIP3   OH246121   1.435   4.857   0.493 -0.0254  0.0743  0.1925
 7309TIP3    H146122   1.363   4.873   0.554  0.3903 -0.6492  0.8814
 7309TIP3    H246123   1.403   4.893   0.410 -0.3365  1.7077  0.9606
 7310TIP3   OH246124   2.047   4.491   0.484  0.3086 -0.3388  0.2638
 7310TIP3    H146125   2.058   4.574   0.531  2.5307 -0.9581  0.9689
 7310TIP3    H246126   2.072   4.510   0.394 -0.6238  0.0647  0.0780
 7311TIP3   OH246127   6.798   2.051   2.471 -0.1827 -0.4189 -0.3059
 7311TIP3    H146128   6.814   2.088   2.558 -0.6563  0.0014 -0.3890
 7311TIP3    H246129   6.847   1.969   2.470  1.8477  0.7526 -0.5356
 7312TIP3   OH246130   1.397   3.390   2.776  0.1097 -0.5579  0.3723
 7312TIP3    H146131   1.420   3.335   2.850 -1.4564 -1.5993  0.1343
 7312TIP3    H246132   1.415   3.336   2.699  2.6163  0.8418 -0.1323
 7313TIP3   OH246133   2.205   2.471   1.596 -0.1458  0.1589  0.6142
 7313TIP3    H146134   2.217   2.538   1.664 -0.3819  0.8148  0.0246
 7313TIP3    H246135   2.218   2.518   1.514 -0.8091 -0.4129  0.1684
 7314TIP3   OH246136   5.261   0.966   1.470  0.1953  0.2289 -0.0867
 7314TIP3    H146137   5.332   0.901   1.473 -0.9114 -1.1345 -1.5361
 7314TIP3    H246138   5.276   1.020   1.548  2.1519 -0.7021  0.2748
 7315TIP3   OH246139   3.161   2.860   2.884  0.1134 -0.5915 -0.1829
 7315TIP3    H146140   3.223   2.795   2.916  0.2089 -0.4716 -0.1217
 7315TIP3    H246141   3.125   2.900   2.963 -0.3477 -0.9432 -0.2105
 7316TIP3   OH246142   1.753   4.429   2.534 -0.0540  0.5643 -0.0304
 7316TIP3    H146143   1.710   4.470   2.609 -1.1668  2.3876 -1.6058
 7316TIP3    H246144   1.689   4.433   2.464  0.6613 -1.8659 -0.9116
 7317TIP3   OH246145   0.028   5.506   2.879  0.2382 -0.0228  0.0145
 7317TIP3    H146146   0.026   5.564   2.954 -0.2863  0.0913 -0.0835
 7317TIP3    H246147  -0.029   5.433   2.903  0.2658 -0.1088 -0.1748
 7318TIP3   OH246148   2.427   3.144   2.112 -0.1870 -0.2779 -0.2858
 7318TIP3    H146149   2.425   3.082   2.039 -2.1515  0.1289 -0.6372
 7318TIP3    H246150   2.382   3.099   2.183  2.4507 -1.0068  1.0476
 7319TIP3   OH246151   5.064   3.631   1.170 -0.0531 -1.1744  0.0695
 7319TIP3    H146152   5.027   3.591   1.092  1.1831 -0.9123 -0.6925
 7319TIP3    H246153   5.157   3.608   1.167  0.6484  1.3403 -0.2014
 7320TIP3   OH246154   2.229   4.702   2.610  0.0895  0.3092  0.6203
 7320TIP3    H146155   2.150   4.734   2.655  0.1587 -0.2482  1.1525
 7320TIP3    H246156   2.278   4.781   2.589  0.5141  0.5578  2.3992
 7321TIP3   OH246157   3.117   1.988   1.597 -0.5778  0.2796 -0.6043
 7321TIP3    H146158   3.042   1.930   1.583 -1.2751  1.4269 -1.8948
 7321TIP3    H246159   3.190   1.943   1.552 -0.3879 -0.9580  0.8684
 7322TIP3   OH246160   4.209   3.088   2.109 -0.1195  0.2436  0.0140
 7322TIP3    H146161   4.220   3.066   2.016  0.4333 -1.2489  0.4160
 7322TIP3    H246162   4.165   3.173   2.108 -0.1020  0.2614 -1.6153
 7323TIP3   OH246163   5.986   6.815   1.777 -0.5383 -0.1033  0.2009
 7323TIP3    H146164   6.059   6.762   1.810 -0.5923  0.4428  1.2445
 7323TIP3    H246165   5.939   6.757   1.717 -1.0489 -1.5327  1.8790
 7324TIP3   OH246166   0.801   2.007   1.453 -0.3428 -0.1957  0.0524
 7324TIP3    H146167   0.853   2.079   1.489 -0.7377  0.5166 -0.7896
 7324TIP3    H246168   0.711   2.026   1.479 -0.7217  0.6295 -1.7384
 7325TIP3   OH246169   2.762   3.768   1.057 -0.3094  0.3956  0.5017
 7325TIP3    H146170   2.785   3.856   1.025  1.1296  0.6575  2.0852
 7325TIP3    H246171   2.845   3.721   1.059 -0.1025  0.5695  4.1330
 7326TIP3   OH246172   5.628   6.146   2.821 -0.2348  0.1572 -0.1150
 7326TIP3    H146173   5.697   6.141   2.887  0.8947 -0.6399 -1.2997
 7326TIP3    H246174   5.621   6.239   2.800 -1.1819  0.5191  1.6771
 7327TIP3   OH246175   3.067   2.536   0.864 -0.7252 -0.3341 -0.0419
 7327TIP3    H146176   2.991   2.590   0.886  0.5410  1.0333  1.2577
 7327TIP3    H246177   3.036   2.446   0.872 -2.2109  0.1857  0.3830
 7328TIP3   OH246178   3.723   6.013   1.574 -0.0764  0.5551 -0.2561
 7328TIP3    H146179   3.686   5.940   1.624  0.7790  0.9282  0.9568
 7328TIP3    H246180   3.671   6.015   1.493 -1.1939 -0.3510  0.4079
 7329TIP3   OH246181   5.680   6.963   2.676 -0.0804 -0.4488  0.0140
 7329TIP3    H146182   5.682   6.867   2.673  1.4131 -0.4609  0.6376
 7329TIP3    H246183   5.732   6.990   2.600 -1.6402 -0.0748 -0.9799
 7330TIP3   OH246184   4.726   2.579   1.629 -0.2030 -0.4541  0.2127
 7330TIP3    H146185   4.674   2.656   1.607  0.9042  0.2363 -0.0540
 7330TIP3    H246186   4.661   2.509   1.638 -1.3250  0.6699  1.3572
 7331TIP3   OH246187   1.751   4.392   0.554  0.1199 -0.0915  0.0474
 7331TIP3    H146188   1.838   4.401   0.515 -0.5056 -0.8093 -1.6075
 7331TIP3    H246189   1.710   4.478   0.543  0.6482  0.2997  0.9856
 7332TIP3   OH246190   3.945   2.125   1.294 -0.4675  0.0120  0.4211
 7332TIP3    H146191   4.011   2.145   1.361 -1.3515 -0.9311  1.6267
 7332TIP3    H246192   3.986   2.060   1.238 -0.8214 -1.7208  2.0594
 7333TIP3   OH246193   1.342   1.047   1.380  0.1042 -0.0526 -0.0385
 7333TIP3    H146194   1.429   1.076   1.354  0.0171 -0.4055 -0.7420
 7333TIP3    H246195   1.293   1.042   1.298 -0.9719  1.4088  0.4665
 7334TIP3   OH246196   3.779   3.935   2.587  0.4224  0.5884 -0.6210
 7334TIP3    H146197   3.776   4.030   2.579  0.4311  0.7170  0.7016
 7334TIP3    H246198   3.717   3.903   2.522 -0.5673  1.5629 -0.1791
 7335TIP3   OH246199   0.700   5.156   3.402 -0.2606 -0.1345  0.0085
 7335TIP3    H146200   0.775   5.145   3.460 -1.4954 -1.0226  1.5084
 7335TIP3    H246201   0.674   5.066   3.380 -0.0285  0.1707 -1.7159
 7336TIP3   OH246202   4.999   3.178   0.439  0.2795  0.4732 -0.1451
 7336TIP3    H146203   5.053   3.220   0.506  0.6684 -0.4598  0.1369
 7336TIP3    H246204   5.059   3.121   0.391  0.2898  2.0580 -2.1478
 7337TIP3   OH246205   2.502   4.504   2.328 -0.2484  0.1303 -0.5036
 7337TIP3    H146206   2.426   4.499   2.271  0.1854 -0.9028 -1.0234
 7337TIP3    H246207   2.506   4.418   2.370  1.4531 -0.3717 -1.5869
 7338TIP3   OH246208   4.657   2.841   1.254  0.5479 -0.1362 -0.2249
 7338TIP3    H146209   4.712   2.865   1.328  0.5293 -1.3382  0.2062
 7338TIP3    H246210   4.705   2.872   1.177  0.8253  0.6438  0.2526
 7339TIP3   OH246211   2.755   6.433   2.542  0.1728 -0.0321  0.0986
 7339TIP3    H146212   2.840   6.450   2.581  0.7379 -0.2936 -0.9923
 7339TIP3    H246213   2.747   6.496   2.470 -0.1251 -0.6375 -0.4158
 7340TIP3   OH246214   6.278   7.303   1.955  0.5363  0.4450  0.5448
 7340TIP3    H146215   6.284   7.350   2.038 -1.2583 -1.2602  1.7257
 7340TIP3    H246216   6.332   7.225   1.968  1.0542  0.6513 -0.2896
 7341TIP3   OH246217   2.270   7.463   2.546  0.4814 -0.4344  0.5584
 7341TIP3    H146218   2.196   7.518   2.520  0.9800 -1.2129 -3.1366
 7341TIP3    H246219   2.231   7.387   2.588 -0.6532  0.1208  0.5340
 7342TIP3   OH246220   0.778   5.918   1.429  0.2045 -0.2621  0.0515
 7342TIP3    H146221   0.705   5.864   1.398 -0.2034  0.9546 -1.2369
 7342TIP3    H246222   0.737   5.999   1.458  1.0409  0.6021 -1.0718
 7343TIP3   OH246223   1.799   5.922   0.759 -0.0193 -0.1165  0.7152
 7343TIP3    H146224   1.705   5.917   0.776  0.0825 -0.0186  1.3285
 7343TIP3    H246225   1.838   5.862   0.823  0.0981 -3.0464 -1.8684
 7344TIP3   OH246226   4.776   3.659   1.215  0.0752  0.4456 -0.6994
 7344TIP3    H146227   4.871   3.651   1.205  0.1958  1.5169 -0.5187
 7344TIP3    H246228   4.765   3.708   1.297 -0.7442 -3.1464  1.5744
 7345TIP3   OH246229   3.353   3.542   0.364  0.2981 -0.0184 -0.5098
 7345TIP3    H146230   3.436   3.559   0.319  0.7019 -1.4868 -0.3982
 7345TIP3    H246231   3.366   3.579   0.452  1.2426 -1.0819 -0.1687
 7346TIP3   OH246232   6.729   2.178   1.896  0.1018  0.5640 -0.1648
 7346TIP3    H146233   6.648   2.229   1.896 -1.2559 -1.4533  0.4709
 7346TIP3    H246234   6.756   2.174   1.987  0.1863  0.1591 -0.2036
 7347TIP3   OH246235   2.028   2.119   2.632  0.1171 -0.5673 -0.6871
 7347TIP3    H146236   2.076   2.064   2.570  0.3160 -0.7050 -0.4134
 7347TIP3    H246237   1.942   2.130   2.593  1.5323  3.1389 -3.3846
 7348TIP3   OH246238   3.626   6.172   3.702 -0.6933 -0.1070 -0.0190
 7348TIP3    H146239   3.564   6.244   3.714 -0.3352  0.0683  0.8623
 7348TIP3    H246240   3.709   6.215   3.679 -0.6621 -0.2840 -0.2467
 7349TIP3   OH246241   4.547   6.462   1.099  0.0843 -0.3673 -0.0388
 7349TIP3    H146242   4.480   6.496   1.159 -2.3774 -4.6565  0.0769
 7349TIP3    H246243   4.536   6.514   1.020 -1.4632  0.8823  0.9271
 7350TIP3   OH246244   0.895   4.747   1.682 -0.2918  0.2419 -0.4402
 7350TIP3    H146245   0.963   4.812   1.698 -1.5442  2.1149 -2.2835
 7350TIP3    H246246   0.838   4.753   1.759  0.9185 -0.4964  0.5532
 7351TIP3   OH246247   3.544   2.670   2.327  0.1243  0.1420 -0.4996
 7351TIP3    H146248   3.468   2.726   2.308 -1.7929 -2.0929  0.1435
 7351TIP3    H246249   3.558   2.620   2.247  1.6772  1.2594 -0.9843
 7352TIP3   OH246250   3.828   3.143   2.202  0.0073 -0.3374 -0.4039
 7352TIP3    H146251   3.774   3.074   2.238  0.3566 -0.2763  0.2468
 7352TIP3    H246252   3.788   3.163   2.117 -0.8716 -0.4194 -0.0190
 7353TIP3   OH246253   3.238   6.704   0.939 -0.0049  0.4326  0.2270
 7353TIP3    H146254   3.171   6.772   0.946  0.0024  0.4324  0.3044
 7353TIP3    H246255   3.202   6.641   0.878 -0.1626  0.3316  0.4230
 7354TIP3   OH246256   0.588   4.660   2.233 -0.5595 -0.3476 -0.3831
 7354TIP3    H146257   0.646   4.676   2.158 -1.7795 -0.0927 -1.2884
 7354TIP3    H246258   0.581   4.565   2.238 -0.3909 -0.3673 -0.5030
 7355TIP3   OH246259   3.441   6.400   0.970 -0.1586  0.2064  0.1432
 7355TIP3    H146260   3.405   6.440   0.891 -1.2312  0.6822  0.8508
 7355TIP3    H246261   3.506   6.337   0.937 -1.6237 -0.6901 -1.1977
 7356TIP3   OH246262   4.676   6.182   2.517  0.1878  0.4600  0.3042
 7356TIP3    H146263   4.651   6.275   2.519  0.4660  0.6156 -1.5934
 7356TIP3    H246264   4.714   6.170   2.431  0.6472 -1.3212  0.7260
 7357TIP3   OH246265   6.296   4.630   2.307 -0.3681 -0.3643  0.1129
 7357TIP3    H146266   6.300   4.679   2.225 -1.3101  1.0148  0.8594
 7357TIP3    H246267   6.370   4.662   2.358 -1.7524  1.3826  1.1447
 7358TIP3   OH246268   0.532   4.360   1.642 -0.3763 -0.1171 -0.1447
 7358TIP3    H146269   0.460   4.416   1.672  0.3931 -0.6477  3.1104
 7358TIP3    H246270   0.573   4.329   1.723  3.5014  0.1026 -1.7914
 7359TIP3   OH246271   7.601   5.466   2.309  0.0019  0.5311 -0.7369
 7359TIP3    H146272   7.671   5.512   2.356 -1.2784  1.5554  0.2086
 7359TIP3    H246273   7.523   5.481   2.361 -1.0360 -0.2232 -2.0220
 7360TIP3   OH246274   3.953   6.241   1.285 -0.1982 -0.0094 -0.1835
 7360TIP3    H146275   3.872   6.278   1.251  0.2561  0.5039 -0.7350
 7360TIP3    H246276   3.983   6.305   1.350  0.5290  0.5462 -1.0534
 7361TIP3   OH246277   5.017   4.834   0.943 -0.6282  0.0114 -0.1566
 7361TIP3    H146278   5.039   4.754   0.895 -1.8826  0.3516 -1.3789
 7361TIP3    H246279   5.085   4.897   0.918 -0.2200 -0.3727 -0.0105
 7362TIP3   OH246280   4.362   3.325   1.240 -0.7906 -0.6657 -0.0788
 7362TIP3    H146281   4.439   3.313   1.185 -0.1680 -1.2691  0.9010
 7362TIP3    H246282   4.295   3.270   1.200 -1.5848  1.7397 -2.4355
 7363TIP3   OH246283   6.543   1.792   1.451 -0.0008  0.5000 -0.4603
 7363TIP3    H146284   6.558   1.881   1.485  1.2380 -0.1087  0.6506
 7363TIP3    H246285   6.549   1.736   1.528  0.4691 -0.6887 -1.3357
 7364TIP3   OH246286   2.356   3.937   2.700 -0.2670  0.2519 -0.2539
 7364TIP3    H146287   2.276   3.886   2.694  0.4830 -0.9065 -0.7614
 7364TIP3    H246288   2.354   3.974   2.789 -1.4919  0.4911 -0.3678
 7365TIP3   OH246289   2.147   2.432   0.781 -0.4105 -0.4392 -0.0950
 7365TIP3    H146290   2.239   2.404   0.781  0.0161  0.8651 -1.2656
 7365TIP3    H246291   2.098   2.351   0.793  0.8837 -1.1475  0.6718
 7366TIP3   OH246292   3.397   5.477   3.010  0.2128 -0.0380  0.3302
 7366TIP3    H146293   3.443   5.393   3.013 -1.0410 -0.7509  0.1793
 7366TIP3    H246294   3.327   5.469   3.074 -2.3772 -0.6461 -2.3326
 7367TIP3   OH246295   3.162   4.309   1.309 -0.7346  0.2867 -0.6918
 7367TIP3    H146296   3.228   4.242   1.329 -0.1926  1.3262  1.2181
 7367TIP3    H246297   3.078   4.264   1.319 -0.4220  0.1673  1.9338
 7368TIP3   OH246298   4.853   6.333   0.860 -0.9030  0.2921  0.2961
 7368TIP3    H146299   4.804   6.259   0.895 -2.8317  1.7011  0.7069
 7368TIP3    H246300   4.792   6.379   0.803  0.9320  0.3716 -1.7480
 7369TIP3   OH246301   5.904   5.422   2.307 -0.1631  0.0240  0.3000
 7369TIP3    H146302   5.857   5.445   2.228 -0.0803 -0.3170  0.1482
 7369TIP3    H246303   5.912   5.504   2.356  0.3016  0.3534 -0.3157
 7370TIP3   OH246304   0.052   7.396   2.673 -0.0413 -0.4462  0.2301
 7370TIP3    H146305   0.074   7.345   2.751  0.3435  0.4682  0.7397
 7370TIP3    H246306  -0.036   7.428   2.690 -0.0461 -0.4380  0.1888
 7371TIP3   OH246307   5.057   0.092   0.812  0.4570 -0.3019  0.2704
 7371TIP3    H146308   5.052   0.153   0.739  0.7688  0.5036  0.9058
 7371TIP3    H246309   5.108   0.019   0.779 -0.6664 -0.6403 -0.7810
 7372TIP3   OH246310   1.479   3.854   3.269  0.4135  0.2427 -0.0624
 7372TIP3    H146311   1.532   3.931   3.246 -0.4275  0.4951 -1.2496
 7372TIP3    H246312   1.394   3.891   3.295  0.5619 -0.1965  1.1014
 7373TIP3   OH246313   1.041   4.972   2.925 -0.1477  0.4364  0.2142
 7373TIP3    H146314   0.962   4.965   2.979 -0.5215  1.5612 -0.1625
 7373TIP3    H246315   1.113   4.954   2.986 -0.6833 -0.6824  0.5463
 7374TIP3   OH246316   1.781   6.519   1.493  0.5610 -0.4378  0.4553
 7374TIP3    H146317   1.741   6.524   1.407 -0.2478  0.1021  0.8483
 7374TIP3    H246318   1.841   6.594   1.496 -0.4200  0.3666  0.8377
 7375TIP3   OH246319   1.407   5.848   2.587 -0.1760 -0.2748 -0.7206
 7375TIP3    H146320   1.465   5.818   2.657 -1.4391 -0.1148  0.4223
 7375TIP3    H246321   1.462   5.845   2.508  1.8791  1.3488  0.5376
 7376TIP3   OH246322   0.701   3.467   3.286  0.0455 -0.2090  0.0595
 7376TIP3    H146323   0.761   3.527   3.241 -1.1695 -0.5664 -2.1503
 7376TIP3    H246324   0.753   3.389   3.303  1.1465  0.7481  1.3907
 7377TIP3   OH246325   3.075   4.744   3.341 -0.3086 -0.1633 -0.2837
 7377TIP3    H146326   3.139   4.792   3.393 -0.4453  0.2094 -0.4597
 7377TIP3    H246327   3.099   4.652   3.353 -1.3780 -0.2178  1.8436
 7378TIP3   OH246328   3.664   0.670   1.297  0.0433  0.0652 -0.0296
 7378TIP3    H146329   3.642   0.678   1.390 -3.0656  0.8049 -0.7220
 7378TIP3    H246330   3.755   0.641   1.297  0.4146  0.7796  3.2220
 7379TIP3   OH246331   6.714   4.390   3.311  0.1745  0.3367  0.0186
 7379TIP3    H146332   6.629   4.351   3.328 -0.6024  1.3734 -1.2796
 7379TIP3    H246333   6.768   4.364   3.386 -0.6196 -2.1270 -0.1897
 7380TIP3   OH246334   7.057   6.541   2.667 -0.1745  0.5667  0.0378
 7380TIP3    H146335   7.058   6.451   2.635 -1.3350  1.3315 -2.3600
 7380TIP3    H246336   6.964   6.564   2.669  0.1900  2.3263 -1.3348
 7381TIP3   OH246337   5.720   7.674   1.248  0.3854 -0.6946  0.3046
 7381TIP3    H146338   5.658   7.606   1.276  0.8857 -0.9294  0.8895
 7381TIP3    H246339   5.804   7.646   1.287  0.4289  0.7126  1.2873
 7382TIP3   OH246340   6.144   1.376   0.799 -0.0054  0.0803  0.2254
 7382TIP3    H146341   6.195   1.345   0.725  2.3126  0.9782  1.3462
 7382TIP3    H246342   6.159   1.471   0.801 -2.0449  0.4550  0.4239
 7383TIP3   OH246343   0.185   2.818   1.371 -0.2883 -0.0565  0.1353
 7383TIP3    H146344   0.120   2.800   1.304 -0.6996  0.6466  0.3320
 7383TIP3    H246345   0.253   2.752   1.358 -0.0462  0.4676 -1.3732
 7384TIP3   OH246346   2.816   2.317   3.193 -0.2191  0.0131  0.0310
 7384TIP3    H146347   2.753   2.274   3.250 -0.3070  0.6850  0.4612
 7384TIP3    H246348   2.763   2.381   3.145 -0.1235 -0.4637 -0.7198
 7385TIP3   OH246349   0.398   7.672   1.053  0.0829  0.2047  0.4251
 7385TIP3    H146350   0.338   7.618   1.002  0.6823  0.1665 -0.2435
 7385TIP3    H246351   0.455   7.714   0.989  0.9291  0.0585  1.0534
 7386TIP3   OH246352   2.120   1.757   1.882  0.5957  0.2853  0.3415
 7386TIP3    H146353   2.033   1.749   1.922  1.2947 -0.4722  1.7661
 7386TIP3    H246354   2.160   1.832   1.927  0.3411  1.3063 -1.0457
 7387TIP3   OH246355   4.707   1.375   1.627  0.2476 -0.3081  0.7019
 7387TIP3    H146356   4.703   1.453   1.572  0.2962 -0.1086  0.9823
 7387TIP3    H246357   4.654   1.310   1.580  2.9775 -1.2468 -1.3439
 7388TIP3   OH246358   2.696   3.391   1.884 -0.5739 -0.2928  0.6244
 7388TIP3    H146359   2.610   3.398   1.926 -0.2288 -1.0795  1.5080
 7388TIP3    H246360   2.703   3.300   1.857  0.0594 -0.2898  0.7484
 7389TIP3   OH246361   6.666   3.856   0.861  0.1596  0.5326  0.1042
 7389TIP3    H146362   6.685   3.926   0.924 -2.0641  0.8900  0.4734
 7389TIP3    H246363   6.729   3.788   0.882  0.8151  1.4733  1.3601
 7390TIP3   OH246364   1.868   7.055   0.638 -0.3221 -0.2493 -0.1762
 7390TIP3    H146365   1.773   7.064   0.632 -0.3644  1.6338  2.0019
 7390TIP3    H246366   1.896   7.133   0.685  2.2149 -1.2088  0.0277
 7391TIP3   OH246367   7.180   2.327   2.317 -0.1515 -0.0696  0.1739
 7391TIP3    H146368   7.199   2.239   2.285 -3.6907 -0.6866 -0.5864
 7391TIP3    H246369   7.207   2.325   2.409  1.9068 -1.1563 -0.3941
 7392TIP3   OH246370   5.418   4.962   2.124 -0.1576 -0.3323  0.2010
 7392TIP3    H146371   5.481   5.029   2.150 -0.8705  0.4761 -0.1008
 7392TIP3    H246372   5.429   4.955   2.029 -0.5369 -0.1665  0.1430
 7393TIP3   OH246373   4.719   5.297   2.473  0.7569  0.3067 -0.0649
 7393TIP3    H146374   4.763   5.322   2.392  2.1142  2.2815  1.1736
 7393TIP3    H246375   4.659   5.227   2.448  1.7370  0.2730 -2.5862
 7394TIP3   OH246376   0.628   0.683   0.838 -0.4784 -0.0226  0.3652
 7394TIP3    H146377   0.562   0.630   0.793  0.3331  0.9152 -2.1314
 7394TIP3    H246378   0.577   0.746   0.890 -1.6510  0.8828 -1.7260
 7395TIP3   OH246379   4.933   0.644   0.675  0.4274  0.2057  0.0442
 7395TIP3    H146380   4.878   0.577   0.635  1.5428 -0.7784  0.1342
 7395TIP3    H246381   4.877   0.722   0.677 -0.2437 -0.1874 -1.7812
 7396TIP3   OH246382   4.280   1.397   0.783 -0.7881 -0.4312  0.0230
 7396TIP3    H146383   4.193   1.367   0.812  0.2730 -2.7404  1.0552
 7396TIP3    H246384   4.292   1.356   0.697  0.3547 -2.5215  1.1041
 7397TIP3   OH246385   6.193   5.757   2.881  0.1651  0.4773 -0.3176
 7397TIP3    H146386   6.142   5.810   2.942  0.3127  0.0689  0.1712
 7397TIP3    H246387   6.284   5.771   2.909  0.1898 -0.1775 -0.0686
 7398TIP3   OH246388   4.825   0.123   1.635 -0.0496 -0.2285  0.1937
 7398TIP3    H146389   4.912   0.159   1.620  0.0898 -0.6174  0.0470
 7398TIP3    H246390   4.832   0.032   1.607 -1.2510  0.4389 -2.6238
 7399TIP3   OH246391   4.842   1.263   2.164  0.7886  0.4884  0.3818
 7399TIP3    H146392   4.875   1.262   2.254 -0.6196  1.2234  0.9259
 7399TIP3    H246393   4.811   1.352   2.150  1.7447  0.6224 -1.1384
 7400TIP3   OH246394   5.329   1.974   2.010  0.6256 -0.2434  0.4919
 7400TIP3    H146395   5.251   1.984   1.955 -0.1595  0.6486  1.7120
 7400TIP3    H246396   5.363   1.887   1.988 -0.7108 -0.6547 -0.0525
 7401TIP3   OH246397   2.064   6.534   1.642  0.3122  0.1521  0.0983
 7401TIP3    H146398   2.044   6.580   1.561  0.3977 -0.5763 -0.3494
 7401TIP3    H246399   2.111   6.598   1.695  0.9765  0.4020 -0.7583
 7402TIP3   OH246400   2.008   0.667   1.444 -0.2963 -0.3526 -0.2682
 7402TIP3    H146401   2.040   0.679   1.534 -0.4972 -0.8253 -0.1274
 7402TIP3    H246402   2.070   0.604   1.405 -1.9054 -2.5347  0.5096
 7403TIP3   OH246403   4.702   4.329   0.507  0.1424  0.3168 -0.5032
 7403TIP3    H146404   4.626   4.270   0.506  0.8337 -0.6370  0.6982
 7403TIP3    H246405   4.692   4.382   0.427 -1.3210 -0.3610 -0.8099
 7404TIP3   OH246406   4.918   3.597   0.709 -0.4780  0.5601  0.5148
 7404TIP3    H146407   4.960   3.683   0.700 -0.4590  0.4448 -0.8177
 7404TIP3    H246408   4.992   3.536   0.714 -0.4804  0.5176  0.0907
 7405TIP3   OH246409   2.030   4.110   1.125  0.0105 -0.6674  0.2256
 7405TIP3    H146410   1.947   4.094   1.171  0.7813 -0.1845  1.8504
 7405TIP3    H246411   2.073   4.179   1.176  0.1677  1.1926 -2.2283
 7406TIP3   OH246412   5.297   5.605   2.425 -0.0960 -0.3704  0.0607
 7406TIP3    H146413   5.280   5.514   2.447  0.4551 -0.4086  0.3413
 7406TIP3    H246414   5.241   5.622   2.350 -0.2239 -0.9317  0.0241
 7407TIP3   OH246415   4.937   7.212   1.809 -0.0738  0.3671  0.2934
 7407TIP3    H146416   4.929   7.141   1.745 -0.9745  1.0378 -0.3558
 7407TIP3    H246417   4.851   7.252   1.811  0.6348  1.9701  0.0420
 7408TIP3   OH246418   4.413   7.395   2.055 -0.5554  0.2650  0.4914
 7408TIP3    H146419   4.451   7.482   2.046  0.1499 -0.1271 -0.4184
 7408TIP3    H246420   4.337   7.396   1.996 -0.5510  0.2635  0.4854
 7409TIP3   OH246421   7.268   7.041   0.985 -0.0547  0.1163 -0.7144
 7409TIP3    H146422   7.193   7.026   1.043  1.2761 -1.6689  0.6624
 7409TIP3    H246423   7.340   6.994   1.027  2.3867  3.3696 -0.8923
 7410TIP3   OH246424   0.736   2.417   1.251 -0.4017 -0.3794  0.6329
 7410TIP3    H146425   0.827   2.443   1.262 -0.2277 -0.9889  0.7051
 7410TIP3    H246426   0.707   2.391   1.338 -0.2853 -1.2729  0.4237
 7411TIP3   OH246427   6.553   4.990   1.124 -0.5321 -0.4800  0.5900
 7411TIP3    H146428   6.556   5.044   1.203  0.1811 -1.3684  1.1914
 7411TIP3    H246429   6.601   4.911   1.147 -0.0512 -0.6353 -0.8363
 7412TIP3   OH246430   0.969   5.574   2.427 -0.0016  0.1962  0.3386
 7412TIP3    H146431   1.012   5.534   2.352  0.6912  1.0777  0.2432
 7412TIP3    H246432   1.032   5.564   2.499 -0.3206  0.0707  0.6025
 7413TIP3   OH246433   7.249   0.424   3.136 -0.5022 -0.1863 -0.1558
 7413TIP3    H146434   7.327   0.468   3.168 -0.5870 -0.5671  0.6167
 7413TIP3    H246435   7.279   0.337   3.111 -0.2788  0.3884 -1.9603
 7414TIP3   OH246436   5.181   6.682   1.532  0.0219 -0.5389 -0.0004
 7414TIP3    H146437   5.103   6.639   1.568  1.0270 -0.9577  1.7674
 7414TIP3    H246438   5.252   6.654   1.589  1.5309 -0.3563 -1.7194
 7415TIP3   OH246439   6.854   3.665   0.953  0.0530  0.4570  0.1698
 7415TIP3    H146440   6.812   3.712   1.024  0.5751  1.0861  0.0731
 7415TIP3    H246441   6.901   3.594   0.996 -0.4882  0.1976  0.3452
 7416TIP3   OH246442   3.510   6.443   3.622 -0.0233 -0.4028 -0.2706
 7416TIP3    H146443   3.564   6.486   3.557 -1.0789  1.7129  0.1674
 7416TIP3    H246444   3.426   6.427   3.577  0.6580 -3.1057 -0.7631
 7417TIP3   OH246445   3.394   3.984   3.822 -0.3261 -0.1924  0.7194
 7417TIP3    H146446   3.454   3.912   3.802  0.5455  0.5975  0.4243
 7417TIP3    H246447   3.411   4.048   3.753 -1.5476  0.0251  0.6135
 7418TIP3   OH246448   4.677   6.230   0.642 -0.2496 -0.1815  0.7939
 7418TIP3    H146449   4.655   6.190   0.726 -1.7678 -1.1526 -0.0131
 7418TIP3    H246450   4.604   6.289   0.623  0.7881  1.1621  0.8122
 7419TIP3   OH246451   5.741   7.307   2.184 -0.3260  0.3266  0.8783
 7419TIP3    H146452   5.748   7.235   2.121  1.4767  2.2854 -1.3587
 7419TIP3    H246453   5.659   7.291   2.230 -0.6617 -2.3863 -0.4685
 7420TIP3   OH246454   0.764   6.861   2.374  0.1867 -0.2800  0.1510
 7420TIP3    H146455   0.762   6.945   2.420  1.0589 -0.1211 -0.0946
 7420TIP3    H246456   0.841   6.817   2.407  0.1800 -0.6497 -0.3175
 7421TIP3   OH246457   0.541   3.928   2.019  0.7665 -0.2436 -0.0962
 7421TIP3    H146458   0.446   3.933   2.031  0.7075  0.3617 -0.7441
 7421TIP3    H246459   0.554   3.845   1.972  0.3915  0.3767 -1.3528
 7422TIP3   OH246460   1.406   4.704   1.274  0.0969  0.2839 -0.6473
 7422TIP3    H146461   1.404   4.695   1.178  0.1953 -1.1178 -0.5322
 7422TIP3    H246462   1.450   4.625   1.304 -0.5614  0.3877  0.6133
 7423TIP3   OH246463   0.320   6.222   2.774  0.4596 -0.2204  0.2987
 7423TIP3    H146464   0.251   6.257   2.830  0.3099  1.5901 -0.9412
 7423TIP3    H246465   0.300   6.128   2.768 -2.2954  0.3108 -0.4855
 7424TIP3   OH246466   5.691   6.296   3.116 -0.5563 -0.1856  0.0050
 7424TIP3    H146467   5.767   6.351   3.100 -0.1429 -0.6116  0.4407
 7424TIP3    H246468   5.721   6.207   3.095 -0.6420 -0.4761  1.0409
 7425TIP3   OH246469   0.257   3.898   2.067 -0.0308  0.0581  0.0894
 7425TIP3    H146470   0.205   3.974   2.092 -0.1382  0.4417 -1.2670
 7425TIP3    H246471   0.210   3.823   2.105 -1.0790  0.4805 -0.3575
 7426TIP3   OH246472   0.728   0.234   1.608 -0.3901 -0.1883  0.2858
 7426TIP3    H146473   0.656   0.295   1.594 -0.1679  0.1990  0.7781
 7426TIP3    H246474   0.708   0.192   1.692 -0.0954 -0.1389  0.3838
 7427TIP3   OH246475   2.915   6.031   2.245  0.6568 -0.1785  0.4004
 7427TIP3    H146476   2.860   6.105   2.269 -1.5049 -1.2952 -0.8416
 7427TIP3    H246477   2.919   5.977   2.325 -0.3349 -0.2346  0.4246
 7428TIP3   OH246478   7.308   6.360   0.812 -0.4504  0.4176  0.0575
 7428TIP3    H146479   7.399   6.368   0.842 -0.6129  1.4565  0.3139
 7428TIP3    H246480   7.299   6.268   0.786  0.1534 -0.1518  1.7471
 7429TIP3   OH246481   0.572   2.402   1.761 -0.3671  0.2295 -0.2980
 7429TIP3    H146482   0.532   2.320   1.790 -0.7919  0.5365  0.0100
 7429TIP3    H246483   0.557   2.462   1.834  0.3413  0.4553 -0.3375
 7430TIP3   OH246484   3.830   5.459   1.511  0.2279  0.1253  0.3661
 7430TIP3    H146485   3.804   5.438   1.421  1.4647 -0.7795  0.1999
 7430TIP3    H246486   3.780   5.399   1.565  0.8345 -0.5938  0.1456
 7431TIP3   OH246487   4.900   7.260   2.141 -0.5984 -0.6137  0.1672
 7431TIP3    H146488   4.814   7.285   2.173 -0.7104  0.3896 -0.8560
 7431TIP3    H246489   4.890   7.169   2.113 -1.4281 -0.4044 -0.2389
 7432TIP3   OH246490   7.664   5.820   2.282  0.4085  0.0093  0.0430
 7432TIP3    H146491   7.600   5.824   2.353  2.3075  0.4830  1.8326
 7432TIP3    H246492   7.712   5.738   2.297  0.9408  0.1993 -0.5760
 7433TIP3   OH246493   2.831   0.930   2.472 -0.2605  0.1739  0.1080
 7433TIP3    H146494   2.827   0.936   2.568  1.9279 -0.8121  0.3327
 7433TIP3    H246495   2.906   0.984   2.448 -0.0469 -0.5514 -0.9103
 7434TIP3   OH246496   5.427   4.507   1.737  0.7713  0.3868  0.3722
 7434TIP3    H146497   5.415   4.570   1.808  0.5574  2.5817 -1.5071
 7434TIP3    H246498   5.510   4.533   1.696 -0.0032  0.3361 -1.2745
 7435TIP3   OH246499   4.055   4.840   3.112 -0.4192 -0.0677  0.4681
 7435TIP3    H146500   4.025   4.776   3.177  0.6485  0.7386  1.7889
 7435TIP3    H246501   4.140   4.806   3.083 -0.6857 -0.1851 -0.2092
 7436TIP3   OH246502   6.257   1.933   1.682  0.5793  0.4539  0.7303
 7436TIP3    H146503   6.289   1.923   1.772 -0.2568 -0.1777  0.9714
 7436TIP3    H246504   6.324   1.986   1.638  1.0143  0.7417  1.7125
 7437TIP3   OH246505   2.155   5.490   2.062  0.1359 -0.0793 -0.4603
 7437TIP3    H146506   2.103   5.529   1.992  0.8773  0.8318 -0.5219
 7437TIP3    H246507   2.091   5.464   2.129 -0.4898 -0.0937 -1.0561
 7438TIP3   OH246508   4.709   0.191   2.720 -0.0206 -0.1615 -0.1934
 7438TIP3    H146509   4.669   0.111   2.687 -2.0196 -0.2485  2.1523
 7438TIP3    H246510   4.739   0.169   2.808 -0.9838  1.7330  0.6752
 7439TIP3   OH246511   6.651   4.867   1.777  0.0895  0.7608 -0.2774
 7439TIP3    H146512   6.655   4.888   1.870  0.8078  1.7380 -0.5108
 7439TIP3    H246513   6.560   4.838   1.763 -0.2259  1.2918  0.5803
 7440TIP3   OH246514   1.232   2.930   0.652 -0.1664 -0.2091  0.6910
 7440TIP3    H146515   1.238   2.927   0.556 -1.6974 -0.8263  0.5878
 7440TIP3    H246516   1.240   2.839   0.680 -0.3727 -0.1031  1.0982
 7441TIP3   OH246517   4.905   1.387   1.303 -0.1188 -0.0268 -0.4660
 7441TIP3    H146518   4.852   1.325   1.253  1.2844 -1.2136 -0.5601
 7441TIP3    H246519   4.980   1.405   1.247  1.1585 -0.8725  0.8795
 7442TIP3   OH246520   3.068   0.545   2.120 -0.5853  0.2573 -0.5942
 7442TIP3    H146521   2.992   0.567   2.173  0.7641 -0.8813  2.0113
 7442TIP3    H246522   3.087   0.453   2.143  3.0048  1.1935  0.9381
 7443TIP3   OH246523   0.242   6.389   1.586 -0.8621 -0.6771  0.6334
 7443TIP3    H146524   0.292   6.307   1.579  0.2457  0.0007  0.3014
 7443TIP3    H246525   0.294   6.444   1.645 -0.0091  0.8511 -1.4080
 7444TIP3   OH246526   4.544   7.422   0.545  0.1127 -0.0521 -0.4680
 7444TIP3    H146527   4.572   7.340   0.505 -0.3304  0.4088 -1.7691
 7444TIP3    H246528   4.543   7.404   0.639  0.1592 -1.4863 -0.7277
 7445TIP3   OH246529   3.127   7.176   1.609 -0.5459 -0.4895  0.6077
 7445TIP3    H146530   3.060   7.244   1.607 -0.2698 -0.2334  0.0544
 7445TIP3    H246531   3.109   7.123   1.531  0.2190 -0.1098  0.1689
 7446TIP3   OH246532   7.636   6.304   2.198  0.0466  0.2959  0.0289
 7446TIP3    H146533   7.617   6.358   2.274  2.1701 -0.9713  1.5881
 7446TIP3    H246534   7.589   6.222   2.215 -1.2145  0.7505 -1.1311
 7447TIP3   OH246535   5.816   0.945   1.774 -0.4063 -0.0434 -0.3017
 7447TIP3    H146536   5.883   0.888   1.811  0.4515  1.4594  0.5357
 7447TIP3    H246537   5.863   1.000   1.711 -1.4654 -1.1027 -2.0995
 7448TIP3   OH246538   1.016   4.706   0.928 -0.1130 -0.4885  0.4560
 7448TIP3    H146539   0.973   4.719   1.012 -1.4420  0.2704 -0.3075
 7448TIP3    H246540   1.002   4.788   0.881  1.2238 -0.6459 -0.2495
 7449TIP3   OH246541   5.605   1.922   2.690  0.7118 -0.2001  0.0969
 7449TIP3    H146542   5.579   1.883   2.607  0.5702  0.7063 -0.3055
 7449TIP3    H246543   5.526   1.916   2.745  1.3942 -2.6685  0.9371
 7450TIP3   OH246544   4.340   1.051   3.018 -0.3257  0.0696  0.5860
 7450TIP3    H146545   4.255   1.033   2.977 -0.6507  0.3988  1.1028
 7450TIP3    H246546   4.404   1.016   2.956 -0.8621 -0.8567  0.5278
 7451TIP3   OH246547   0.430   3.237   2.508 -0.1677  0.0583  0.2387
 7451TIP3    H146548   0.503   3.287   2.545 -1.9555  0.6697  3.2420
 7451TIP3    H246549   0.426   3.158   2.562 -1.3358 -0.2472 -0.2809
 7452TIP3   OH246550   1.573   0.670   0.561  0.3372  0.1176 -1.1496
 7452TIP3    H146551   1.642   0.644   0.499 -0.6523  0.0014 -2.2283
 7452TIP3    H246552   1.537   0.587   0.593  2.1031  0.1223  1.1039
 7453TIP3   OH246553   1.926   2.351   2.194  0.5321 -0.0326 -0.0339
 7453TIP3    H146554   1.993   2.418   2.206 -0.7116  1.2295  0.0226
 7453TIP3    H246555   1.864   2.366   2.265  1.1622 -2.4515  1.1539
 7454TIP3   OH246556   3.751   1.788   1.773 -0.2760  0.1357 -0.2855
 7454TIP3    H146557   3.751   1.861   1.712 -1.6691  0.3804 -0.0364
 7454TIP3    H246558   3.703   1.718   1.728 -0.1374 -0.1546  0.0049
 7455TIP3   OH246559   7.649   3.494   1.690 -0.3786 -0.0903 -0.1810
 7455TIP3    H146560   7.698   3.563   1.735 -1.7458 -0.2334  1.6079
 7455TIP3    H246561   7.620   3.435   1.760 -0.0819 -1.9627 -1.5681
 7456TIP3   OH246562   6.398   2.729   2.998 -0.4833 -0.2875 -0.4286
 7456TIP3    H146563   6.445   2.720   3.081 -1.5562 -2.1157  0.0410
 7456TIP3    H246564   6.398   2.823   2.981 -1.2854  0.3004  2.2904
 7457TIP3   OH246565   2.211   3.043   2.277 -0.0875 -0.1568  0.0155
 7457TIP3    H146566   2.166   3.127   2.276 -1.7910 -1.0301  0.6695
 7457TIP3    H246567   2.194   3.005   2.191  0.5303  0.0631 -0.2138
 7458TIP3   OH246568   3.571   1.683   1.087  0.3779  0.1878 -0.1812
 7458TIP3    H146569   3.517   1.681   1.009 -1.8853 -2.7655  1.2588
 7458TIP3    H246570   3.661   1.680   1.053 -0.3855  1.6970 -2.6129
 7459TIP3   OH246571   5.522   4.470   2.429  0.5517 -0.6767  0.0021
 7459TIP3    H146572   5.587   4.400   2.428  0.3051 -0.9082  0.1947
 7459TIP3    H246573   5.455   4.440   2.490  0.0353 -0.6428 -0.5379
 7460TIP3   OH246574   0.219   3.368   0.461  0.5909 -0.1658 -0.3300
 7460TIP3    H146575   0.186   3.295   0.513 -0.1764  0.0214 -0.5481
 7460TIP3    H246576   0.165   3.369   0.382 -1.2551  2.2289  0.7972
 7461TIP3   OH246577   1.555   4.034   2.672  0.1859 -0.6823 -0.2056
 7461TIP3    H146578   1.619   3.965   2.654  0.8952  0.0733 -0.6180
 7461TIP3    H246579   1.555   4.041   2.768 -0.3544 -1.6729 -0.1165
 7462TIP3   OH246580   4.381   7.603   0.918 -0.2457 -0.2075 -0.1142
 7462TIP3    H146581   4.373   7.692   0.883  0.2454  0.1447  0.6292
 7462TIP3    H246582   4.475   7.589   0.924 -0.3219 -0.4201  0.6379
 7463TIP3   OH246583   5.824   3.209   0.653  0.2283  0.3288 -0.1613
 7463TIP3    H146584   5.865   3.223   0.738 -1.0881  2.1502  0.2247
 7463TIP3    H246585   5.897   3.214   0.590  1.1534 -0.6523  0.7893
 7464TIP3   OH246586   1.675   4.262   1.420 -0.3608 -0.0525  0.0207
 7464TIP3    H146587   1.649   4.171   1.402 -0.4806 -0.3028  1.3029
 7464TIP3    H246588   1.655   4.274   1.513  1.5962  0.6221  0.4079
 7465TIP3   OH246589   0.775   2.625   1.790 -0.9353  0.1995  0.5512
 7465TIP3    H146590   0.841   2.617   1.721 -0.5431  1.0087  0.8159
 7465TIP3    H246591   0.706   2.564   1.764  0.0204 -0.8460  0.3989
 7466TIP3   OH246592   2.208   2.315   2.485  0.1007 -0.2963 -0.2138
 7466TIP3    H146593   2.166   2.364   2.415 -0.6808  0.6292  0.8660
 7466TIP3    H246594   2.137   2.263   2.524  0.3070 -0.0558  0.4995
 7467TIP3   OH246595   7.030   0.752   1.710  0.2960 -0.6152  0.2834
 7467TIP3    H146596   7.098   0.702   1.665 -0.6800 -2.4988  0.7914
 7467TIP3    H246597   7.078   0.819   1.758  1.5708 -0.2752 -1.3516
 7468TIP3   OH246598   7.306   6.048   1.744  0.8857 -0.1193 -0.4063
 7468TIP3    H146599   7.235   6.074   1.686  0.5036 -0.0563  0.0818
 7468TIP3    H246600   7.264   6.037   1.829  1.5422  0.4017 -0.0061
 7469TIP3   OH246601   3.814   1.381   1.763  0.0768 -0.1871  0.4705
 7469TIP3    H146602   3.786   1.454   1.708  0.8125  0.8037  1.3732
 7469TIP3    H246603   3.755   1.383   1.838 -1.0995 -1.7010 -0.3515
 7470TIP3   OH246604   4.444   7.041   1.525  0.3206  0.0026 -0.0965
 7470TIP3    H146605   4.438   6.950   1.555  0.0365  0.1212  0.2005
 7470TIP3    H246606   4.362   7.057   1.479 -0.1066  0.4595  0.8107
 7471TIP3   OH246607   3.543   0.415   2.815  0.1113  0.0187 -0.2906
 7471TIP3    H146608   3.574   0.448   2.730 -1.3399  0.5934 -0.6234
 7471TIP3    H246609   3.465   0.365   2.793  0.7659 -1.4220  0.5254
 7472TIP3   OH246610   0.013   2.743   1.172  0.1378  0.3080 -0.0979
 7472TIP3    H146611   0.025   2.674   1.107  0.2523 -0.6154  0.8567
 7472TIP3    H246612  -0.028   2.698   1.247 -1.3840  1.6359 -0.0831
 7473TIP3   OH246613   1.844   2.616   1.208 -0.5684 -0.6454  0.0497
 7473TIP3    H146614   1.807   2.643   1.124  0.0846 -2.2695 -0.8030
 7473TIP3    H246615   1.938   2.625   1.197 -0.5445  1.4221  1.4790
 7474TIP3   OH246616   5.409   3.741   0.726  0.6518 -0.0944  0.3236
 7474TIP3    H146617   5.482   3.693   0.764 -0.3834 -1.1334  1.0858
 7474TIP3    H246618   5.409   3.826   0.770  1.2702 -0.1686  0.4618
 7475TIP3   OH246619   0.395   4.953   0.940 -0.2581  0.1489  0.5438
 7475TIP3    H146620   0.443   4.872   0.923 -2.4125 -0.5646 -3.2050
 7475TIP3    H246621   0.450   5.021   0.902 -0.3371 -0.1502 -0.1313
 7476TIP3   OH246622   6.023   2.490   0.685  0.1609  0.3578  0.1828
 7476TIP3    H146623   6.039   2.428   0.614  2.4171  1.2584 -0.1983
 7476TIP3    H246624   5.952   2.545   0.654  0.4750  0.1331 -0.9939
 7477TIP3   OH246625   1.663   2.970   1.608  0.8512 -0.7307 -0.3252
 7477TIP3    H146626   1.727   2.973   1.679  0.4972 -0.1388 -0.0204
 7477TIP3    H246627   1.671   2.881   1.572  0.8182 -1.1476  0.6557
 7478TIP3   OH246628   0.580   5.631   2.115  0.1043  0.3202  0.3132
 7478TIP3    H146629   0.649   5.574   2.080 -0.2814  0.3788 -0.5622
 7478TIP3    H246630   0.576   5.704   2.053 -1.4308 -0.1772 -0.2341
 7479TIP3   OH246631   0.798   7.127   8.136 -0.6752  0.0643  0.0228
 7479TIP3    H146632   0.718   7.177   8.123 -1.3307 -0.5361  1.6068
 7479TIP3    H246633   0.769   7.038   8.156  0.2584  0.2697  2.6969
 7480TIP3   OH246634   1.864   1.331   2.736  0.2679 -0.5402  0.0273
 7480TIP3    H146635   1.958   1.331   2.721  0.5126 -0.2036  1.3931
 7480TIP3    H246636   1.836   1.241   2.717  0.5620 -0.2460 -1.9555
 7481TIP3   OH246637   2.653   7.470   2.850 -0.1414  0.2208 -0.6808
 7481TIP3    H146638   2.616   7.442   2.933 -0.5714  0.6997 -0.7077
 7481TIP3    H246639   2.684   7.390   2.809 -1.7284 -0.2836 -0.9553
 7482TIP3   OH246640   7.509   2.929   1.559  0.3035 -0.3565 -0.0416
 7482TIP3    H146641   7.588   2.879   1.576  0.6876  0.5368  0.8989
 7482TIP3    H246642   7.478   2.897   1.474  0.6664 -1.9757  0.4124
 7483TIP3   OH246643   5.990   3.055   1.463 -0.5791  0.3411  0.4603
 7483TIP3    H146644   5.905   3.085   1.430 -0.6177  1.4751  1.5411
 7483TIP3    H246645   5.976   3.036   1.555  0.8388  2.9796  1.3544
 7484TIP3   OH246646   5.766   7.467   0.744  0.3753 -0.0962  0.0762
 7484TIP3    H146647   5.849   7.427   0.768  1.8285  2.2323 -0.6676
 7484TIP3    H246648   5.769   7.554   0.785 -1.6224  0.1197 -0.1331
 7485TIP3   OH246649   6.683   2.510   2.163  0.5536 -0.0814  0.6968
 7485TIP3    H146650   6.744   2.457   2.213 -0.8421 -1.8927  0.6102
 7485TIP3    H246651   6.738   2.563   2.105  2.0505 -2.5319 -0.2784
 7486TIP3   OH246652   2.858   1.549   3.194  0.1300 -0.2495  0.9093
 7486TIP3    H146653   2.874   1.643   3.190  1.5267 -0.5140 -0.5075
 7486TIP3    H246654   2.803   1.538   3.272  0.5367  1.6414  1.5257
 7487TIP3   OH246655   4.731   4.875   1.029  0.6700 -0.2287  0.5557
 7487TIP3    H146656   4.684   4.792   1.032  2.6364 -1.3859  3.0799
 7487TIP3    H246657   4.821   4.851   1.008  0.9441  1.5067 -0.4617
 7488TIP3   OH246658   6.087   2.143   0.753  0.0215 -0.1072 -0.1637
 7488TIP3    H146659   5.996   2.162   0.774  0.1136  0.9241 -0.6465
 7488TIP3    H246660   6.104   2.189   0.671  0.2130 -2.5520 -1.5921
 7489TIP3   OH246661   7.196   2.060   2.601  0.1561  0.2095 -0.7973
 7489TIP3    H146662   7.187   2.054   2.506  0.7107 -2.0930 -0.7579
 7489TIP3    H246663   7.109   2.039   2.635  0.3145 -0.4385 -0.7831
 7490TIP3   OH246664   1.523   6.075   2.084  0.2907 -0.2709 -0.3099
 7490TIP3    H146665   1.544   6.154   2.035  0.8848 -1.1461 -1.5387
 7490TIP3    H246666   1.486   6.015   2.019  3.4947 -2.4268 -0.4015
 7491TIP3   OH246667   6.674   5.548   3.138 -0.4381  0.0788  0.3130
 7491TIP3    H146668   6.650   5.478   3.199 -3.7711  0.8840  0.1311
 7491TIP3    H246669   6.754   5.585   3.174  0.7096 -2.9180  1.1225
 7492TIP3   OH246670   2.270   5.638   1.450 -0.0845 -0.1425 -0.2231
 7492TIP3    H146671   2.296   5.559   1.403  0.3612  0.3781 -0.8570
 7492TIP3    H246672   2.177   5.649   1.429  0.2012  0.2983 -1.2993
 7493TIP3   OH246673   2.992   5.422   1.923  0.2576  1.0758  0.1201
 7493TIP3    H146674   2.935   5.451   1.851 -0.8306  0.7821  0.8466
 7493TIP3    H246675   3.005   5.501   1.976  0.5662  1.1522 -0.0675
 7494TIP3   OH246676   7.607   2.051   0.632  0.3782 -0.0772  0.3796
 7494TIP3    H146677   7.519   2.074   0.601  0.7234 -0.9729 -1.4297
 7494TIP3    H246678   7.652   2.135   0.641 -0.2555  0.3131  0.0023
 7495TIP3   OH246679   6.033   4.317   1.290 -0.4235 -0.6139 -0.1887
 7495TIP3    H146680   5.975   4.258   1.243 -1.6641 -0.0289  0.5307
 7495TIP3    H246681   6.113   4.320   1.238 -1.4496 -0.5944 -1.8258
 7496TIP3   OH246682   2.458   5.743   3.469 -0.5781  0.1726 -0.2954
 7496TIP3    H146683   2.425   5.802   3.538 -0.6878  0.9378 -0.9837
 7496TIP3    H246684   2.392   5.749   3.400  0.0326  0.1815 -0.8765
 7497TIP3   OH246685   2.469   7.309   0.333  0.2498 -0.0453 -0.6269
 7497TIP3    H146686   2.470   7.324   0.238  1.6433 -0.9415 -0.7841
 7497TIP3    H246687   2.440   7.218   0.343  1.7015 -0.5029 -0.3187
 7498TIP3   OH246688   5.337   4.753   0.778 -0.3566 -0.0834  0.4924
 7498TIP3    H146689   5.316   4.697   0.852 -3.1407 -1.1201 -0.9457
 7498TIP3    H246690   5.395   4.700   0.723 -3.4143 -1.9628 -1.1326
 7499TIP3   OH246691   3.574   2.801   1.277  0.2499 -0.7069 -0.2552
 7499TIP3    H146692   3.515   2.825   1.349 -0.9432 -2.5609 -0.5503
 7499TIP3    H246693   3.611   2.885   1.248 -1.1034  0.3614  0.9198
 7500TIP3   OH246694   2.942   0.143   0.705  0.1716  0.1086 -0.0564
 7500TIP3    H146695   2.909   0.097   0.627 -0.9103 -1.2413  1.1354
 7500TIP3    H246696   2.993   0.077   0.751  0.3625  0.7392  0.6459
 7501TIP3   OH246697   2.391   1.886   2.329 -0.4766 -0.0778  0.1729
 7501TIP3    H146698   2.438   1.949   2.384  0.3304 -0.3905 -0.1352
 7501TIP3    H246699   2.415   1.910   2.239 -0.2764 -0.7224  0.0472
 7502TIP3   OH246700   1.657   0.731   1.832  0.2313  0.4724  0.2045
 7502TIP3    H146701   1.582   0.671   1.837  2.0817 -1.8597  2.0868
 7502TIP3    H246702   1.696   0.713   1.746 -0.0508  0.0121  0.1667
 7503TIP3   OH246703   7.628   1.468   2.206 -0.2495  0.3864  0.2542
 7503TIP3    H146704   7.701   1.509   2.253 -0.4362  0.3894  0.5430
 7503TIP3    H246705   7.640   1.374   2.221  0.0832  0.3405 -0.2689
 7504TIP3   OH246706   6.573   5.741   2.705 -0.3492 -0.3316  0.2119
 7504TIP3    H146707   6.536   5.826   2.682 -0.4927 -0.4311  0.0750
 7504TIP3    H246708   6.604   5.751   2.795 -0.9430 -0.3292  0.4169
 7505TIP3   OH246709   5.745   7.025   2.075 -0.7440 -0.2684  0.2456
 7505TIP3    H146710   5.773   7.069   1.995  0.2663  0.1154  0.7917
 7505TIP3    H246711   5.825   7.017   2.128 -1.3516 -0.6858  1.1387
 7506TIP3   OH246712   3.283   1.727   1.601 -0.7289 -0.1842 -0.1425
 7506TIP3    H146713   3.289   1.724   1.697 -0.5259 -0.0286 -0.1497
 7506TIP3    H246714   3.225   1.655   1.579 -0.6465 -0.3237  0.0887
 7507TIP3   OH246715   3.711   6.422   1.519  0.2964 -0.2938  0.2191
 7507TIP3    H146716   3.674   6.509   1.537  0.9471  0.3526 -1.3839
 7507TIP3    H246717   3.806   6.436   1.522  0.4131 -1.0452  0.2790
 7508TIP3   OH246718   6.513   5.296   2.201  0.2756  0.2322  0.0477
 7508TIP3    H146719   6.471   5.360   2.258  1.1248  0.7401  0.1116
 7508TIP3    H246720   6.493   5.325   2.113 -0.0281  0.1188  0.0770
 7509TIP3   OH246721   4.206   6.167   1.508  0.3734 -0.8182 -0.1021
 7509TIP3    H146722   4.113   6.158   1.529  0.2532 -1.9823 -1.0199
 7509TIP3    H246723   4.221   6.261   1.505 -0.9138 -0.6063 -0.5214
 7510TIP3   OH246724   3.523   3.383   0.603 -0.3134 -0.0935  0.5549
 7510TIP3    H146725   3.567   3.297   0.605 -1.0918 -0.5952 -1.2248
 7510TIP3    H246726   3.556   3.424   0.523 -0.0337  1.2480  1.3344
 7511TIP3   OH246727   2.959   4.468   2.884  0.7034 -0.4964 -0.0598
 7511TIP3    H146728   3.007   4.526   2.943  0.3993  0.5668 -0.8455
 7511TIP3    H246729   2.916   4.526   2.821  1.9388 -1.6428 -2.0607
 7512TIP3   OH246730   5.972   5.461   1.380  0.2183  0.6192 -0.0848
 7512TIP3    H146731   5.922   5.448   1.299 -0.0690 -2.0514  0.4227
 7512TIP3    H246732   5.982   5.556   1.387 -1.0889  1.0119 -2.4254
 7513TIP3   OH246733   6.137   3.951   0.928  0.2943 -0.4924  0.2626
 7513TIP3    H146734   6.121   3.870   0.879 -0.5612 -0.4319  0.4160
 7513TIP3    H246735   6.213   3.990   0.886  1.1798 -1.7235  0.6383
 7514TIP3   OH246736   3.075   4.177   1.567  0.0767 -0.0197 -0.0031
 7514TIP3    H146737   3.057   4.246   1.631 -2.4751  0.0089 -0.6410
 7514TIP3    H246738   3.073   4.096   1.617 -1.3437  0.0539  0.1060
 7515TIP3   OH246739   6.385   7.582   2.473  0.2895  0.5636  0.5040
 7515TIP3    H146740   6.386   7.489   2.453  1.0639  0.4911  0.8247
 7515TIP3    H246741   6.309   7.594   2.529 -0.1009  0.2176  0.0463
 7516TIP3   OH246742   7.338   7.182   2.343  0.5209  0.1951  0.3028
 7516TIP3    H146743   7.243   7.199   2.346  0.6401  0.9646  0.0223
 7516TIP3    H246744   7.374   7.235   2.414  0.6450 -0.8353  1.0187
 7517TIP3   OH246745   7.150   0.105   2.265 -0.3307  0.5707  0.2513
 7517TIP3    H146746   7.230   0.153   2.242 -0.1936 -0.6063 -2.0348
 7517TIP3    H246747   7.088   0.172   2.293  0.4214  1.8787 -1.1016
 7518TIP3   OH246748   5.167   3.291   0.928 -0.4635 -0.2738 -0.0620
 7518TIP3    H146749   5.228   3.297   1.001 -1.0579 -0.2107  0.4389
 7518TIP3    H246750   5.121   3.208   0.942 -0.5980 -0.2483 -0.3511
 7519TIP3   OH246751   1.992   2.818   1.534 -0.0195  0.0309  0.0358
 7519TIP3    H146752   2.031   2.867   1.606 -1.3590  1.2406 -0.0201
 7519TIP3    H246753   2.037   2.851   1.456  0.6819 -0.5126  0.1970
 7520TIP3   OH246754   2.611   1.004   1.290  0.0933  0.0289  0.5220
 7520TIP3    H146755   2.519   1.014   1.266 -0.3261  2.3077  2.7011
 7520TIP3    H246756   2.614   0.923   1.341 -0.6840 -0.0443  0.4575
 7521TIP3   OH246757   0.651   1.327   2.871 -0.4573  0.1186  0.3353
 7521TIP3    H146758   0.746   1.340   2.872 -0.6343  1.5549  0.3032
 7521TIP3    H246759   0.639   1.237   2.901  0.8016  0.5726  2.4156
 7522TIP3   OH246760   1.127   1.580   0.804 -0.0233 -0.0119 -0.2691
 7522TIP3    H146761   1.076   1.661   0.793 -0.9449 -0.5426 -0.0211
 7522TIP3    H246762   1.081   1.516   0.750  1.1636 -0.1872 -1.0945
 7523TIP3   OH246763   4.012   4.087   1.184 -0.0057  0.7381  0.2030
 7523TIP3    H146764   4.079   4.042   1.132 -0.1359  1.0918 -0.2846
 7523TIP3    H246765   3.956   4.130   1.119 -0.9192  0.1664  0.5891
 7524TIP3   OH246766   5.132   0.821   1.736 -0.1396  0.3670  0.4662
 7524TIP3    H146767   5.137   0.828   1.641 -2.8056  2.0685  0.3565
 7524TIP3    H246768   5.160   0.906   1.768  1.0742 -0.3051  1.2986
 7525TIP3   OH246769   0.201   4.517   2.643  0.6783 -0.1125 -0.2307
 7525TIP3    H146770   0.287   4.559   2.643  1.4923 -1.6998  0.4351
 7525TIP3    H246771   0.142   4.583   2.606  1.8984  1.5765  0.7052
 7526TIP3   OH246772   4.201   6.238   0.584  0.0292 -0.8711 -0.1987
 7526TIP3    H146773   4.260   6.169   0.612 -1.2353 -1.5892  0.7679
 7526TIP3    H246774   4.114   6.200   0.589 -0.7187  0.8098  0.4608
 7527TIP3   OH246775   1.308   2.224   1.462 -0.0780 -0.1186 -0.0258
 7527TIP3    H146776   1.283   2.237   1.371 -0.4836  1.3262  0.2524
 7527TIP3    H246777   1.373   2.154   1.460 -1.1609 -1.1531 -1.2401
 7528TIP3   OH246778   3.970   3.944   3.249 -0.3262 -0.0478  0.2543
 7528TIP3    H146779   3.941   4.012   3.188  0.6353  0.1767  0.0331
 7528TIP3    H246780   3.999   3.993   3.327 -0.1029 -0.2316  0.2897
 7529TIP3   OH246781   7.346   6.424   1.262  0.2474 -0.1199  0.1240
 7529TIP3    H146782   7.362   6.364   1.335  0.2585  0.2289  0.4085
 7529TIP3    H246783   7.277   6.382   1.211  1.1879 -1.0517 -0.4408
 7530TIP3   OH246784   2.091   0.549   1.046  0.3498 -0.7352  0.7384
 7530TIP3    H146785   2.051   0.616   1.102  0.6299  0.7520 -0.7635
 7530TIP3    H246786   2.026   0.534   0.977  0.7387 -1.2466  0.4797
 7531TIP3   OH246787   1.138   3.521   2.235  0.0838  0.1488  0.5954
 7531TIP3    H146788   1.179   3.577   2.169  0.7938 -0.1355  0.7981
 7531TIP3    H246789   1.100   3.583   2.298 -0.0978  0.4124  0.2370
 7532TIP3   OH246790   4.674   7.006   1.837  0.3343  0.1656 -0.0832
 7532TIP3    H146791   4.688   7.004   1.742  0.7134 -1.7128 -0.0403
 7532TIP3    H246792   4.663   7.098   1.858  0.9265  0.6856 -1.8576
 7533TIP3   OH246793   0.709   0.804   2.361  0.1700  0.2864 -0.6589
 7533TIP3    H146794   0.743   0.752   2.434 -1.7355  1.2975  1.0448
 7533TIP3    H246795   0.770   0.878   2.354 -0.4794  1.0221  1.0077
 7534TIP3   OH246796   2.800   4.967   3.174 -0.2896 -0.0555  0.7796
 7534TIP3    H146797   2.893   4.944   3.166 -0.6758 -1.6068  0.3786
 7534TIP3    H246798   2.800   5.060   3.196  1.3427  0.0889  0.2994
 7535TIP3   OH246799   1.212   5.358   1.340  0.1817  0.6357  0.1948
 7535TIP3    H146800   1.149   5.357   1.268  0.4025 -0.1461  0.0098
 7535TIP3    H246801   1.172   5.416   1.405 -0.4357  0.6458 -0.1812
 7536TIP3   OH246802   3.139   6.880   0.710 -0.2067  0.0803 -0.4103
 7536TIP3    H146803   3.192   6.948   0.669 -2.5674  1.9302 -0.5917
 7536TIP3    H246804   3.123   6.912   0.799  3.7497 -3.2569  1.8556
 7537TIP3   OH246805   0.318   7.155   2.033 -0.6756 -0.1987  0.2933
 7537TIP3    H146806   0.304   7.090   2.102 -1.5309 -2.5868 -1.9970
 7537TIP3    H246807   0.410   7.146   2.010 -0.2894  0.8763  1.3093
 7538TIP3   OH246808   6.324   4.139   3.117  0.5680 -0.4371 -0.2246
 7538TIP3    H146809   6.324   4.044   3.124  1.2277 -0.4416 -0.2006
 7538TIP3    H246810   6.323   4.157   3.022 -1.8729 -0.4335 -0.2476
 7539TIP3   OH246811   0.453   5.025   2.016  0.2922  0.2665 -0.0853
 7539TIP3    H146812   0.501   5.009   2.097 -0.2601 -1.8527 -0.0987
 7539TIP3    H246813   0.504   5.091   1.970  1.0597  0.9027  1.6107
 7540TIP3   OH246814   5.901   1.583   2.583  0.5070  0.3507  1.2251
 7540TIP3    H146815   5.842   1.535   2.642 -0.7415 -0.5217 -0.6269
 7540TIP3    H246816   5.891   1.675   2.607  0.0195  0.0109  2.3522
 7541TIP3   OH246817   2.834   4.685   3.212 -0.0629  0.4251  0.2057
 7541TIP3    H146818   2.811   4.778   3.211  0.0105  0.4465  0.6252
 7541TIP3    H246819   2.904   4.678   3.276  0.1521  0.1296 -0.0589
 7542TIP3   OH246820   2.517   6.809   2.269  0.2702  0.1618  0.3003
 7542TIP3    H146821   2.583   6.852   2.214  1.0504 -0.8340  0.4121
 7542TIP3    H246822   2.489   6.876   2.332  1.7570  0.3926  0.7476
 7543TIP3   OH246823   7.070   4.014   1.357  0.1433 -0.0464  0.1828
 7543TIP3    H146824   7.100   4.054   1.439  0.6802 -1.0113  0.4672
 7543TIP3    H246825   6.974   4.020   1.361  0.0124 -2.2749  2.0518
 7544TIP3   OH246826   4.796   1.752   3.336 -0.3819 -0.0857 -0.0250
 7544TIP3    H146827   4.831   1.736   3.249  1.3751 -1.5542  0.8568
 7544TIP3    H246828   4.795   1.666   3.378 -2.8835  0.2859  0.8586
 7545TIP3   OH246829   4.476   1.295   2.372 -0.1095  0.1328  0.1287
 7545TIP3    H146830   4.507   1.268   2.459 -0.0498  1.5419  0.5760
 7545TIP3    H246831   4.406   1.234   2.351 -0.3196 -0.0538  1.3114
 7546TIP3   OH246832   3.387   4.419   1.703  0.0508  0.1102  0.4151
 7546TIP3    H146833   3.294   4.397   1.707  0.4663 -1.6553  3.2773
 7546TIP3    H246834   3.421   4.366   1.632 -0.4092 -2.9681  2.3154
 7547TIP3   OH246835   1.687   6.181   0.594  0.1734 -0.2898  0.2764
 7547TIP3    H146836   1.772   6.139   0.580 -0.8310 -2.1990 -0.5335
 7547TIP3    H246837   1.663   6.158   0.683  0.0098 -0.7124  0.1245
 7548TIP3   OH246838   1.614   5.241   0.574 -0.2695 -0.5335  0.5972
 7548TIP3    H146839   1.637   5.149   0.583  1.1727 -0.2474  0.1638
 7548TIP3    H246840   1.571   5.247   0.488  1.9886 -0.4304 -0.5995
 7549TIP3   OH246841   2.791   6.379   2.094 -0.1385 -0.6271 -0.3312
 7549TIP3    H146842   2.735   6.308   2.124 -2.5730  1.1953 -0.2899
 7549TIP3    H246843   2.777   6.382   1.999 -0.6625  0.2481 -0.2369
 7550TIP3   OH246844   2.175   4.958   2.913 -0.2464 -0.0939 -0.5352
 7550TIP3    H146845   2.257   4.915   2.937 -0.7846 -0.2046  1.2943
 7550TIP3    H246846   2.131   4.896   2.855 -1.1589 -2.3603  2.2842
 7551TIP3   OH246847   4.107   7.508   2.174  0.1070  0.3994  0.0302
 7551TIP3    H146848   4.091   7.599   2.152  2.1887  0.6325 -0.7862
 7551TIP3    H246849   4.106   7.462   2.090 -2.1381 -0.5961  0.5357
 7552TIP3   OH246850   7.589   0.106   2.939 -0.2801  0.3525 -0.0336
 7552TIP3    H146851   7.676   0.078   2.909 -0.0962  0.4860  0.3758
 7552TIP3    H246852   7.553   0.030   2.985 -0.4233  0.2642 -0.2868
 7553TIP3   OH246853   6.091   2.998   2.712 -0.2206 -0.1845  0.2253
 7553TIP3    H146854   6.142   3.016   2.633 -0.5679  0.3298  0.1133
 7553TIP3    H246855   6.099   3.078   2.765 -0.6442 -0.2163  0.3447
 7554TIP3   OH246856   4.421   0.711   1.025  0.3900 -0.6735  0.0717
 7554TIP3    H146857   4.442   0.744   0.938  0.1228 -1.7048 -0.3981
 7554TIP3    H246858   4.370   0.781   1.066  1.8546  0.4766  0.0028
 7555TIP3   OH246859   2.518   5.750   0.993 -0.7153 -0.1032 -0.1227
 7555TIP3    H146860   2.571   5.829   1.004  1.3062 -1.2890 -0.8391
 7555TIP3    H246861   2.429   5.778   1.015  0.3547  1.6753  2.5299
 7556TIP3   OH246862   7.168   1.331   1.651 -0.0660 -0.2479  0.3674
 7556TIP3    H146863   7.232   1.286   1.597 -0.9645 -2.0730  0.7689
 7556TIP3    H246864   7.116   1.383   1.590  1.1820  0.5643 -0.0566
 7557TIP3   OH246865   5.130   7.169   3.811  0.0938  0.4343  0.2403
 7557TIP3    H146866   5.110   7.108   3.740 -2.5455  1.1406  0.2669
 7557TIP3    H246867   5.226   7.178   3.809  0.3459 -1.7839 -1.3152
 7558TIP3   OH246868   0.729   7.444   1.205 -0.4045  0.1220  0.2496
 7558TIP3    H146869   0.640   7.451   1.239 -0.7894 -1.5891 -0.3267
 7558TIP3    H246870   0.719   7.398   1.122  1.1767 -1.6777  0.9842
 7559TIP3   OH246871   0.320   1.755   1.066 -0.5003 -0.3972 -0.2484
 7559TIP3    H146872   0.371   1.737   1.144  1.6184  4.4864 -0.1119
 7559TIP3    H246873   0.358   1.701   0.998  1.4216 -0.6681  0.9830
 7560TIP3   OH246874   0.664   0.662   2.067 -0.6936 -0.1529 -0.0089
 7560TIP3    H146875   0.661   0.568   2.083 -1.1133 -0.0837  0.3464
 7560TIP3    H246876   0.757   0.682   2.060 -0.5177 -0.3575  1.4060
 7561TIP3   OH246877   3.949   4.089   0.611 -0.4423 -0.4115  0.2474
 7561TIP3    H146878   3.904   4.154   0.558  0.5789  0.5294  0.4995
 7561TIP3    H246879   4.010   4.046   0.551  0.4065  0.3588  0.5273
 7562TIP3   OH246880   5.489   7.616   1.728  0.0485  0.1227 -0.0199
 7562TIP3    H146881   5.443   7.581   1.652  1.4524  0.2567 -0.9595
 7562TIP3    H246882   5.419   7.652   1.784 -1.0233 -0.2115 -1.1066
 7563TIP3   OH246883   2.432   1.654   2.684  0.3185 -0.4812 -0.1232
 7563TIP3    H146884   2.491   1.579   2.676  0.0263 -0.7159 -0.1034
 7563TIP3    H246885   2.430   1.674   2.777  0.0334 -0.7433 -0.0734
 7564TIP3   OH246886   6.916   0.936   3.132  0.4257  0.0516 -0.1292
 7564TIP3    H146887   6.846   0.910   3.072 -1.2398  0.0146  1.7092
 7564TIP3    H246888   6.924   0.862   3.192  2.4948 -0.1848 -0.6321
 7565TIP3   OH246889   6.168   3.096   2.472  0.3142  0.1415 -0.3873
 7565TIP3    H146890   6.190   3.189   2.469  1.5103 -0.1604 -1.2603
 7565TIP3    H246891   6.076   3.093   2.446  0.5978  0.9791 -1.5515
 7566TIP3   OH246892   4.512   4.853   2.226  0.3370 -0.1933  0.1594
 7566TIP3    H146893   4.477   4.924   2.172 -0.9995 -0.1978  0.9873
 7566TIP3    H246894   4.554   4.794   2.163  2.5791  1.8864 -0.4473
 7567TIP3   OH246895   4.432   5.720   3.468 -0.0654  0.1547  0.0599
 7567TIP3    H146896   4.345   5.723   3.428  0.1039  0.9734 -0.2794
 7567TIP3    H246897   4.447   5.810   3.498  0.8992  0.1562 -0.4029
 7568TIP3   OH246898   5.245   2.315   0.400  0.2266  0.3413  0.7726
 7568TIP3    H146899   5.284   2.401   0.413  0.8216  0.4616 -1.3406
 7568TIP3    H246900   5.189   2.301   0.476 -0.2584  2.8006  0.9265
 7569TIP3   OH246901   3.197   6.449   0.433 -0.0468  0.2683 -0.4743
 7569TIP3    H146902   3.279   6.423   0.391  0.0896 -1.5719  0.7832
 7569TIP3    H246903   3.191   6.543   0.418  3.5403  0.9725  1.3900
 7570TIP3   OH246904   1.778   4.540   2.834 -0.0741 -0.3080 -0.0592
 7570TIP3    H146905   1.845   4.571   2.895 -0.8943 -0.3647  0.8921
 7570TIP3    H246906   1.815   4.461   2.796  0.5910 -0.0868  0.1172
 7571TIP3   OH246907   3.817   3.784   0.409 -0.5850  0.1411 -0.1722
 7571TIP3    H146908   3.800   3.694   0.380 -0.9776  0.2936 -0.4241
 7571TIP3    H246909   3.900   3.807   0.368 -0.4770 -0.1123 -0.0966
 7572TIP3   OH246910   7.088   0.992   1.867  0.2855 -0.1647  0.0637
 7572TIP3    H146911   7.093   1.081   1.901  2.2356 -0.1418 -0.1373
 7572TIP3    H246912   7.086   0.936   1.944  0.0448  0.0302  0.1968
 7573TIP3   OH246913   7.067   6.268   2.553 -0.5894  0.5478 -0.0451
 7573TIP3    H146914   7.098   6.250   2.465  0.0493  2.4057 -0.2524
 7573TIP3    H246915   7.146   6.275   2.606 -0.8210  1.7363  0.1755
 7574TIP3   OH246916   7.100   7.634   2.039 -0.3983  0.5284 -0.0858
 7574TIP3    H146917   7.134   7.705   1.985  1.2578 -1.4665 -1.8492
 7574TIP3    H246918   7.133   7.652   2.127  1.3884  1.1061 -0.8376
 7575TIP3   OH246919   6.668   4.415   0.987  0.1618  0.4155 -0.1643
 7575TIP3    H146920   6.715   4.436   0.907  1.9807  1.4327  1.0822
 7575TIP3    H246921   6.728   4.357   1.035 -2.1179 -2.7175 -0.7420
 7576TIP3   OH246922   7.166   6.541   1.548  0.3660 -0.0938  0.0613
 7576TIP3    H146923   7.171   6.630   1.584  1.0925 -0.5038  1.0011
 7576TIP3    H246924   7.241   6.495   1.586 -0.4974 -1.3692  0.2839
 7577TIP3   OH246925   6.503   6.738   0.372  0.0047 -0.1294  0.1170
 7577TIP3    H146926   6.517   6.645   0.352  2.8613 -0.1078  1.4803
 7577TIP3    H246927   6.589   6.769   0.401 -0.3371  3.4389 -2.0703
 7578TIP3   OH246928   1.846   3.989   2.209 -0.5837  0.2271  0.4472
 7578TIP3    H146929   1.844   3.948   2.295 -1.0359  0.0444  0.3523
 7578TIP3    H246930   1.831   4.082   2.226 -1.3013  0.1030  0.5141
 7579TIP3   OH246931   2.894   6.145   1.791 -0.3332 -0.2485  0.2914
 7579TIP3    H146932   2.814   6.124   1.743 -1.6043  1.7198  1.4121
 7579TIP3    H246933   2.915   6.235   1.766  1.4937 -0.6799  0.1107
 7580TIP3   OH246934   5.631   2.654   0.710 -0.0166 -0.5237  0.1540
 7580TIP3    H146935   5.556   2.670   0.768  1.4145  0.3445  1.8657
 7580TIP3    H246936   5.674   2.739   0.701  0.8093 -1.0062 -0.7482
 7581TIP3   OH246937   1.069   4.496   2.359  0.7583  0.7893 -0.5110
 7581TIP3    H146938   1.101   4.579   2.394 -0.1804  1.0055 -0.1219
 7581TIP3    H246939   0.980   4.516   2.327  0.4230 -0.1128 -0.1907
 7582TIP3   OH246940   0.890   4.486   0.854  0.0850  0.0441 -0.2909
 7582TIP3    H146941   0.937   4.457   0.775  1.3318  0.0930  0.4053
 7582TIP3    H246942   0.951   4.544   0.899 -0.0020 -1.1235  1.4533
 7583TIP3   OH246943   1.730   1.661   1.760 -0.0941  0.1787  0.2073
 7583TIP3    H146944   1.795   1.596   1.788  0.6921  0.3482 -1.1088
 7583TIP3    H246945   1.646   1.616   1.768  0.4280 -0.9901 -0.5574
 7584TIP3   OH246946   2.416   7.290   1.210  0.5451 -0.1395 -0.0063
 7584TIP3    H146947   2.374   7.283   1.124  0.8856 -0.9260 -0.1256
 7584TIP3    H246948   2.345   7.309   1.271  0.0378 -1.1590 -0.2503
 7585TIP3   OH246949   3.680   6.894   0.960  0.2722  0.2220 -0.3032
 7585TIP3    H146950   3.613   6.830   0.986 -0.2868  0.2400 -1.6437
 7585TIP3    H246951   3.648   6.977   0.997  0.1055  0.0483 -0.0471
 7586TIP3   OH246952   1.583   3.480   0.708 -0.2738  0.5085 -0.4909
 7586TIP3    H146953   1.502   3.494   0.659 -0.4995  0.6756 -0.0706
 7586TIP3    H246954   1.556   3.475   0.800  0.3476  1.9073 -0.2119
 7587TIP3   OH246955   5.770   4.307   0.480 -0.3234  0.3161 -0.1980
 7587TIP3    H146956   5.784   4.396   0.447  1.1786  1.1393  2.3212
 7587TIP3    H246957   5.717   4.318   0.558  0.2328 -0.9384  0.3975
 7588TIP3   OH246958   1.340   2.687   2.784  0.0094 -0.4624  0.0407
 7588TIP3    H146959   1.372   2.716   2.698 -1.2521  0.2396 -0.2071
 7588TIP3    H246960   1.402   2.619   2.810  0.3473 -0.7814 -1.4840
 7589TIP3   OH246961   1.965   7.336   1.265  0.5843  0.0455  0.2514
 7589TIP3    H146962   1.970   7.253   1.313  2.1150 -0.0137  0.0423
 7589TIP3    H246963   1.971   7.311   1.173  0.6759  0.3662  0.1701
 7590TIP3   OH246964   6.456   6.276   2.449  0.0580 -0.1275 -0.4604
 7590TIP3    H146965   6.502   6.297   2.531  2.4156 -0.3352 -1.6400
 7590TIP3    H246966   6.400   6.352   2.432  1.2253  0.9142  0.2249
 7591TIP3   OH246967   3.956   5.557   0.465  0.6341  0.2911 -0.3532
 7591TIP3    H146968   4.002   5.479   0.436 -1.0526 -0.2235 -1.8286
 7591TIP3    H246969   3.899   5.527   0.536  0.9181  0.4556 -0.0535
 7592TIP3   OH246970   1.686   0.904   1.477  0.0842  0.1472 -0.2496
 7592TIP3    H146971   1.692   0.841   1.549  3.6499  1.9779  1.3289
 7592TIP3    H246972   1.730   0.860   1.404 -0.1145 -0.2965 -0.1078
 7593TIP3   OH246973   1.451   4.157   1.174  0.0073  0.3351  0.2664
 7593TIP3    H146974   1.495   4.239   1.152 -1.5506  1.3400  0.7417
 7593TIP3    H246975   1.372   4.157   1.121 -1.4034  0.5160  2.2491
 7594TIP3   OH246976   5.521   1.701   0.517  0.3735 -0.0033 -0.3899
 7594TIP3    H146977   5.453   1.681   0.452  1.9572 -0.4353 -2.0013
 7594TIP3    H246978   5.504   1.641   0.589 -0.7670 -0.3011 -0.8785
 7595TIP3   OH246979   6.146   5.392   1.728  0.1862  0.2287  0.3012
 7595TIP3    H146980   6.156   5.352   1.641 -0.4944  0.9388 -0.1109
 7595TIP3    H246981   6.163   5.320   1.789 -1.0985 -0.7277 -0.4197
 7596TIP3   OH246982   5.644   0.740   1.769  0.2459 -0.3409 -0.0710
 7596TIP3    H146983   5.702   0.816   1.772  0.1331 -0.2960  1.1027
 7596TIP3    H246984   5.629   0.716   1.860 -2.0323 -0.0003 -0.2907
 7597TIP3   OH246985   6.301   5.720   1.974  0.6403  0.2490  0.4469
 7597TIP3    H146986   6.237   5.656   2.006  2.8791 -2.7674 -0.6115
 7597TIP3    H246987   6.291   5.719   1.879  0.5822  1.7186  0.4068
 7598TIP3   OH246988   6.575   5.784   2.314  0.3902 -0.2057 -0.0027
 7598TIP3    H146989   6.595   5.809   2.224  0.1475 -0.1328 -0.0344
 7598TIP3    H246990   6.535   5.861   2.352  0.9603 -0.0613  0.3203
 7599TIP3   OH246991   3.010   3.138   1.959 -0.0161 -0.3702  0.0133
 7599TIP3    H146992   2.960   3.072   2.005 -0.5602 -0.7820 -1.1332
 7599TIP3    H246993   2.944   3.193   1.916  0.4397  0.6776  0.6055
 7600TIP3   OH246994   5.897   1.224   2.825  0.0814 -0.6161 -0.2494
 7600TIP3    H146995   5.855   1.220   2.911  0.2816 -1.6799 -0.1929
 7600TIP3    H246996   5.829   1.257   2.767 -0.1958 -0.3255  0.2299
 7601TIP3   OH246997   3.079   4.946   3.166 -0.3622 -0.2026  0.0105
 7601TIP3    H146998   3.080   4.872   3.228  1.0169 -1.7562 -1.7571
 7601TIP3    H246999   3.167   4.947   3.128 -0.1346  2.7881  0.3854
 7602TIP3   OH247000   1.133   2.083   0.821 -0.0297 -0.5082  0.5105
 7602TIP3    H147001   1.071   2.141   0.865  0.4844 -0.3977  1.1070
 7602TIP3    H247002   1.135   2.114   0.730 -2.3856 -1.7968 -0.0593
 7603TIP3   OH247003   1.863   6.251   1.922  0.4852 -0.2671 -0.4314
 7603TIP3    H147004   1.807   6.207   1.986  1.0858  0.4709  0.6439
 7603TIP3    H247005   1.804   6.274   1.850 -0.6557  0.6293  0.7306
 7604TIP3   OH247006   4.867   0.864   1.785  0.2949  0.4935 -0.1767
 7604TIP3    H147007   4.958   0.834   1.774  0.2491  0.3728 -0.2193
 7604TIP3    H247008   4.847   0.910   1.704 -0.0240 -0.3455 -0.5858
 7605TIP3   OH247009   1.170   4.371   1.987 -0.1357  0.6414 -0.4541
 7605TIP3    H147010   1.131   4.387   1.901  0.0643  0.9644 -0.4838
 7605TIP3    H247011   1.237   4.305   1.970 -0.2125  0.5790 -0.5169
 7606TIP3   OH247012   3.059   5.326   0.818  0.0502 -0.1093  0.3585
 7606TIP3    H147013   3.010   5.358   0.742  1.5918 -1.0195 -1.1183
 7606TIP3    H247014   3.026   5.237   0.833 -0.9069  0.4022  1.3899
 7607TIP3   OH247015   7.661   6.065   0.784 -0.3193 -0.2262  0.2792
 7607TIP3    H147016   7.663   5.970   0.773  1.3355  0.0163 -2.2141
 7607TIP3    H247017   7.753   6.089   0.798 -0.4451  1.1583 -1.0893
 7608TIP3   OH247018   4.293   5.423   1.109  0.3495 -0.5058 -0.3048
 7608TIP3    H147019   4.283   5.512   1.143 -0.7901 -0.4600 -0.7345
 7608TIP3    H247020   4.204   5.391   1.098  0.7323 -1.3091 -1.1826
 7609TIP3   OH247021   0.227   4.129   3.181  0.5025 -0.5256 -0.4476
 7609TIP3    H147022   0.267   4.068   3.119 -0.2795 -0.9545 -0.5447
 7609TIP3    H247023   0.161   4.176   3.129  0.4159 -0.2944 -0.1332
 7610TIP3   OH247024   2.065   4.148   1.551  0.1125  0.1428 -0.5507
 7610TIP3    H147025   2.149   4.193   1.559 -0.0295  0.8382 -2.3047
 7610TIP3    H247026   2.071   4.073   1.610  1.3284  1.0722  0.5650
 7611TIP3   OH247027   2.451   5.371   1.142 -0.7758  0.3976 -0.0184
 7611TIP3    H147028   2.432   5.293   1.090 -2.3468  1.6919 -1.4800
 7611TIP3    H247029   2.537   5.400   1.111 -0.6472 -0.1645 -0.1999
 7612TIP3   OH247030   4.330   0.850   3.250 -0.1828 -0.0107  0.2159
 7612TIP3    H147031   4.248   0.858   3.299 -1.5730 -0.5592 -1.9258
 7612TIP3    H247032   4.318   0.904   3.173  0.3494 -2.2260 -1.5295
 7613TIP3   OH247033   1.260   7.477   1.106 -0.3212 -0.3486  0.4030
 7613TIP3    H147034   1.305   7.551   1.148  0.0168 -0.2747 -0.0833
 7613TIP3    H247035   1.170   7.482   1.140 -0.4553  0.6292 -0.0424
 7614TIP3   OH247036   4.123   5.710   1.522 -0.1180 -0.4885  0.2955
 7614TIP3    H147037   4.123   5.667   1.608  1.1063 -2.7521 -0.7455
 7614TIP3    H247038   4.031   5.712   1.497 -0.6731  1.4736  2.1727
 7615TIP3   OH247039   0.409   2.115   2.932  0.6906  0.7885  0.4311
 7615TIP3    H147040   0.388   2.177   2.861 -0.7190 -0.0759  0.0424
 7615TIP3    H247041   0.351   2.142   3.004  0.4097  0.2194  0.4208
 7616TIP3   OH247042   7.269   4.718   1.306 -0.0732 -0.0403  0.5680
 7616TIP3    H147043   7.266   4.814   1.307 -1.6526 -0.0634  0.2483
 7616TIP3    H247044   7.211   4.692   1.378  1.0387 -0.7733  1.2328
 7617TIP3   OH247045   2.320   2.912   0.707 -0.0573 -0.4388  0.3286
 7617TIP3    H147046   2.315   3.000   0.672  1.3387 -0.0652  1.0029
 7617TIP3    H247047   2.243   2.867   0.671  0.8020  0.1502 -2.5039
 7618TIP3   OH247048   1.623   4.648   0.537  0.0038 -0.6410 -0.1790
 7618TIP3    H147049   1.574   4.724   0.505 -1.2452 -1.4372 -0.2512
 7618TIP3    H247050   1.714   4.668   0.518 -0.4765 -0.0434 -2.0490
 7619TIP3   OH247051   4.297   6.906   1.982  0.1160 -0.5598  0.1441
 7619TIP3    H147052   4.332   6.842   2.045  2.4650  0.3702 -0.1103
 7619TIP3    H247053   4.316   6.867   1.896  1.3959  0.3372 -0.0090
 7620TIP3   OH247054   3.879   5.551   3.015 -0.2740 -0.8193 -0.2480
 7620TIP3    H147055   3.935   5.543   3.092  0.6924  0.6742 -0.7532
 7620TIP3    H247056   3.820   5.475   3.020 -0.9881 -0.1998  2.5367
 7621TIP3   OH247057   6.712   0.336   3.219 -0.3954 -0.1056  0.2218
 7621TIP3    H147058   6.782   0.272   3.230 -0.2202  0.0631  0.0993
 7621TIP3    H247059   6.703   0.376   3.306 -0.4840 -0.2723  0.2905
 7622TIP3   OH247060   5.664   4.371   2.837 -0.3139 -0.8622 -0.2734
 7622TIP3    H147061   5.595   4.424   2.876 -0.3273 -0.1197 -1.2820
 7622TIP3    H247062   5.673   4.296   2.897 -0.0383  0.4307  1.3675
 7623TIP3   OH247063   0.698   4.797   1.864  0.0693 -0.0127  0.6475
 7623TIP3    H147064   0.691   4.892   1.871  0.3620  0.3775 -2.7922
 7623TIP3    H247065   0.619   4.770   1.817  0.7490 -1.2441  0.1463
 7624TIP3   OH247066   6.656   0.630   2.829 -0.1529 -0.0625 -0.6248
 7624TIP3    H147067   6.631   0.539   2.846  1.2197 -1.0885 -3.3053
 7624TIP3    H247068   6.611   0.681   2.896 -1.7146 -2.6171  0.4291
 7625TIP3   OH247069   2.113   2.272   2.852 -0.2041 -0.0131  0.7815
 7625TIP3    H147070   2.102   2.221   2.772  3.9476 -0.6922  0.4389
 7625TIP3    H247071   2.136   2.208   2.919  1.0705  0.9705  1.3224
 7626TIP3   OH247072   2.104   5.476   1.750  0.1109  0.4603 -0.3390
 7626TIP3    H147073   2.077   5.446   1.663 -1.3231  0.9280 -0.0763
 7626TIP3    H247074   2.039   5.440   1.809  0.9102  0.3957  0.5225
 7627TIP3   OH247075   6.823   0.728   2.004  0.0982  0.4421 -0.2418
 7627TIP3    H147076   6.792   0.699   1.918  2.1814 -0.8982 -0.6324
 7627TIP3    H247077   6.907   0.772   1.985  1.4227 -1.3179  1.1840
 7628TIP3   OH247078   6.557   6.039   2.080  0.3357 -0.6010 -0.2312
 7628TIP3    H147079   6.477   6.013   2.125 -0.1465 -1.3493 -1.4709
 7628TIP3    H247080   6.599   6.101   2.140 -0.9077 -0.5769  0.6563
 7629TIP3   OH247081   5.798   3.737   2.359 -0.1896 -0.4718 -0.0315
 7629TIP3    H147082   5.816   3.736   2.265 -1.6102 -1.0842 -0.3289
 7629TIP3    H247083   5.873   3.782   2.397  0.5643 -0.4743 -1.4227
 7630TIP3   OH247084   1.137   5.939   2.979 -0.4959 -0.0256 -0.3287
 7630TIP3    H147085   1.102   6.012   3.029 -0.6118  0.9514 -1.7697
 7630TIP3    H247086   1.229   5.935   3.001 -0.7585 -0.3256  0.7732
 7631TIP3   OH247087   4.950   4.694   1.456  0.2504 -0.6496  0.2520
 7631TIP3    H147088   4.977   4.779   1.490  0.7155 -0.7882  0.2316
 7631TIP3    H247089   5.031   4.643   1.451  0.3825 -0.3135 -1.9968
 7632TIP3   OH247090   6.917   0.293   2.927  0.0645 -0.4017 -0.2188
 7632TIP3    H147091   6.893   0.260   3.014 -2.0899  1.0662 -0.1681
 7632TIP3    H247092   6.861   0.245   2.867 -0.4668  0.5541 -0.4983
 7633TIP3   OH247093   0.053   2.687   2.538  0.4085 -0.2270  0.3580
 7633TIP3    H147094  -0.022   2.668   2.483  0.5501 -1.6572  0.6265
 7633TIP3    H247095   0.114   2.735   2.481  0.4113 -1.3882 -0.6418
 7634TIP3   OH247096   6.573   1.381   3.152 -0.5567 -0.3441  0.0417
 7634TIP3    H147097   6.596   1.313   3.216  0.4404 -0.7299 -0.6923
 7634TIP3    H247098   6.653   1.393   3.101 -0.6956  1.4467  0.2072
 7635TIP3   OH247099   7.075   3.007   1.654  0.0720  0.1640 -0.8952
 7635TIP3    H147100   7.121   3.087   1.631  2.3326 -0.9121 -0.3726
 7635TIP3    H247101   7.143   2.940   1.660 -1.4283 -1.3262  0.9268
 7636TIP3   OH247102   2.531   3.364   1.426 -0.1830 -0.0702  0.0135
 7636TIP3    H147103   2.576   3.382   1.343 -0.1062 -0.1546  0.0376
 7636TIP3    H247104   2.442   3.341   1.399  0.3043 -1.8836 -0.1763
 7637TIP3   OH247105   4.926   1.522   2.327  0.3363 -0.3146  0.4392
 7637TIP3    H147106   4.921   1.539   2.233 -0.6757 -1.2013  0.3162
 7637TIP3    H247107   4.839   1.545   2.360  1.2274  1.8444  1.5179
 7638TIP3   OH247108   2.755   6.064   2.664  0.0862 -0.4851  0.4027
 7638TIP3    H147109   2.810   6.103   2.597 -1.7940  1.5268 -0.0674
 7638TIP3    H247110   2.794   5.978   2.680  1.1311 -0.6677 -2.5767
 7639TIP3   OH247111   4.790   3.354   1.192 -0.2722 -0.3973 -0.3081
 7639TIP3    H147112   4.821   3.437   1.156 -1.0445 -0.2877 -0.7452
 7639TIP3    H247113   4.863   3.294   1.182 -0.2267 -0.1704 -1.4058
 7640TIP3   OH247114   7.515   4.231   3.203 -0.7105 -0.2924 -0.3679
 7640TIP3    H147115   7.528   4.321   3.175 -1.5146 -0.9106 -3.0279
 7640TIP3    H247116   7.572   4.179   3.146 -1.2834 -1.5657  0.1596
 7641TIP3   OH247117   4.600   3.670   1.756  0.2742  0.3798  0.3948
 7641TIP3    H147118   4.681   3.621   1.742  0.1620  0.6896 -1.6099
 7641TIP3    H247119   4.545   3.611   1.808  1.2541 -0.3907  0.5922
 7642TIP3   OH247120   1.804   1.979   2.795 -0.4497 -0.1697  0.1178
 7642TIP3    H147121   1.820   2.016   2.882 -0.8573  0.8325 -0.2199
 7642TIP3    H247122   1.873   1.913   2.784  0.0174  0.1644  0.9267
 7643TIP3   OH247123   1.461   6.362   2.844  0.0857  0.0651  0.3262
 7643TIP3    H147124   1.410   6.334   2.920  1.0118 -0.8554  0.6288
 7643TIP3    H247125   1.395   6.395   2.783 -0.7814 -0.1901  1.0905
 7644TIP3   OH247126   1.143   5.870   2.705  0.1882  0.3112 -0.6009
 7644TIP3    H147127   1.154   5.903   2.794  0.4573 -3.1659  0.8148
 7644TIP3    H247128   1.233   5.852   2.675 -0.0159 -2.4059  0.1657
 7645TIP3   OH247129   0.699   2.782   2.374 -0.2203  0.3625  0.0859
 7645TIP3    H147130   0.612   2.747   2.393  0.1318 -1.7665 -1.8077
 7645TIP3    H247131   0.759   2.714   2.405  0.6243  0.5801 -1.0341
 7646TIP3   OH247132   3.729   6.532   1.916 -0.0270 -0.2747 -0.2502
 7646TIP3    H147133   3.795   6.601   1.926  0.1899 -0.5049 -0.1011
 7646TIP3    H247134   3.668   6.567   1.850  0.2595 -0.0743 -0.4114
 7647TIP3   OH247135   2.378   7.146   1.909 -0.0539 -0.5476 -0.1694
 7647TIP3    H147136   2.432   7.117   1.836  1.4697 -0.0815  0.7403
 7647TIP3    H247137   2.419   7.107   1.986 -1.0943 -0.2778  0.5384
 7648TIP3   OH247138   3.052   4.949   1.503 -0.1369 -0.3998  0.1817
 7648TIP3    H147139   2.971   4.998   1.486  1.5194  2.0256 -1.2847
 7648TIP3    H247140   3.051   4.879   1.438  0.4650  1.6481 -2.1462
 7649TIP3   OH247141   2.944   5.618   1.465  0.0186  0.1894 -1.3775
 7649TIP3    H147142   2.955   5.707   1.500  2.6539 -0.4324 -0.3605
 7649TIP3    H247143   2.871   5.582   1.514  1.0116  0.7368  0.6192
 7650TIP3   OH247144   4.988   5.495   1.694  0.5274  0.2826  0.6354
 7650TIP3    H147145   4.967   5.419   1.747 -0.6624  0.8715  1.0577
 7650TIP3    H247146   4.948   5.569   1.741  0.0020  0.9102 -0.7248
 7651TIP3   OH247147   5.064   4.776   2.192 -0.0415 -0.2151  0.1859
 7651TIP3    H147148   5.141   4.750   2.243  0.4253 -0.6927 -0.7229
 7651TIP3    H247149   4.995   4.788   2.257  0.7865  0.1800  1.0204
 7652TIP3   OH247150   6.101   4.881   1.458 -0.4942 -0.0038  0.3615
 7652TIP3    H147151   6.106   4.856   1.366  2.7041  0.1762  0.3630
 7652TIP3    H247152   6.043   4.957   1.459 -2.5841 -1.4714 -1.0606
 7653TIP3   OH247153   3.437   0.632   2.229  0.0731  0.0602 -0.2221
 7653TIP3    H147154   3.376   0.702   2.205 -0.8396 -0.9954 -1.0875
 7653TIP3    H247155   3.380   0.558   2.253  0.9661 -1.2621 -1.9822
 7654TIP3   OH247156   2.726   4.642   2.299 -0.1640 -1.2328  0.7084
 7654TIP3    H147157   2.646   4.592   2.315 -0.6238 -0.8364 -0.3113
 7654TIP3    H247158   2.740   4.637   2.205 -0.7649  1.3057  0.4022
 7655TIP3   OH247159   4.695   6.729   2.974 -0.3181  0.4814  0.5144
 7655TIP3    H147160   4.776   6.705   3.017 -0.2147  0.5106  0.3364
 7655TIP3    H247161   4.645   6.777   3.041  0.4589  1.8202  0.1820
 7656TIP3   OH247162   4.119   3.198   1.519 -0.6273 -0.0981  0.0522
 7656TIP3    H147163   4.096   3.105   1.524 -1.7700  0.1973  0.6175
 7656TIP3    H247164   4.049   3.237   1.467  0.7279  0.2018 -1.6558
 7657TIP3   OH247165   2.783   0.284   1.526  0.1073 -0.6584  0.2161
 7657TIP3    H147166   2.827   0.285   1.441  1.1579 -0.3397  0.7541
 7657TIP3    H247167   2.832   0.347   1.579 -0.1033 -1.3746  1.2800
 7658TIP3   OH247168   7.199   7.096   2.842  0.2502 -0.4500 -0.1670
 7658TIP3    H147169   7.228   7.185   2.864  0.3077 -0.4285 -0.3240
 7658TIP3    H247170   7.243   7.077   2.759  0.3911 -0.6995 -0.0353
 7659TIP3   OH247171   2.056   4.039   0.849  0.3652  1.0656  0.0086
 7659TIP3    H147172   1.967   4.074   0.838 -0.5260 -0.9527  0.4264
 7659TIP3    H247173   2.066   4.028   0.944  0.6957  0.3942 -0.0989
 7660TIP3   OH247174   1.679   0.271   1.384  0.4326  0.8356  0.3129
 7660TIP3    H147175   1.768   0.260   1.416  0.7154  1.3546 -0.2669
 7660TIP3    H247176   1.631   0.310   1.456  0.9199  1.4763  0.2937
 7661TIP3   OH247177   0.274   1.876   1.941 -0.4836  0.1408  0.6442
 7661TIP3    H147178   0.228   1.830   1.871 -1.2431  1.3523  0.3086
 7661TIP3    H247179   0.276   1.967   1.911 -0.2523  0.5634  1.9200
 7662TIP3   OH247180   3.806   5.703   1.628 -0.3732  1.1218 -0.3855
 7662TIP3    H147181   3.842   5.760   1.561  0.6272 -0.6263 -1.4087
 7662TIP3    H247182   3.827   5.614   1.599 -1.2652  0.2289  1.4703
 7663TIP3   OH247183   3.747   0.506   3.016 -0.1635 -0.4856 -0.6551
 7663TIP3    H147184   3.782   0.428   3.060  0.5576  0.3028  0.2238
 7663TIP3    H247185   3.675   0.473   2.962 -2.6200 -1.2811  2.7460
 7664TIP3   OH247186   1.859   4.703   3.488 -0.0288  0.4250  0.0696
 7664TIP3    H147187   1.859   4.630   3.549  1.2782  0.2285 -0.1416
 7664TIP3    H247188   1.950   4.734   3.486 -0.4113  1.6049 -0.3793
 7665TIP3   OH247189   3.965   2.939   1.508 -0.1736 -0.0060  0.0280
 7665TIP3    H147190   4.021   2.900   1.575  0.6302  1.6575  0.3880
 7665TIP3    H247191   3.878   2.943   1.548  0.3597  1.2624  1.1434
 7666TIP3   OH247192   7.333   0.936   2.081  0.6790 -0.4545  0.4309
 7666TIP3    H147193   7.427   0.917   2.076  0.8442 -0.0925  1.7582
 7666TIP3    H247194   7.326   1.005   2.147 -0.6027 -1.0801  0.9773
 7667TIP3   OH247195   1.091   6.118   2.130  0.6298  0.2675  0.4394
 7667TIP3    H147196   1.012   6.121   2.183 -0.0356  0.5438 -0.5382
 7667TIP3    H247197   1.065   6.074   2.049  2.2668 -2.5620  1.3247
 7668TIP3   OH247198   1.469   2.249   0.822  0.1129 -0.1150  0.1526
 7668TIP3    H147199   1.440   2.322   0.767  0.1668  1.1915  1.7769
 7668TIP3    H247200   1.394   2.190   0.824 -0.5843  0.7497  0.2062
 7669TIP3   OH247201   3.691   5.413   1.217  0.4206  0.1423 -0.3477
 7669TIP3    H147202   3.722   5.444   1.132  0.2456  0.0667 -0.4404
 7669TIP3    H247203   3.648   5.489   1.256  1.5201  0.5198  0.1810
 7670TIP3   OH247204   2.457   4.177   2.287  0.1967 -0.0110  0.0389
 7670TIP3    H147205   2.391   4.238   2.319  0.4729  0.3012  0.0160
 7670TIP3    H247206   2.416   4.134   2.212  0.5659  1.3021 -0.9534
 7671TIP3   OH247207   0.947   7.219   1.559 -0.2249  0.1546 -0.6705
 7671TIP3    H147208   0.917   7.280   1.627  1.3358  0.1341  0.0828
 7671TIP3    H247209   1.010   7.163   1.604  0.0194 -0.5810 -1.8932
 7672TIP3   OH247210   3.299   6.443   0.738  0.3255 -1.2113  0.4170
 7672TIP3    H147211   3.296   6.384   0.663  0.7367 -0.8021  0.0784
 7672TIP3    H247212   3.208   6.450   0.766  0.2189 -1.6593  0.1874
 7673TIP3   OH247213   0.431   2.191   0.616 -0.0917 -0.1591 -0.0897
 7673TIP3    H147214   0.337   2.202   0.631 -0.1731 -1.0817  0.1101
 7673TIP3    H247215   0.450   2.103   0.647  0.8247 -0.0153 -0.2275
 7674TIP3   OH247216   5.361   6.024   3.337  0.1324  0.5097  0.2528
 7674TIP3    H147217   5.398   6.069   3.261  1.0050  0.8199  0.8487
 7674TIP3    H247218   5.429   6.030   3.404 -0.3019 -0.4753  0.8006
 7675TIP3   OH247219   4.312   1.857   2.169  0.0117  0.2284 -0.1809
 7675TIP3    H147220   4.237   1.872   2.226 -1.1740  0.8066 -1.7945
 7675TIP3    H247221   4.278   1.872   2.080  1.2968 -2.3422 -1.2077
 7676TIP3   OH247222   6.799   6.613   0.940 -0.3560  0.2129  0.5229
 7676TIP3    H147223   6.825   6.630   1.031  0.9321  3.0446 -0.2924
 7676TIP3    H247224   6.722   6.669   0.926 -1.5989 -1.4626  0.2808
 7677TIP3   OH247225   4.502   0.598   2.164  0.7915 -0.4443  0.2657
 7677TIP3    H147226   4.456   0.515   2.157  0.4288 -0.3446  1.3399
 7677TIP3    H247227   4.548   0.607   2.080  0.6424 -1.5958  0.0472
 7678TIP3   OH247228   6.747   4.877   2.506  0.2075 -0.1896  0.0955
 7678TIP3    H147229   6.718   4.961   2.470 -0.1028  0.0919  0.9591
 7678TIP3    H247230   6.827   4.899   2.555 -0.2645 -0.2583  0.9151
 7679TIP3   OH247231   2.268   1.305   1.392 -0.2058 -0.4178 -0.3334
 7679TIP3    H147232   2.294   1.281   1.481 -0.7988  0.2805  0.0379
 7679TIP3    H247233   2.350   1.305   1.342  0.1858 -0.4255  0.3017
 7680TIP3   OH247234   5.458   1.162   1.186 -0.8394  0.2529  0.0786
 7680TIP3    H147235   5.431   1.078   1.149 -1.2605  0.4192  0.0054
 7680TIP3    H247236   5.406   1.227   1.139 -0.3818  0.5679  0.0099
 7681TIP3   OH247237   4.656   3.619   0.643 -0.2333 -0.0906 -0.1748
 7681TIP3    H147238   4.745   3.602   0.674  0.6546  0.3375 -2.2891
 7681TIP3    H247239   4.599   3.573   0.704  1.5095 -1.4130  0.5187
 7682TIP3   OH247240   0.950   4.873   3.695  0.0287 -0.0028  0.3156
 7682TIP3    H147241   0.923   4.946   3.640 -1.0012 -0.5078  0.1177
 7682TIP3    H247242   0.887   4.803   3.675  1.1868 -1.0673  0.2517
 7683TIP3   OH247243   5.556   5.657   2.461 -1.0199  0.1317  0.0702
 7683TIP3    H147244   5.468   5.636   2.428 -1.3343  0.1508  0.8591
 7683TIP3    H247245   5.583   5.577   2.507 -1.4585  0.7698  1.5147
 7684TIP3   OH247246   2.476   2.727   1.141 -0.0390 -0.1911  0.2964
 7684TIP3    H147247   2.437   2.642   1.163  0.8874 -0.1583  2.2695
 7684TIP3    H247248   2.495   2.767   1.226  2.8247  0.4791 -0.5620
 7685TIP3   OH247249   3.872   6.931   2.265  0.2498 -0.4261  0.0048
 7685TIP3    H147250   3.959   6.971   2.259 -0.2581  1.2392  2.5283
 7685TIP3    H247251   3.868   6.894   2.353 -0.8713 -2.4188 -0.8114
 7686TIP3   OH247252   0.368   3.118   1.193  0.1720 -0.1276  0.3053
 7686TIP3    H147253   0.423   3.193   1.214  1.0880 -0.9502  0.9046
 7686TIP3    H247254   0.397   3.049   1.252  0.7778 -1.6187 -1.6383
 7687TIP3   OH247255   2.131   3.323   0.514  1.0185  0.0604 -0.1802
 7687TIP3    H147256   2.162   3.400   0.467 -0.8574  1.6339  0.9851
 7687TIP3    H247257   2.039   3.315   0.488  1.0226 -1.4398  0.1945
 7688TIP3   OH247258   6.160   1.529   2.514  0.1299 -0.0545 -0.3871
 7688TIP3    H147259   6.075   1.552   2.552  0.3540 -0.6722  0.5272
 7688TIP3    H247260   6.143   1.522   2.420 -0.7686  0.1043 -0.2468
 7689TIP3   OH247261   6.995   3.434   2.317 -0.0607 -0.2138 -0.2494
 7689TIP3    H147262   7.055   3.396   2.381  0.9697 -0.3459 -1.2556
 7689TIP3    H247263   7.035   3.415   2.232  0.5651  3.1086 -0.8480
 7690TIP3   OH247264   3.856   4.275   0.984 -0.6951 -0.4499 -0.7660
 7690TIP3    H147265   3.880   4.198   0.934  0.1632  0.0747 -1.1992
 7690TIP3    H247266   3.878   4.349   0.927  0.5670  0.1727  0.4405
 7691TIP3   OH247267   5.993   3.985   1.364 -0.1777 -0.3827 -0.3670
 7691TIP3    H147268   5.910   4.014   1.326 -0.7840 -1.8750 -0.2715
 7691TIP3    H247269   5.997   4.027   1.450 -1.0808 -0.6668 -0.1780
 7692TIP3   OH247270   7.594   4.438   2.987  0.0303  0.1440  0.2280
 7692TIP3    H147271   7.643   4.513   2.953  0.0769  0.7363  1.5613
 7692TIP3    H247272   7.626   4.363   2.936  0.5807  0.8913 -0.5466
 7693TIP3   OH247273   2.041   3.462   9.003  0.3997  0.5176  0.0704
 7693TIP3    H147274   1.962   3.476   8.952 -0.0404 -0.2493  0.5218
 7693TIP3    H247275   2.079   3.382   8.968  0.2228  0.1188  0.7685
 7694TIP3   OH247276   2.723   2.151   1.107 -0.5650  0.2019  0.0517
 7694TIP3    H147277   2.665   2.154   1.182 -1.9640 -2.8952 -0.7057
 7694TIP3    H247278   2.669   2.177   1.033 -0.2637 -0.1836 -0.3171
 7695TIP3   OH247279   1.129   0.081   2.058 -0.5405  0.1879  0.0763
 7695TIP3    H147280   1.210   0.031   2.057  0.5336  1.8142 -1.1662
 7695TIP3    H247281   1.124   0.118   2.146 -0.9802 -1.4263  0.7711
 7696TIP3   OH247282   6.167   1.951   2.892 -0.0158 -0.2181  0.3100
 7696TIP3    H147283   6.093   1.963   2.951 -0.8925  0.2855 -0.8765
 7696TIP3    H247284   6.163   1.858   2.867  1.1324 -0.7811  2.0056
 7697TIP3   OH247285   0.517   6.739   0.777 -0.2581  0.1144 -0.6809
 7697TIP3    H147286   0.508   6.744   0.681 -1.2713  2.5493 -0.5342
 7697TIP3    H247287   0.482   6.822   0.808  0.7435 -0.3174  1.7870
 7698TIP3   OH247288   1.510   0.900   1.011  0.4142  0.1859  0.7277
 7698TIP3    H147289   1.436   0.894   1.071 -0.0275  0.6094  0.2296
 7698TIP3    H247290   1.490   0.974   0.954 -0.1504 -1.4153 -1.2667
 7699TIP3   OH247291   7.368   2.276   0.932 -0.1894 -0.0541 -0.4141
 7699TIP3    H147292   7.293   2.237   0.888 -0.3472  0.2897 -0.4556
 7699TIP3    H247293   7.330   2.333   0.999 -0.1009  2.2199 -2.1412
 7700TIP3   OH247294   3.985   3.803   2.023 -0.2756  0.2106 -0.5567
 7700TIP3    H147295   4.037   3.768   1.951 -0.0124 -1.6931  0.5086
 7700TIP3    H247296   4.006   3.748   2.098 -2.2312  0.7248  0.4471
 7701TIP3   OH247297   0.120   0.306   1.470 -0.3221 -0.6057  0.4638
 7701TIP3    H147298   0.196   0.248   1.469  0.0249 -0.2125  1.6859
 7701TIP3    H247299   0.082   0.293   1.558  0.0231  1.3350  0.9263
 7702TIP3   OH247300   4.214   4.625   1.079 -0.1570 -0.4514  0.2218
 7702TIP3    H147301   4.298   4.630   1.125 -0.3077 -1.0537  0.5775
 7702TIP3    H247302   4.230   4.559   1.010  1.2616  3.0312 -3.1703
 7703TIP3   OH247303   6.863   1.292   1.913  0.2206 -0.0633 -0.3578
 7703TIP3    H147304   6.944   1.258   1.877  0.0515  0.4266 -1.2335
 7703TIP3    H247305   6.839   1.231   1.982  1.7366  0.2021  0.4411
 7704TIP3   OH247306   0.240   0.546   0.962  0.2490 -0.1686 -0.4526
 7704TIP3    H147307   0.191   0.465   0.975  0.4810 -0.5229 -1.6519
 7704TIP3    H247308   0.315   0.539   1.021 -0.6778  0.0125  0.7977
 7705TIP3   OH247309   3.987   1.084   1.867 -0.3514  0.6804 -0.1477
 7705TIP3    H147310   4.055   1.137   1.908  1.9862 -1.2534 -1.2404
 7705TIP3    H247311   3.956   1.136   1.793  0.3116  1.4093  0.0770
 7706TIP3   OH247312   5.020   6.788   1.154 -0.0906 -0.0987  0.2164
 7706TIP3    H147313   4.946   6.746   1.198 -0.8696 -0.0120 -0.9546
 7706TIP3    H247314   5.012   6.881   1.177 -1.0484  0.0968 -0.8200
 7707TIP3   OH247315   6.748   2.364   2.537  0.0678 -0.4959  0.3096
 7707TIP3    H147316   6.771   2.292   2.596 -0.1174 -1.0228 -0.2526
 7707TIP3    H247317   6.660   2.342   2.507 -0.2661  0.3174  0.6544
 7708TIP3   OH247318   1.581   6.845   1.535  0.0659 -0.2468  0.1192
 7708TIP3    H147319   1.636   6.821   1.461  0.9209 -1.3821  1.0859
 7708TIP3    H247320   1.519   6.908   1.500  1.2321  0.1578 -1.2706
 7709TIP3   OH247321   3.467   4.580   1.470  0.0868 -0.0219 -0.1004
 7709TIP3    H147322   3.480   4.487   1.490  2.6922  0.6218  1.8348
 7709TIP3    H247323   3.513   4.593   1.387  0.7206 -0.2773  0.2015
 7710TIP3   OH247324   2.957   2.383   2.668  0.0668  0.3055  0.5688
 7710TIP3    H147325   2.988   2.299   2.636 -1.2188 -1.6135  3.8647
 7710TIP3    H247326   3.036   2.435   2.680  1.6487 -2.3744  3.3071
 7711TIP3   OH247327   4.752   4.103   3.098  0.5174 -0.2815  0.2892
 7711TIP3    H147328   4.676   4.045   3.102  0.3665 -0.1216 -0.2299
 7711TIP3    H247329   4.726   4.181   3.147  0.0127  0.1496 -0.6453
 7712TIP3   OH247330   3.007   6.115   2.864  0.0059  0.1316  0.2203
 7712TIP3    H147331   3.097   6.103   2.836  0.0976  0.8224  0.1955
 7712TIP3    H247332   2.961   6.037   2.832  0.1770  0.7025 -1.5449
 7713TIP3   OH247333   5.966   6.421   3.126  0.1629 -0.3572 -0.3533
 7713TIP3    H147334   5.943   6.508   3.158 -0.0969 -1.1258  1.6806
 7713TIP3    H247335   6.057   6.408   3.153  0.5017 -0.3941 -1.4467
 7714TIP3   OH247336   3.108   3.720   1.074 -0.2502 -0.4437 -0.5007
 7714TIP3    H147337   3.131   3.781   1.144 -0.1779 -0.5196 -0.4578
 7714TIP3    H247338   3.065   3.647   1.120  2.0405 -1.7169 -0.1993
 7715TIP3   OH247339   1.675   0.468   2.392 -0.2578  0.0343  0.1152
 7715TIP3    H147340   1.644   0.555   2.369  1.8593  0.7775 -0.1372
 7715TIP3    H247341   1.655   0.459   2.485  0.3092  1.1471  0.3477
 7716TIP3   OH247342   1.258   0.502   0.947  0.3262  0.4483 -0.7334
 7716TIP3    H147343   1.202   0.532   0.875 -0.2089  0.1868 -0.4296
 7716TIP3    H247344   1.232   0.412   0.962  1.0115  0.2388 -0.7490
 7717TIP3   OH247345   0.118   3.730   2.262  0.4847 -0.4121 -0.5318
 7717TIP3    H147346   0.185   3.665   2.284  0.1614 -0.8095 -0.7016
 7717TIP3    H247347   0.037   3.693   2.296  0.3930  0.2131 -0.0520
 7718TIP3   OH247348   3.096   2.838   2.277 -0.1600  0.4356  0.4543
 7718TIP3    H147349   3.102   2.751   2.316  2.3347  0.4252  0.2136
 7718TIP3    H247350   3.186   2.871   2.276 -0.5834  1.8345 -2.0972
 7719TIP3   OH247351   3.100   0.384   2.843  0.7159  0.3257 -0.1482
 7719TIP3    H147352   3.154   0.429   2.907 -0.3200  2.8499 -0.9396
 7719TIP3    H247353   3.011   0.391   2.877  0.4510 -0.5868 -0.6150
 7720TIP3   OH247354   7.144   2.350   1.069 -0.2588 -0.1593 -0.1300
 7720TIP3    H147355   7.183   2.286   1.129  0.7616  0.9165  0.4029
 7720TIP3    H247356   7.116   2.422   1.126 -1.6595 -0.2317 -0.6853
 7721TIP3   OH247357   4.217   6.916   2.852  0.3313  0.4683 -0.4853
 7721TIP3    H147358   4.278   6.989   2.842  1.3309 -0.6408 -3.6611
 7721TIP3    H247359   4.219   6.895   2.945  2.3334  2.5226  0.0025
 7722TIP3   OH247360   5.220   0.965   2.525  0.0544  0.4622  0.1189
 7722TIP3    H147361   5.148   0.913   2.490 -1.1526  1.6342  0.7745
 7722TIP3    H247362   5.216   1.048   2.478  0.6964  0.7142  0.4796
 7723TIP3   OH247363   7.446   7.296   2.567 -0.0318  0.4556  0.0077
 7723TIP3    H147364   7.461   7.207   2.599 -1.2340 -0.1678 -1.0717
 7723TIP3    H247365   7.459   7.351   2.644 -0.0151 -0.7185  0.8887
 7724TIP3   OH247366   1.519   7.646   1.188  0.3129  0.1297  0.4137
 7724TIP3    H147367   1.534   7.740   1.198 -0.2312  0.3366 -0.6673
 7724TIP3    H247368   1.512   7.614   1.278 -2.3859  1.5926  0.8251
 7725TIP3   OH247369   6.596   7.629   1.904  0.4774  0.5481 -0.5632
 7725TIP3    H147370   6.669   7.673   1.948  0.7290  1.3244 -1.6887
 7725TIP3    H247371   6.519   7.680   1.929  0.7202  1.4547 -1.5743
 7726TIP3   OH247372   0.782   1.796   1.282 -0.4572  0.0842 -0.2591
 7726TIP3    H147373   0.796   1.878   1.330  0.1278 -0.2095  0.0824
 7726TIP3    H247374   0.833   1.806   1.202  0.7346 -0.4688  0.3969
 7727TIP3   OH247375   5.086   4.272   1.381 -0.1877  0.1186 -0.3338
 7727TIP3    H147376   4.994   4.288   1.401 -0.5851 -1.3852 -0.7877
 7727TIP3    H247377   5.085   4.194   1.326  1.3587  0.1437 -0.4472
 7728TIP3   OH247378   5.895   0.604   1.024  0.2875  0.2841 -0.0899
 7728TIP3    H147379   5.982   0.642   1.022  0.1678  0.5301 -0.9642
 7728TIP3    H247380   5.907   0.518   1.064  0.9133  0.3384 -0.1536
 7729TIP3   OH247381   4.604   6.424   2.899  0.3445 -0.0931  0.0154
 7729TIP3    H147382   4.652   6.494   2.854  1.3449 -0.9040 -0.2175
 7729TIP3    H247383   4.633   6.429   2.990  1.4185 -1.0122 -0.2591
 7730TIP3   OH247384   2.551   5.385   1.747  0.0852  0.4533  0.2794
 7730TIP3    H147385   2.508   5.340   1.674 -0.1844  0.5219  0.3934
 7730TIP3    H247386   2.491   5.456   1.770  0.2500  0.5365  0.4564
 7731TIP3   OH247387   4.251   5.441   2.199  0.3105  0.2798 -0.1907
 7731TIP3    H147388   4.166   5.417   2.237  0.0674  1.2403 -0.1033
 7731TIP3    H247389   4.310   5.447   2.273 -0.0209  1.5499 -0.0044
 7732TIP3   OH247390   6.335   1.517   1.669  0.0580 -0.8899 -0.5431
 7732TIP3    H147391   6.380   1.550   1.592  2.4618 -1.7722  0.3888
 7732TIP3    H247392   6.315   1.426   1.649 -0.2660 -0.8215 -0.5288
 7733TIP3   OH247393   2.091   0.434   0.658 -0.1404  0.3045  0.3862
 7733TIP3    H147394   1.999   0.450   0.682 -0.7789 -1.6108 -0.5310
 7733TIP3    H247395   2.128   0.389   0.734 -0.8778 -1.6466 -0.3286
 7734TIP3   OH247396   4.016   6.021   0.551  0.4992 -0.0452 -0.1662
 7734TIP3    H147397   4.030   5.926   0.558  2.1092  0.2147  0.3366
 7734TIP3    H247398   4.096   6.055   0.511 -0.9131  0.8822 -2.4061
 7735TIP3   OH247399   5.426   1.310   0.478  0.1910 -0.4930  0.0244
 7735TIP3    H147400   5.456   1.342   0.563  0.7759  1.1045 -0.7479
 7735TIP3    H247401   5.331   1.320   0.481  0.1510 -0.9500  0.6647
 7736TIP3   OH247402   6.054   0.333   1.759 -0.0420  0.3947 -0.3936
 7736TIP3    H147403   6.114   0.402   1.733 -0.2543  0.7307  0.0050
 7736TIP3    H247404   5.968   0.363   1.727 -0.2568  0.6710  0.4325
 7737TIP3   OH247405   0.648   6.987   0.971 -0.0584 -0.3547  0.2036
 7737TIP3    H147406   0.589   7.047   1.018 -1.1354 -1.0608 -0.2087
 7737TIP3    H247407   0.643   7.016   0.880  0.8520  0.0668  0.2817
 7738TIP3   OH247408   2.956   4.894   2.726  0.5450  0.1540  0.5907
 7738TIP3    H147409   3.010   4.919   2.651  0.2715  1.2188  0.7439
 7738TIP3    H247410   2.882   4.847   2.687  1.0919 -0.4930  0.3101
 7739TIP3   OH247411   3.494   7.643   3.195  0.2427 -1.5134  0.1616
 7739TIP3    H147412   3.541   7.640   3.279  0.2819 -3.9277  0.1052
 7739TIP3    H247413   3.448   7.727   3.197  2.1465 -0.4313  1.5367
 7740TIP3   OH247414   6.467   4.241   1.301 -0.3660 -0.6755  0.1686
 7740TIP3    H147415   6.413   4.281   1.233  0.7999  0.9176  0.1070
 7740TIP3    H247416   6.552   4.285   1.292 -0.2522 -0.2186  2.8029
 7741TIP3   OH247417   4.293   0.171   0.805  0.2712 -0.2988 -0.2851
 7741TIP3    H147418   4.300   0.166   0.710  3.8817  0.3637 -0.2015
 7741TIP3    H247419   4.271   0.262   0.823  0.8772 -0.1111 -0.4764
 7742TIP3   OH247420   0.348   7.391   2.535  0.3468  0.3346 -0.6211
 7742TIP3    H147421   0.259   7.375   2.566  0.3334 -0.7735 -1.1721
 7742TIP3    H247422   0.375   7.308   2.496  1.9195  0.4017  0.2431
 7743TIP3   OH247423   3.535   3.635   3.543 -0.0647 -0.1263  0.0335
 7743TIP3    H147424   3.490   3.695   3.485  4.3311  2.1896 -1.4777
 7743TIP3    H247425   3.563   3.562   3.487  2.6460  1.2444 -0.5880
 7744TIP3   OH247426   7.107   1.529   2.798  0.0995 -0.2507 -0.2385
 7744TIP3    H147427   7.112   1.450   2.743 -1.3531  0.0230 -0.8070
 7744TIP3    H247428   7.194   1.568   2.791  0.4862 -1.1716 -0.9043
 7745TIP3   OH247429   1.278   7.123   0.645 -0.2444  0.0419  0.3576
 7745TIP3    H147430   1.298   7.040   0.688  0.1024 -0.7312 -1.2158
 7745TIP3    H247431   1.334   7.188   0.689  0.6890 -0.8608  0.5352
 7746TIP3   OH247432   1.019   6.476   1.205 -0.0592  0.2584 -1.0190
 7746TIP3    H147433   1.103   6.434   1.186  1.5712  2.7704  0.1623
 7746TIP3    H247434   0.977   6.417   1.268  2.1894  0.3570  0.6820
 7747TIP3   OH247435   7.117   1.622   1.830  0.7261 -0.4451  0.2762
 7747TIP3    H147436   7.080   1.585   1.910 -0.5568  1.1318  0.4712
 7747TIP3    H247437   7.139   1.546   1.776  1.3190 -1.5276  1.9738
 7748TIP3   OH247438   1.632   3.837   1.569  0.0437 -0.1632 -0.1868
 7748TIP3    H147439   1.653   3.907   1.631 -0.8293 -0.4312  0.4341
 7748TIP3    H247440   1.600   3.882   1.491  1.8774  0.2098 -0.7721
 7749TIP3   OH247441   1.231   6.415   1.790 -0.1424  0.5639 -0.7535
 7749TIP3    H147442   1.146   6.400   1.832  0.5939  2.0042  1.3853
 7749TIP3    H247443   1.209   6.458   1.707 -1.5432 -0.1801 -0.7989
 7750TIP3   OH247444   3.382   4.836   1.458 -0.2493 -0.1483 -0.2079
 7750TIP3    H147445   3.435   4.757   1.454  0.8472  0.5564 -0.0199
 7750TIP3    H247446   3.328   4.826   1.536  1.5323  0.2755  1.1319
 7751TIP3   OH247447   1.185   6.774   1.487  0.0983 -0.3284  0.2293
 7751TIP3    H147448   1.103   6.822   1.498  1.2198  0.9992  3.9581
 7751TIP3    H247449   1.251   6.841   1.470  1.0406 -0.9215  1.3938
 7752TIP3   OH247450   2.594   1.865   2.563  0.2917  0.1526 -0.0894
 7752TIP3    H147451   2.519   1.809   2.583  1.7805 -1.4631  1.2816
 7752TIP3    H247452   2.630   1.888   2.649 -0.3975  3.5516 -0.5463
 7753TIP3   OH247453   7.288   4.777   2.060  0.2262  0.2040 -0.1991
 7753TIP3    H147454   7.278   4.869   2.086  0.5756  0.4216 -0.8324
 7753TIP3    H247455   7.331   4.780   1.975  0.2916 -0.5525 -0.1995
 7754TIP3   OH247456   4.257   0.161   2.169 -0.0227 -0.1100 -0.1381
 7754TIP3    H147457   4.195   0.138   2.100  1.3939 -1.3713 -1.0639
 7754TIP3    H247458   4.270   0.079   2.217  1.7997 -0.1886 -0.7101
 7755TIP3   OH247459   5.365   3.569   2.234  0.6613 -0.0208  0.1679
 7755TIP3    H147460   5.352   3.637   2.299 -2.1349 -0.6326  0.3603
 7755TIP3    H247461   5.324   3.603   2.155  0.5180 -0.8673 -0.1357
 7756TIP3   OH247462   2.593   5.097   2.787 -0.4576 -0.8788 -0.3314
 7756TIP3    H147463   2.557   5.142   2.710  0.5844  0.0608 -0.2991
 7756TIP3    H247464   2.654   5.033   2.751  1.1610  0.5731 -0.2939
 7757TIP3   OH247465   1.857   4.708   0.926  0.6702 -0.0187 -0.0488
 7757TIP3    H147466   1.772   4.666   0.910 -0.1221  1.2958  0.5647
 7757TIP3    H247467   1.917   4.664   0.866 -0.7256 -0.0345 -1.4862
 7758TIP3   OH247468   2.480   1.625   1.377  0.1491 -0.2830 -0.3328
 7758TIP3    H147469   2.514   1.695   1.433  1.8547 -1.8079  0.6536
 7758TIP3    H247470   2.451   1.670   1.297  0.1136  1.6464  0.7013
 7759TIP3   OH247471   3.083   7.153   3.233  0.2271 -0.6370 -0.1466
 7759TIP3    H147472   3.034   7.090   3.179 -0.7627 -1.0363  1.1686
 7759TIP3    H247473   3.023   7.175   3.305  1.2607  0.3938  0.4346
 7760TIP3   OH247474   7.470   3.700   0.691 -0.2687 -0.1566  0.0190
 7760TIP3    H147475   7.432   3.687   0.604  0.9813 -2.1591 -0.3041
 7760TIP3    H247476   7.437   3.785   0.719 -0.4969  0.6899 -2.5259
 7761TIP3   OH247477   4.848   0.874   2.872 -0.1559 -0.1131 -0.2826
 7761TIP3    H147478   4.862   0.937   2.802  1.8357 -0.9097 -0.6660
 7761TIP3    H247479   4.851   0.789   2.828 -0.3035 -0.5696  0.5683
 7762TIP3   OH247480   0.045   3.846   0.521  0.0694  0.3596  0.1364
 7762TIP3    H147481  -0.048   3.845   0.541 -0.0861 -0.6105 -0.5338
 7762TIP3    H247482   0.050   3.865   0.427  0.5204  0.0739  0.0976
 7763TIP3   OH247483   5.147   3.257   0.647  0.5524  0.0332 -0.1815
 7763TIP3    H147484   5.151   3.353   0.641 -0.5312  0.2729  2.0006
 7763TIP3    H247485   5.132   3.240   0.740 -0.4988 -2.2154 -0.7126
 7764TIP3   OH247486   4.243   2.139   1.284 -0.1970  0.1324  0.1477
 7764TIP3    H147487   4.264   2.176   1.369 -0.5535  2.9309 -0.8766
 7764TIP3    H247488   4.317   2.082   1.263  0.9011  1.0511  1.4085
 7765TIP3   OH247489   0.267   5.662   1.406  0.4969 -0.2157 -0.0620
 7765TIP3    H147490   0.246   5.575   1.440  0.0550  0.0101  0.2481
 7765TIP3    H247491   0.252   5.721   1.480  1.9749  0.0012  0.1115
 7766TIP3   OH247492   1.253   3.303   1.836  0.1858 -0.1948  0.2671
 7766TIP3    H147493   1.309   3.381   1.834 -0.4261  0.2429 -0.8868
 7766TIP3    H247494   1.277   3.258   1.917  2.4721 -0.2280 -0.3773
 7767TIP3   OH247495   5.549   5.196   1.044 -0.1040 -0.7935  0.3965
 7767TIP3    H147496   5.525   5.238   0.962 -1.1049  0.5351  1.3232
 7767TIP3    H247497   5.632   5.152   1.026  0.3312  0.5153 -0.9797
 7768TIP3   OH247498   2.279   3.275   1.352 -0.1862 -0.3380  0.2825
 7768TIP3    H147499   2.269   3.334   1.278  0.2562 -0.0503  0.4441
 7768TIP3    H247500   2.320   3.197   1.315  0.4835 -0.0033  0.3035
 7769TIP3   OH247501   6.811   7.321   0.759  0.3653 -0.6080 -0.2279
 7769TIP3    H147502   6.846   7.410   0.766 -1.4480  0.0822  0.8111
 7769TIP3    H247503   6.876   7.266   0.802  0.9595  0.3916  0.1799
 7770TIP3   OH247504   6.753   3.196   0.983 -0.5178 -0.9997  0.0691
 7770TIP3    H147505   6.671   3.156   0.954  0.3021 -2.0006 -1.0080
 7770TIP3    H247506   6.761   3.275   0.930 -0.3969 -1.3419 -0.4328
 7771TIP3   OH247507   2.696   5.634   2.566  0.2170 -0.5169  0.0537
 7771TIP3    H147508   2.687   5.538   2.561 -1.4317 -0.4171  0.5559
 7771TIP3    H247509   2.723   5.651   2.656 -0.0788 -0.4702  0.1330
 7772TIP3   OH247510   3.854   2.380   1.735  0.5015 -0.2384 -0.1396
 7772TIP3    H147511   3.797   2.394   1.660  1.8421 -0.1038 -1.1759
 7772TIP3    H247512   3.859   2.285   1.745  0.3519 -0.2563 -0.2505
 7773TIP3   OH247513   3.343   4.460   3.207 -0.3095 -0.1203 -0.0918
 7773TIP3    H147514   3.434   4.475   3.183 -0.5352 -0.7236 -1.3663
 7773TIP3    H247515   3.321   4.376   3.167 -1.6243  0.3356 -0.3731
 7774TIP3   OH247516   5.596   5.186   1.828 -0.0211  0.2994 -0.2247
 7774TIP3    H147517   5.504   5.157   1.826  0.2866 -0.7865  0.3235
 7774TIP3    H247518   5.592   5.278   1.804 -1.0482 -0.1907 -2.1574
 7775TIP3   OH247519   4.763   0.528   2.496  0.1269 -0.2735 -0.2378
 7775TIP3    H147520   4.681   0.481   2.510 -0.2979  0.8292  1.2503
 7775TIP3    H247521   4.742   0.595   2.430  0.0710 -0.5768 -0.5268
 7776TIP3   OH247522   5.533   5.541   2.155 -0.0114  0.2394 -0.1499
 7776TIP3    H147523   5.538   5.530   2.250 -1.1810 -0.9336 -0.1922
 7776TIP3    H247524   5.624   5.551   2.127  0.3678  0.3385  1.0641
 7777TIP3   OH247525   5.846   2.225   2.265 -0.6933 -0.3328  0.4038
 7777TIP3    H147526   5.848   2.318   2.288 -1.2084 -0.3401  0.4815
 7777TIP3    H247527   5.897   2.182   2.334 -1.0319 -0.1865  0.7451
 7778TIP3   OH247528   2.309   1.865   1.192 -0.4982  0.2851  0.4168
 7778TIP3    H147529   2.237   1.812   1.157  0.0962  0.4835 -1.1839
 7778TIP3    H247530   2.388   1.816   1.169 -0.0439  0.6525  1.1412
 7779TIP3   OH247531   2.821   5.241   1.296  0.5975 -0.2659  0.3139
 7779TIP3    H147532   2.846   5.332   1.277  0.9662 -0.0152  1.8707
 7779TIP3    H247533   2.888   5.189   1.251  1.2822  0.2843  0.6634
 7780TIP3   OH247534   7.605   2.251   1.112  0.0498  0.2729  0.4407
 7780TIP3    H147535   7.687   2.265   1.063  0.4408 -0.2717  0.9293
 7780TIP3    H247536   7.541   2.227   1.045  0.1773  1.1219 -0.0017
 7781TIP3   OH247537   1.700   6.776   2.920  0.5356 -0.7885 -0.0274
 7781TIP3    H147538   1.630   6.762   2.855 -0.5254 -1.4131  1.2025
 7781TIP3    H247539   1.653   6.799   3.000  1.5582 -3.3631  1.4124
 7782TIP3   OH247540   1.606   1.719   2.074  0.0956  0.0905  0.1019
 7782TIP3    H147541   1.558   1.646   2.034 -0.4569 -0.2282  1.3154
 7782TIP3    H247542   1.538   1.773   2.115  0.5533  0.9968 -0.3128
 7783TIP3   OH247543   1.089   5.099   2.354  0.2589  0.2921  0.0322
 7783TIP3    H147544   1.145   5.023   2.340  0.2186  0.4170 -0.8587
 7783TIP3    H247545   1.019   5.090   2.290 -0.3763  0.4989  0.6765
 7784TIP3   OH247546   0.759   0.520   0.502 -0.2034  0.3257 -0.6513
 7784TIP3    H147547   0.687   0.504   0.441  1.1199 -1.3374 -1.8744
 7784TIP3    H247548   0.813   0.441   0.497  1.3995  1.2627  0.6711
 7785TIP3   OH247549   3.955   2.319   0.703 -0.1798 -0.1961  0.0267
 7785TIP3    H147550   3.897   2.362   0.640  1.5819  2.3161 -0.0494
 7785TIP3    H247551   4.004   2.255   0.651  0.5782  1.1746 -0.9941
 7786TIP3   OH247552   6.923   0.242   1.837 -0.1479  0.1813 -0.1096
 7786TIP3    H147553   6.930   0.327   1.880 -2.1320 -0.7657  2.2648
 7786TIP3    H247554   6.906   0.263   1.745  0.0327  2.3224  0.3058
 7787TIP3   OH247555   6.438   0.372   2.190 -0.2541 -0.4716 -0.3522
 7787TIP3    H147556   6.489   0.365   2.110  2.5541  0.9040  1.1733
 7787TIP3    H247557   6.464   0.295   2.242  0.1079  0.0977  0.3292
 7788TIP3   OH247558   3.673   1.299   9.289 -0.5363 -0.0497  0.7296
 7788TIP3    H147559   3.600   1.322   9.347  0.1402 -1.4613  2.2160
 7788TIP3    H247560   3.711   1.383   9.264 -1.8855  0.6591  0.9669
 7789TIP3   OH247561   3.043   6.533   2.665 -0.1082 -0.0676 -0.5605
 7789TIP3    H147562   3.063   6.577   2.582 -0.5311  2.0974  0.4239
 7789TIP3    H247563   3.128   6.504   2.698  0.5493  2.2161 -0.0997
 7790TIP3   OH247564   7.610   7.010   1.295  0.2467  0.5432  0.2656
 7790TIP3    H147565   7.540   6.971   1.348  0.5032  0.7255  0.7478
 7790TIP3    H247566   7.629   7.093   1.339  1.0409  0.3107  0.3669
 7791TIP3   OH247567   1.497   7.303   0.721  0.5181  0.5874 -0.2633
 7791TIP3    H147568   1.503   7.320   0.627 -0.5336 -0.2295 -0.4952
 7791TIP3    H247569   1.582   7.266   0.745 -0.4961 -3.2366 -1.7951
 7792TIP3   OH247570   1.332   4.376   2.421  0.1108  0.0883 -0.0729
 7792TIP3    H147571   1.248   4.344   2.453 -0.1882  3.2848  3.0048
 7792TIP3    H247572   1.314   4.407   2.332 -1.5656 -0.5551  0.0093
 7793TIP3   OH247573   6.009   6.004   2.755  0.3415  0.0217 -0.1419
 7793TIP3    H147574   5.992   5.972   2.843 -2.3651  1.4299 -0.0613
 7793TIP3    H247575   6.038   6.094   2.768 -1.5922  0.7626 -0.6876
 7794TIP3   OH247576   4.589   3.946   1.819 -0.4188 -0.9102  0.6572
 7794TIP3    H147577   4.674   3.952   1.863  0.2436  2.0902 -0.8177
 7794TIP3    H247578   4.574   3.852   1.810  3.0574 -1.5795  0.4432
 7795TIP3   OH247579   3.917   4.692   1.830 -0.7013  0.3059 -0.2345
 7795TIP3    H147580   3.850   4.661   1.769 -0.4794 -0.7589  0.0418
 7795TIP3    H247581   3.895   4.651   1.913  0.1767  0.1058 -0.0908
 7796TIP3   OH247582   3.562   4.619   2.739  0.7172  0.0059  0.4007
 7796TIP3    H147583   3.566   4.523   2.729  0.8456 -0.0291  0.7821
 7796TIP3    H247584   3.539   4.633   2.831  0.1500  0.3377  0.2089
 7797TIP3   OH247585   4.754   0.676   2.278 -0.8916 -0.4640  0.2317
 7797TIP3    H147586   4.763   0.765   2.245 -1.4362 -0.5840 -0.2588
 7797TIP3    H247587   4.667   0.648   2.248 -0.5611 -1.3017  0.0252
 7798TIP3   OH247588   1.270   5.172   0.720 -0.2256 -0.2270  0.1104
 7798TIP3    H147589   1.336   5.241   0.727 -0.0874 -0.1371 -1.5302
 7798TIP3    H247590   1.196   5.214   0.676 -0.2833 -1.0007 -0.5658
 7799TIP3   OH247591   0.244   3.286   2.841  0.3986 -0.5039  0.1258
 7799TIP3    H147592   0.211   3.374   2.860  0.5187 -0.3632 -0.2972
 7799TIP3    H247593   0.337   3.300   2.821  0.8514 -0.9506  1.7824
 7800TIP3   OH247594   7.389   1.106   2.306  0.4508 -0.1384 -0.0904
 7800TIP3    H147595   7.435   1.068   2.380  0.3873 -0.2692 -0.1168
 7800TIP3    H247596   7.377   1.198   2.329 -1.8431 -0.6930  1.2265
 7801TIP3   OH247597   3.851   4.690   0.595 -0.0688 -0.1299  0.0142
 7801TIP3    H147598   3.763   4.680   0.558  0.2438 -0.1351 -0.7330
 7801TIP3    H247599   3.854   4.780   0.627 -0.0901  0.0973 -0.6265
 7802TIP3   OH247600   1.012   3.393   3.183 -0.3235 -0.2324 -0.2249
 7802TIP3    H147601   0.962   3.332   3.237  0.2165  0.6411  1.3349
 7802TIP3    H247602   1.013   3.353   3.096  1.8540 -3.6253  1.1580
 7803TIP3   OH247603   0.600   5.493   1.224 -0.1231  0.0272  0.6198
 7803TIP3    H147604   0.581   5.576   1.269  0.1327 -0.1272  1.0215
 7803TIP3    H247605   0.522   5.439   1.239 -0.6447  0.4849 -0.3538
 7804TIP3   OH247606   6.363   4.236   2.486 -0.0518 -0.7919 -0.0317
 7804TIP3    H147607   6.324   4.314   2.525  0.6855 -0.0791 -0.6727
 7804TIP3    H247608   6.333   4.163   2.541 -0.6467 -0.0431  0.6502
 7805TIP3   OH247609   2.072   3.814   2.250 -0.6746 -0.1016  0.2164
 7805TIP3    H147610   2.047   3.787   2.161 -1.3290  0.7787  0.1237
 7805TIP3    H247611   2.091   3.732   2.295 -0.3101 -0.5578 -0.7441
 7806TIP3   OH247612   2.292   5.339   2.383 -0.6196 -0.0576 -0.4471
 7806TIP3    H147613   2.259   5.279   2.316 -2.8435  1.3738 -0.7388
 7806TIP3    H247614   2.220   5.345   2.447  1.1460 -0.8077  1.7455
 7807TIP3   OH247615   1.452   1.550   1.830 -0.2615  0.0073  0.1004
 7807TIP3    H147616   1.412   1.492   1.765 -3.6319  1.2978  0.8451
 7807TIP3    H247617   1.416   1.522   1.914 -1.4642  2.6688  0.5498
 7808TIP3   OH247618   7.010   3.892   2.607  0.0842 -0.3110  0.2938
 7808TIP3    H147619   6.931   3.838   2.605  0.7300 -1.3250  1.1409
 7808TIP3    H247620   7.082   3.829   2.605  0.9002  0.6111 -0.9693
 7809TIP3   OH247621   3.674   7.648   3.397  0.0897  0.2904 -0.4760
 7809TIP3    H147622   3.758   7.687   3.375  0.3941  0.6713  1.2505
 7809TIP3    H247623   3.689   7.554   3.393  1.4054  0.2774  2.3757
 7810TIP3   OH247624   1.122   2.035   1.459 -0.1404 -0.1412 -0.0004
 7810TIP3    H147625   1.114   2.035   1.363 -0.4139 -2.0644 -0.0087
 7810TIP3    H247626   1.188   2.102   1.477  0.7454 -0.5157 -1.6225
 7811TIP3   OH247627   3.740   0.947   1.896 -0.4048  0.3807  0.1517
 7811TIP3    H147628   3.697   0.963   1.980  1.3617  1.1898  0.9588
 7811TIP3    H247629   3.819   1.001   1.898  2.0244 -2.7960 -0.1508
 7812TIP3   OH247630   3.194   2.504   1.501  0.2288 -0.3270 -0.0585
 7812TIP3    H147631   3.228   2.576   1.553 -0.5813  0.2273 -0.2770
 7812TIP3    H247632   3.237   2.426   1.536  0.2027  0.1167  0.9814
 7813TIP3   OH247633   6.010   4.627   2.420  0.1096  0.1366  0.3639
 7813TIP3    H147634   6.089   4.623   2.474 -0.2215  0.5158  0.8729
 7813TIP3    H247635   6.017   4.711   2.374 -0.2827  0.4359  0.8468
 7814TIP3   OH247636   2.594   0.676   0.647 -0.1103  0.3988  0.4962
 7814TIP3    H147637   2.504   0.697   0.623  0.0408  0.3271 -0.1505
 7814TIP3    H247638   2.610   0.589   0.608  0.0371  0.1380  1.1271
 7815TIP3   OH247639   3.931   1.340   0.443  0.1172  0.0714 -0.5223
 7815TIP3    H147640   3.930   1.325   0.349 -0.6816  0.8441 -0.6565
 7815TIP3    H247641   4.020   1.320   0.470  0.4584  0.2022 -1.5121
 7816TIP3   OH247642   5.500   0.049   0.794 -0.2959  0.1757 -0.3288
 7816TIP3    H147643   5.467   0.018   0.710  1.0761 -1.4917 -0.3068
 7816TIP3    H247644   5.433   0.023   0.857 -0.3553 -0.4554 -0.6459
 7817TIP3   OH247645   0.841   4.667   0.517  0.6209  0.2816 -1.1245
 7817TIP3    H147646   0.763   4.663   0.461  0.4470 -0.3050 -0.8503
 7817TIP3    H247647   0.860   4.575   0.538 -1.0874  0.5279  2.1931
 7818TIP3   OH247648   2.289   4.446   2.153  0.0898 -0.0685 -0.5622
 7818TIP3    H147649   2.210   4.492   2.180  0.9046  0.3699  1.2447
 7818TIP3    H247650   2.270   4.415   2.064 -1.2365  1.9920 -1.0644
 7819TIP3   OH247651   6.884   5.492   1.815  0.1053 -0.4292 -0.1061
 7819TIP3    H147652   6.949   5.561   1.825 -1.1839  0.6183  1.6431
 7819TIP3    H247653   6.890   5.467   1.722  2.8656 -0.3208 -0.0438
 7820TIP3   OH247654   3.013   5.669   2.053 -0.0796 -0.6840  0.2798
 7820TIP3    H147655   3.068   5.717   2.114 -0.0698 -1.3857  0.8274
 7820TIP3    H247656   2.966   5.737   2.004 -0.7585 -0.1232  1.6733
 7821TIP3   OH247657   2.534   2.569   1.441  0.1588  0.0007  0.1392
 7821TIP3    H147658   2.440   2.554   1.450 -0.0723  0.2791 -1.5149
 7821TIP3    H247659   2.568   2.487   1.403  0.6280 -0.1776  0.9253
 7822TIP3   OH247660   6.845   5.962   2.777 -0.4753  0.1352  0.4133
 7822TIP3    H147661   6.764   6.013   2.788 -1.8349 -1.8633  0.2024
 7822TIP3    H247662   6.856   5.955   2.682  0.3917  1.0166  0.4331
 7823TIP3   OH247663   0.592   6.802   1.392  0.1076 -0.1059  0.7815
 7823TIP3    H147664   0.680   6.838   1.388  1.2130 -2.7019 -1.9234
 7823TIP3    H247665   0.535   6.879   1.398  2.4355  1.8000  0.1694
 7824TIP3   OH247666   2.287   2.743   2.078 -0.3436 -0.1100 -0.1768
 7824TIP3    H147667   2.341   2.815   2.044  0.1926 -0.7946 -0.8250
 7824TIP3    H247668   2.297   2.747   2.173 -0.2841  0.6441 -0.2138
 7825TIP3   OH247669   2.363   3.146   0.574 -0.0187 -0.5615 -0.2401
 7825TIP3    H147670   2.420   3.218   0.602 -1.2740  0.2969  0.1816
 7825TIP3    H247671   2.292   3.189   0.527  0.5063 -1.7492 -2.2129
 7826TIP3   OH247672   4.963   1.418   0.803 -0.5054 -0.3968  0.1567
 7826TIP3    H147673   5.002   1.477   0.867 -1.8067  1.9845 -1.1053
 7826TIP3    H247674   4.893   1.374   0.851  0.1881 -0.6085  1.0046
 7827TIP3   OH247675   0.934   0.547   1.484  0.7312 -0.1075  0.6230
 7827TIP3    H147676   0.995   0.554   1.558  1.2352 -1.5999  0.3980
 7827TIP3    H247677   0.946   0.457   1.452 -0.6358 -0.0000 -0.2737
 7828TIP3   OH247678   7.018   0.904   0.778 -0.0141  0.2237 -0.9509
 7828TIP3    H147679   6.937   0.955   0.783  0.5543  1.0367  0.9418
 7828TIP3    H247680   7.086   0.969   0.761  0.3402 -0.3564 -1.7900
 7829TIP3   OH247681   5.740   2.495   0.928 -0.0220  0.0272 -0.0696
 7829TIP3    H147682   5.645   2.502   0.939  0.1197  2.1900  0.0806
 7829TIP3    H247683   5.759   2.546   0.849  0.9337 -1.2304 -0.7013
 7830TIP3   OH247684   7.519   0.495   1.674  0.8323  0.0514  0.1004
 7830TIP3    H147685   7.500   0.478   1.582 -0.9070 -1.1110  0.6341
 7830TIP3    H247686   7.557   0.414   1.707  2.1148  0.6927  0.2663
 7831TIP3   OH247687   3.020   2.863   0.459  0.1180  0.8437  0.0099
 7831TIP3    H147688   3.091   2.835   0.516  0.7673  0.3557 -1.0140
 7831TIP3    H247689   3.013   2.958   0.474  0.6460  0.8144  0.4686
 7832TIP3   OH247690   1.813   1.392   1.027 -0.0473  0.6439 -0.2119
 7832TIP3    H147691   1.805   1.437   1.111 -0.4940 -0.3648  0.3123
 7832TIP3    H247692   1.725   1.397   0.988  0.2152  1.3150 -0.7447
 7833TIP3   OH247693   6.810   1.355   2.707 -0.5730 -0.1101 -0.2674
 7833TIP3    H147694   6.905   1.366   2.695 -0.5251 -0.9514 -0.7335
 7833TIP3    H247695   6.802   1.306   2.788 -0.7606  2.5147  1.4323
 7834TIP3   OH247696   4.599   5.956   2.108 -0.3812  0.3426 -0.2428
 7834TIP3    H147697   4.508   5.986   2.114 -0.4132  0.4204 -0.9781
 7834TIP3    H247698   4.617   5.916   2.193 -1.4785 -0.7309 -0.5009
 7835TIP3   OH247699   2.339   7.497   0.704 -0.1318  0.3646 -0.5964
 7835TIP3    H147700   2.344   7.408   0.739 -0.3390  1.0614  1.2878
 7835TIP3    H247701   2.246   7.510   0.687 -0.3704  0.8468  0.9271
 7836TIP3   OH247702   7.482   3.949   0.351 -0.3615  0.6977 -0.0186
 7836TIP3    H147703   7.532   4.010   0.297  1.5793  0.2530  1.1645
 7836TIP3    H247704   7.410   4.001   0.387  0.4224  1.9077 -0.1696
 7837TIP3   OH247705   4.787   6.740   2.494 -0.0047 -0.3584 -0.6308
 7837TIP3    H147706   4.753   6.707   2.412 -1.1665  0.9037 -0.6899
 7837TIP3    H247707   4.713   6.736   2.555  0.6402 -0.6024  0.1621
 7838TIP3   OH247708   5.458   4.694   1.315 -0.1306  0.4409 -0.8240
 7838TIP3    H147709   5.497   4.641   1.385  0.5003  0.6533 -1.0086
 7838TIP3    H247710   5.414   4.766   1.361  0.6025  0.7892 -0.6597
 7839TIP3   OH247711   4.393   2.883   2.433  0.0544 -1.1539  0.4538
 7839TIP3    H147712   4.397   2.944   2.507  1.7623 -0.6766  0.0326
 7839TIP3    H247713   4.303   2.852   2.431 -0.8146  1.1696  0.8383
 7840TIP3   OH247714   6.972   2.320   0.736 -0.6040  0.2832 -0.1310
 7840TIP3    H147715   6.998   2.402   0.778  0.6881  0.2971 -0.8970
 7840TIP3    H247716   7.047   2.262   0.748 -0.5947 -0.0276 -1.5419
 7841TIP3   OH247717   3.741   4.127   1.928 -0.3255 -0.0532  0.0415
 7841TIP3    H147718   3.673   4.152   1.991 -0.2896  0.4668 -0.1226
 7841TIP3    H247719   3.823   4.150   1.971 -0.2107 -1.2349  0.4912
 7842TIP3   OH247720   0.972   0.161   1.830 -0.2067 -0.2434  0.8345
 7842TIP3    H147721   1.020   0.131   1.907 -0.3495 -2.5499  0.1057
 7842TIP3    H247722   0.888   0.115   1.834 -0.8268  0.7697  0.0900
 7843TIP3   OH247723   2.490   7.017   0.404  0.4028  0.0037 -0.0690
 7843TIP3    H147724   2.459   6.955   0.470  1.0262 -0.1875  0.0587
 7843TIP3    H247725   2.578   7.041   0.434 -0.2173  1.7875  0.4675
 7844TIP3   OH247726   1.565   3.030   2.292 -0.1393 -0.6268 -0.4317
 7844TIP3    H147727   1.622   3.071   2.228 -2.8564  1.5548 -1.6758
 7844TIP3    H247728   1.596   3.062   2.377  2.0977 -1.7500 -0.7578
 7845TIP3   OH247729   6.881   4.026   1.708 -0.4723  0.0343 -0.6462
 7845TIP3    H147730   6.837   4.051   1.789 -1.4335 -2.3861 -0.3381
 7845TIP3    H247731   6.966   3.991   1.737 -0.6239 -0.3929 -0.7076
 7846TIP3   OH247732   3.402   4.058   2.847  0.4251  0.0987  0.1876
 7846TIP3    H147733   3.448   3.979   2.819  1.9043  0.7464  0.6927
 7846TIP3    H247734   3.323   4.060   2.793 -0.0904 -2.1526  0.7503
 7847TIP3   OH247735   7.610   4.409   1.299  0.1187 -0.0099 -0.4832
 7847TIP3    H147736   7.522   4.375   1.318  1.1264 -1.0635  3.2478
 7847TIP3    H247737   7.609   4.498   1.334  1.2495 -1.0664  2.6290
 7848TIP3   OH247738   7.500   5.684   1.891 -0.9672  1.0346 -0.0883
 7848TIP3    H147739   7.456   5.673   1.975 -1.5106  1.1218 -0.3597
 7848TIP3    H247740   7.568   5.616   1.890 -1.1265  0.8715  0.3106
 7849TIP3   OH247741   7.037   6.487   1.782 -0.1000 -0.0602  0.3730
 7849TIP3    H147742   7.077   6.482   1.695 -0.1795  3.0960  0.0326
 7849TIP3    H247743   7.111   6.502   1.841 -0.1733 -0.8389  0.6618
 7850TIP3   OH247744   6.108   7.673   2.245  0.1759  1.2190 -0.3781
 7850TIP3    H147745   6.026   7.624   2.244  1.1853 -0.5700 -0.9064
 7850TIP3    H247746   6.096   7.740   2.312 -1.3907  0.4068  0.1828
 7851TIP3   OH247747   1.229   7.655   1.753 -0.2348 -0.2124  0.0344
 7851TIP3    H147748   1.159   7.706   1.713 -0.3547  0.2949  0.8655
 7851TIP3    H247749   1.190   7.569   1.770 -0.4321 -0.1602 -0.1562
 7852TIP3   OH247750   2.825   0.529   2.292 -0.0791 -0.1710 -0.4286
 7852TIP3    H147751   2.763   0.600   2.306 -0.5911 -0.5285 -0.8320
 7852TIP3    H247752   2.842   0.495   2.379  0.7467  0.9183 -0.1523
 7853TIP3   OH247753   0.975   5.082   1.125 -0.1077 -0.6876 -0.0724
 7853TIP3    H147754   1.065   5.074   1.094  0.0843  3.3570 -1.1788
 7853TIP3    H247755   0.921   5.074   1.047 -0.4374 -0.1888  0.0978
 7854TIP3   OH247756   3.312   7.572   1.195  0.5277 -0.5517  0.4513
 7854TIP3    H147757   3.391   7.519   1.205  1.4384  0.9119  1.5242
 7854TIP3    H247758   3.344   7.662   1.185 -0.9237 -0.2076 -2.0959
 7855TIP3   OH247759   5.624   2.122   2.511  0.2162  0.6134 -0.3774
 7855TIP3    H147760   5.558   2.053   2.510  0.2300  0.5449  1.1249
 7855TIP3    H247761   5.679   2.102   2.586  0.3751  2.1077 -0.0579
 7856TIP3   OH247762   2.140   0.921   2.781  0.0432  0.1469  0.3674
 7856TIP3    H147763   2.182   0.922   2.695 -2.9561 -1.2171 -1.2758
 7856TIP3    H247764   2.135   0.829   2.804 -2.2536  0.1825  0.2698
 7857TIP3   OH247765   1.652   0.472   2.692  0.2743 -0.4421  0.2440
 7857TIP3    H147766   1.652   0.559   2.732  0.7558 -0.0040 -0.6777
 7857TIP3    H247767   1.584   0.424   2.739 -1.0574  0.9008 -0.2185
 7858TIP3   OH247768   5.297   1.460   3.093 -0.1331  0.1082 -0.0658
 7858TIP3    H147769   5.262   1.496   3.175 -0.3660  1.6548 -0.7930
 7858TIP3    H247770   5.226   1.469   3.030  0.2359 -0.5172 -0.5865
 7859TIP3   OH247771   4.165   0.224   3.220 -0.2670  0.2616  0.2767
 7859TIP3    H147772   4.189   0.302   3.269  0.2647  0.3744 -0.1549
 7859TIP3    H247773   4.247   0.177   3.205 -0.6059 -0.4964  0.7160
 7860TIP3   OH247774   2.804   4.829   1.231 -0.0782  0.0192 -0.1347
 7860TIP3    H147775   2.840   4.884   1.301  2.1638 -1.0971 -0.2981
 7860TIP3    H247776   2.765   4.892   1.169  2.4109  1.5123 -0.3393
 7861TIP3   OH247777   5.157   6.556   1.045 -0.1844  0.0275  0.5012
 7861TIP3    H147778   5.127   6.645   1.064  0.2585  0.1323  0.7418
 7861TIP3    H247779   5.214   6.566   0.969  0.0078 -0.0207  0.6372
 7862TIP3   OH247780   0.077   6.843   1.487 -0.2773 -0.2016  0.3876
 7862TIP3    H147781   0.091   6.751   1.507 -1.6983 -0.5226 -0.0367
 7862TIP3    H247782   0.086   6.849   1.392  0.8025  0.2935  0.5064
 7863TIP3   OH247783   5.151   3.625   1.965  0.2232 -0.2323  0.5203
 7863TIP3    H147784   5.059   3.611   1.945  0.6127 -0.9346 -0.9129
 7863TIP3    H247785   5.194   3.625   1.879  1.7226 -1.2071  1.2316
 7864TIP3   OH247786   3.645   1.158   1.454 -0.5808  0.3906 -0.0910
 7864TIP3    H147787   3.603   1.110   1.526 -5.2084 -0.6557 -3.0324
 7864TIP3    H247788   3.613   1.248   1.463 -1.1880  0.2515 -0.7757
 7865TIP3   OH247789   4.092   4.846   1.687 -0.0031  0.6648 -0.3790
 7865TIP3    H147790   4.074   4.813   1.599  0.6770  1.1245 -0.7047
 7865TIP3    H247791   4.019   4.815   1.740  0.5994 -1.3568 -0.6521
 7866TIP3   OH247792   3.320   5.598   1.162 -0.0106 -0.2407 -0.2819
 7866TIP3    H147793   3.317   5.673   1.222 -0.3798  1.3026 -2.1377
 7866TIP3    H247794   3.320   5.522   1.220  0.9223  1.1617  1.7164
 7867TIP3   OH247795   0.328   0.796   2.023 -0.5554 -0.1675 -1.1285
 7867TIP3    H147796   0.342   0.750   1.940 -0.2401 -1.5538 -0.3349
 7867TIP3    H247797   0.235   0.819   2.022 -0.6359 -0.4970 -1.6987
 7868TIP3   OH247798   0.175   0.879   0.397  0.1988  0.1233  0.4183
 7868TIP3    H147799   0.166   0.801   0.341 -0.7020  0.2812  0.3321
 7868TIP3    H247800   0.249   0.858   0.454 -0.5816 -1.1760  1.0083
 7869TIP3   OH247801   5.739   1.394   0.869 -0.0937  0.0302  0.0952
 7869TIP3    H147802   5.815   1.371   0.817 -1.1584 -2.3118 -0.5691
 7869TIP3    H247803   5.672   1.418   0.805 -0.0121  1.9424  0.6639
 7870TIP3   OH247804   3.565   7.635   1.468 -0.0508 -0.2770  0.3997
 7870TIP3    H147805   3.469   7.625   1.469 -0.1000 -1.4819 -2.7595
 7870TIP3    H247806   3.579   7.729   1.479 -1.9294  0.4786 -2.3932
 7871TIP3   OH247807   0.412   3.039   2.793  0.0058 -0.0985 -0.4437
 7871TIP3    H147808   0.470   3.083   2.854  1.0009  1.9653 -2.7269
 7871TIP3    H247809   0.324   3.060   2.824  0.4828  1.3392  0.0061
 7872TIP3   OH247810   2.033   3.372   3.057 -0.2391 -0.2108  0.1015
 7872TIP3    H147811   1.940   3.357   3.041 -0.2833 -0.1411  0.2878
 7872TIP3    H247812   2.043   3.467   3.057 -0.1330 -0.2225 -0.1124
 7873TIP3   OH247813   6.617   2.025   0.588 -0.2256  0.0251 -0.7698
 7873TIP3    H147814   6.643   2.117   0.590 -0.4363  0.0744  0.4304
 7873TIP3    H247815   6.523   2.026   0.604 -0.5602 -0.3072 -2.5702
 7874TIP3   OH247816   5.619   6.650   0.688 -0.3916  0.1406 -0.2439
 7874TIP3    H147817   5.595   6.742   0.673 -0.8147  0.3567  1.5224
 7874TIP3    H247818   5.708   6.642   0.654 -0.5329  1.0749 -0.8596
 7875TIP3   OH247819   4.766   0.894   0.707  0.4493  0.0475  0.3352
 7875TIP3    H147820   4.780   0.947   0.785 -0.2254  0.6025  0.0876
 7875TIP3    H247821   4.675   0.910   0.682  0.3929 -0.8143 -0.0538
 7876TIP3   OH247822   4.371   3.452   2.203  0.3066 -0.1575 -0.2540
 7876TIP3    H147823   4.307   3.505   2.251 -0.3982  0.3240 -1.6486
 7876TIP3    H247824   4.337   3.363   2.208  0.0245 -0.0483 -0.2000
 7877TIP3   OH247825   2.996   6.368   2.295  0.5714  0.5614 -0.4641
 7877TIP3    H147826   2.914   6.355   2.247 -0.2988  1.1638  0.7934
 7877TIP3    H247827   3.000   6.294   2.356  1.4384  0.0446 -1.1309
 7878TIP3   OH247828   2.320   4.251   1.481  0.2799 -0.1223 -0.0574
 7878TIP3    H147829   2.356   4.260   1.569 -0.6312 -1.4719  0.4872
 7878TIP3    H247830   2.393   4.221   1.428  0.3862 -1.2383  0.6879
 7879TIP3   OH247831   2.228   0.521   2.301 -0.5218 -0.2212  0.5466
 7879TIP3    H147832   2.220   0.429   2.326  0.7020  0.0206  2.0032
 7879TIP3    H247833   2.241   0.567   2.384  0.4295  1.0720 -0.2826
 7880TIP3   OH247834   4.255   3.046   1.830  0.3698  0.5386  0.0436
 7880TIP3    H147835   4.328   3.096   1.793  0.6129  0.1977  0.0538
 7880TIP3    H247836   4.259   2.962   1.785  0.3637  0.2980  0.4879
 7881TIP3   OH247837   5.027   6.687   2.648  0.0605 -0.0053 -0.0823
 7881TIP3    H147838   4.938   6.685   2.613  0.4486 -2.3861 -1.1252
 7881TIP3    H247839   5.072   6.751   2.593 -0.5538 -0.1568 -0.7854
 7882TIP3   OH247840   5.840   6.631   1.554  0.3412  0.1342 -0.4684
 7882TIP3    H147841   5.875   6.562   1.611  1.3592  0.0564 -1.1677
 7882TIP3    H247842   5.867   6.606   1.466 -0.7434  0.5455 -0.9453
 7883TIP3   OH247843   1.685   2.139   1.437  0.2230 -0.2426 -0.7490
 7883TIP3    H147844   1.670   2.111   1.347 -1.4603 -1.1373 -0.2418
 7883TIP3    H247845   1.758   2.086   1.468  0.3139 -0.4677 -1.3446
 7884TIP3   OH247846   1.538   2.060   2.222 -0.4379  0.1483  0.0136
 7884TIP3    H147847   1.494   2.028   2.144 -1.0968 -0.0741  0.4643
 7884TIP3    H247848   1.506   2.004   2.293 -0.5915  0.9461  0.5968
 7885TIP3   OH247849   1.180   2.125   2.127  0.5260  0.3396 -0.2615
 7885TIP3    H147850   1.248   2.096   2.067 -0.3829 -1.6667 -0.4214
 7885TIP3    H247851   1.221   2.193   2.180  1.2375  2.6194 -3.4176
 7886TIP3   OH247852   3.476   6.469   1.244  0.4510 -0.1667  0.4428
 7886TIP3    H147853   3.470   6.460   1.149  0.2099  0.3621  0.4040
 7886TIP3    H247854   3.487   6.379   1.276  0.5854 -0.3431 -0.0862
 7887TIP3   OH247855   2.344   6.119   0.642  0.2539  0.0400  0.3315
 7887TIP3    H147856   2.289   6.085   0.713  2.1536 -1.5384  1.1436
 7887TIP3    H247857   2.364   6.209   0.668  0.0598 -0.1780  1.2637
 7888TIP3   OH247858   7.663   6.373   1.802 -0.1505  0.4141  0.6427
 7888TIP3    H147859   7.671   6.390   1.708 -0.6815 -0.7902  0.3553
 7888TIP3    H247860   7.737   6.316   1.823  0.3324  1.1903  1.1040
 7889TIP3   OH247861   0.898   6.356   2.452  0.1205 -0.0574  0.4855
 7889TIP3    H147862   0.829   6.293   2.471  1.2206 -1.0392  1.4401
 7889TIP3    H247863   0.960   6.345   2.525  0.0084  2.6563  1.0957
 7890TIP3   OH247864   6.572   2.539   1.723 -0.1696 -0.2946 -0.0933
 7890TIP3    H147865   6.542   2.478   1.791 -1.1585  0.0324 -0.2191
 7890TIP3    H247866   6.534   2.623   1.748  1.0357  0.2494 -0.0206
 7891TIP3   OH247867   6.173   3.486   1.992  0.0495  0.1209 -0.5449
 7891TIP3    H147868   6.215   3.562   1.951 -1.2605  0.6581 -0.9466
 7891TIP3    H247869   6.104   3.462   1.931  0.6832 -1.6622 -0.6176
 7892TIP3   OH247870   3.024   2.822   1.861  0.2349 -0.3939  0.2997
 7892TIP3    H147871   2.983   2.850   1.943  1.8862  1.0623  0.6904
 7892TIP3    H247872   3.086   2.754   1.887  1.9359  1.1969  0.5528
 7893TIP3   OH247873   2.648   4.483   3.124  0.3019  0.5438 -0.2636
 7893TIP3    H147874   2.717   4.515   3.182 -0.7511 -0.7114  1.8053
 7893TIP3    H247875   2.682   4.401   3.090 -0.1134 -0.0945  0.7868
 7894TIP3   OH247876   5.603   4.835   1.102  0.4928 -0.2474 -0.5298
 7894TIP3    H147877   5.516   4.870   1.082  1.4218  1.1159 -2.5116
 7894TIP3    H247878   5.595   4.801   1.191 -1.9925  0.0401 -0.5712
 7895TIP3   OH247879   5.460   4.119   1.208 -0.6938  0.1461 -0.0819
 7895TIP3    H147880   5.468   4.067   1.288 -0.9401 -2.3619 -1.5497
 7895TIP3    H247881   5.550   4.134   1.180 -0.6054  1.0829  0.6669
 7896TIP3   OH247882   7.445   4.214   2.848  0.0220 -0.5800  0.4724
 7896TIP3    H147883   7.512   4.147   2.852 -0.2688 -0.8660  0.5791
 7896TIP3    H247884   7.400   4.198   2.764 -1.2322 -1.6710  1.3115
 7897TIP3   OH247885   3.774   6.584   1.223 -0.1961  0.0400  0.2736
 7897TIP3    H147886   3.831   6.531   1.279  0.8737  0.6105 -0.2300
 7897TIP3    H247887   3.686   6.552   1.240  0.3023 -1.0527  0.8887
 7898TIP3   OH247888   2.102   6.141   2.045  0.6276  0.1243 -0.1383
 7898TIP3    H147889   2.068   6.054   2.026 -1.4264  0.1017  2.9218
 7898TIP3    H247890   2.031   6.200   2.020  0.2612  0.4997  1.6398
 7899TIP3   OH247891   1.113   0.605   1.713  0.4078  0.2684  0.0542
 7899TIP3    H147892   1.112   0.687   1.761  0.7949  1.0895 -1.2846
 7899TIP3    H247893   1.101   0.537   1.780 -1.5710  1.4695  0.9967
 7900TIP3   OH247894   2.385   6.379   0.730 -0.3082 -0.2945 -0.4449
 7900TIP3    H147895   2.290   6.378   0.727 -0.3457 -0.8464  0.5752
 7900TIP3    H247896   2.407   6.352   0.819  0.8290 -2.1377 -1.2154
 7901TIP3   OH247897   2.725   7.654   2.545  0.1328  0.1453  0.5593
 7901TIP3    H147898   2.820   7.640   2.551  0.0515 -0.9486 -0.3630
 7901TIP3    H247899   2.710   7.679   2.454 -0.4819  0.1659  0.6600
 7902TIP3   OH247900   1.051   0.008   1.550 -0.6760  0.2030  0.1641
 7902TIP3    H147901   1.045  -0.068   1.493 -0.4938 -1.0669  1.7564
 7902TIP3    H247902   0.981  -0.005   1.614 -0.6879  1.4311  0.4220
 7903TIP3   OH247903   0.705   2.056   2.020 -0.0412  0.2826 -0.1774
 7903TIP3    H147904   0.667   2.140   1.997 -0.7062  0.3841  1.1856
 7903TIP3    H247905   0.798   2.075   2.032 -0.5980  1.5457  3.0241
 7904TIP3   OH247906   5.751   4.774   1.915 -0.5538  0.0402  0.8310
 7904TIP3    H147907   5.762   4.854   1.864  3.8884 -0.9509 -0.1777
 7904TIP3    H247908   5.657   4.771   1.934 -1.1402  4.9300  0.1782
 7905TIP3   OH247909   0.765   1.255   1.247  0.1964  0.0053  0.2588
 7905TIP3    H147910   0.858   1.261   1.269  0.0293 -0.4042  1.1270
 7905TIP3    H247911   0.759   1.290   1.158  1.2982 -0.7083 -0.1129
 7906TIP3   OH247912   2.539   7.118   3.196  0.3062 -0.0097 -0.3900
 7906TIP3    H147913   2.534   7.041   3.138  0.3680 -0.0284 -0.3703
 7906TIP3    H247914   2.593   7.089   3.269 -2.0188 -0.9119  1.0693
 7907TIP3   OH247915   5.384   5.256   9.414 -0.0490 -0.0634  0.7433
 7907TIP3    H147916   5.478   5.264   9.426  0.2694  1.4104 -1.8358
 7907TIP3    H247917   5.346   5.307   9.484  1.1513  0.7331  0.8394
 7908TIP3   OH247918   0.464   2.406   0.942  0.1688 -0.1851  0.1461
 7908TIP3    H147919   0.437   2.495   0.964 -3.0175 -0.0375 -3.3458
 7908TIP3    H247920   0.553   2.416   0.907  0.9695  1.0589  2.3065
 7909TIP3   OH247921   7.045   6.176   0.812  0.7762 -0.2679 -0.3813
 7909TIP3    H147922   7.039   6.187   0.717  0.0189 -0.5674 -0.3762
 7909TIP3    H247923   7.040   6.081   0.825  1.0125 -0.2350 -0.0469
 7910TIP3   OH247924   1.644   5.505   0.671  0.2384  0.3388  0.4753
 7910TIP3    H147925   1.739   5.509   0.681  0.4906  1.0722 -1.6378
 7910TIP3    H247926   1.628   5.420   0.631 -0.1399 -0.2875  1.9289
 7911TIP3   OH247927   4.595   5.603   0.882 -0.0779 -0.0202  0.5277
 7911TIP3    H147928   4.540   5.615   0.804 -1.7819 -1.2065  1.4755
 7911TIP3    H247929   4.591   5.687   0.928 -0.2014  0.2491  0.0316
 7912TIP3   OH247930   7.263   2.915   2.213  0.0842  0.2639 -0.2014
 7912TIP3    H147931   7.226   2.999   2.186  0.4096 -0.3938 -3.0765
 7912TIP3    H247932   7.219   2.850   2.157  0.8266 -1.3078  0.9559
 7913TIP3   OH247933   7.404   3.985   0.783 -0.2889 -0.4126 -0.3521
 7913TIP3    H147934   7.322   4.019   0.818  1.1461 -0.6388  3.6576
 7913TIP3    H247935   7.462   4.062   0.779  0.3412 -0.8558  0.2277
 7914TIP3   OH247936   0.546   3.223   0.411  0.5117  0.2706 -0.7999
 7914TIP3    H147937   0.468   3.272   0.383 -0.2042 -1.4655 -2.0651
 7914TIP3    H247938   0.510   3.145   0.455  1.6079  0.7874  1.1130
 7915TIP3   OH247939   1.773   6.801   0.734 -0.4805  0.5546 -0.0067
 7915TIP3    H147940   1.684   6.794   0.699 -0.1603 -2.0394 -0.5366
 7915TIP3    H247941   1.802   6.890   0.710 -2.0848  0.6402 -1.9118
 7916TIP3   OH247942   3.136   6.597   1.795  1.1602 -0.0485 -0.3294
 7916TIP3    H147943   3.095   6.643   1.722  0.6789 -1.3002 -0.8722
 7916TIP3    H247944   3.173   6.667   1.849 -0.0140  1.0096 -0.8263
 7917TIP3   OH247945   4.063   7.096   1.641 -0.3340 -0.1078 -0.9470
 7917TIP3    H147946   4.111   7.064   1.565 -1.1119 -1.2073 -0.9879
 7917TIP3    H247947   4.132   7.129   1.700  0.2727  0.7520 -2.0882
 7918TIP3   OH247948   0.284   6.623   0.984 -0.1083  0.1036 -0.5685
 7918TIP3    H147949   0.223   6.619   1.058 -0.2571  1.7440 -0.5626
 7918TIP3    H247950   0.349   6.687   1.011  0.2276  0.2051 -1.5888
 7919TIP3   OH247951   1.138   1.572   1.911  0.1198 -0.0970  0.0023
 7919TIP3    H147952   1.151   1.641   1.846  0.2272  0.5067  0.6619
 7919TIP3    H247953   1.044   1.554   1.908  0.0470  0.2758  0.0262
 7920TIP3   OH247954   4.283   4.379   2.679  0.4661 -0.3375 -0.8395
 7920TIP3    H147955   4.216   4.358   2.614  0.2145  1.9932 -1.4329
 7920TIP3    H247956   4.363   4.339   2.645 -0.2274 -1.5507 -1.0908
 7921TIP3   OH247957   4.958   2.561   1.491  0.1078 -0.2759 -0.3877
 7921TIP3    H147958   5.011   2.631   1.529 -1.5334  0.3485  0.8883
 7921TIP3    H247959   4.878   2.561   1.544  0.5271 -3.9797  0.4982
 7922TIP3   OH247960   2.789   4.784   1.980 -0.3793  0.1305  0.3770
 7922TIP3    H147961   2.853   4.835   1.931 -0.1013 -1.2027 -0.7180
 7922TIP3    H247962   2.826   4.695   1.983 -1.2064 -0.2048  1.5385
 7923TIP3   OH247963   1.053   3.659   2.500 -0.1438 -0.6856  0.1271
 7923TIP3    H147964   1.016   3.650   2.587 -0.0732  1.0611  0.3855
 7923TIP3    H247965   0.993   3.718   2.454  0.1927 -1.0175 -0.7617
 7924TIP3   OH247966   4.829   6.025   2.738 -0.2917  0.2797 -0.5970
 7924TIP3    H147967   4.850   6.117   2.752 -1.6813  0.4618  0.4796
 7924TIP3    H247968   4.826   6.015   2.642  0.0992  1.2831 -0.7256
 7925TIP3   OH247969   0.923   0.651   2.140  0.4659  0.6628 -0.1526
 7925TIP3    H147970   0.900   0.570   2.185 -0.7235  0.4448 -1.1160
 7925TIP3    H247971   0.943   0.713   2.211 -0.9301  0.2098  0.6685
 7926TIP3   OH247972   6.743   0.796   0.845 -0.5945 -0.8219  0.0769
 7926TIP3    H147973   6.694   0.876   0.863 -0.6924 -1.2815  2.0517
 7926TIP3    H247974   6.678   0.736   0.809 -0.4894 -0.0032 -1.5629
 7927TIP3   OH247975   6.166   1.027   1.241  0.5008 -0.5205 -0.3677
 7927TIP3    H147976   6.073   1.006   1.231  0.5181  0.1776 -2.5547
 7927TIP3    H247977   6.172   1.120   1.221  1.7315 -0.6636 -0.7453
 7928TIP3   OH247978   2.708   0.138   0.851 -0.2959  0.1241  0.1432
 7928TIP3    H147979   2.726   0.128   0.944 -0.7586  1.4554  0.3909
 7928TIP3    H247980   2.776   0.197   0.819 -1.2852  1.2788  0.0818
 7929TIP3   OH247981   4.613   7.588   2.730  0.1217 -0.0760  0.2949
 7929TIP3    H147982   4.578   7.569   2.816  0.4101 -0.8981  0.2369
 7929TIP3    H247983   4.654   7.506   2.701 -1.7950 -0.4980 -1.5165
 7930TIP3   OH247984   5.529   3.247   1.285 -0.1541  0.3044 -0.4973
 7930TIP3    H147985   5.473   3.237   1.208 -0.1749 -3.5233 -0.1364
 7930TIP3    H247986   5.607   3.291   1.252 -1.2671  1.2152 -2.0636
 7931TIP3   OH247987   2.847   3.912   2.490 -0.3076 -0.1764 -0.0082
 7931TIP3    H147988   2.771   3.865   2.455 -1.3192  1.3377  0.0695
 7931TIP3    H247989   2.817   3.946   2.574  0.2954  0.8634 -0.2016
 7932TIP3   OH247990   2.740   1.127   1.088 -0.0608  0.0389  0.5078
 7932TIP3    H147991   2.701   1.074   1.157  0.3992 -1.4393 -0.3149
 7932TIP3    H247992   2.776   1.203   1.133 -0.4033 -0.5375  1.7981
 7933TIP3   OH247993   6.121   3.843   1.958 -0.2411 -0.9857  0.4715
 7933TIP3    H147994   6.120   3.773   1.893  1.6188 -1.5294  0.9755
 7933TIP3    H247995   6.167   3.915   1.916 -0.2834 -0.8219  0.7042
 7934TIP3   OH247996   6.491   1.250   1.708  0.1973  0.0910  0.0604
 7934TIP3    H147997   6.464   1.267   1.618 -0.3653 -0.6789  0.0736
 7934TIP3    H247998   6.576   1.207   1.700  0.4704  0.6515 -0.0707
 7935TIP3   OH247999   5.650   6.707   2.695 -0.1652  0.4949  0.3944
 7935TIP3    H148000   5.629   6.647   2.766  0.3824  0.1543  0.2747
 7935TIP3    H248001   5.730   6.672   2.656 -1.5722 -0.5578 -1.7465
 7936TIP3   OH248002   5.421   5.963   1.206  0.1841 -0.2708 -0.1740
 7936TIP3    H148003   5.502   5.988   1.160  0.7775  0.6877  1.3026
 7936TIP3    H248004   5.406   6.035   1.267  0.4054 -2.2122  2.3386
 7937TIP3   OH248005   2.360   5.355   0.669 -0.3841  0.2461  0.0421
 7937TIP3    H148006   2.390   5.441   0.696 -0.6311  0.8837 -1.6069
 7937TIP3    H248007   2.437   5.313   0.631 -0.2620 -0.2806  0.8462
 7938TIP3   OH248008   0.108   4.410   1.092 -0.3114  0.0285 -0.3247
 7938TIP3    H148009   0.106   4.495   1.048 -0.4177 -0.7351 -1.8400
 7938TIP3    H248010   0.053   4.422   1.170 -0.1669  1.3919 -0.4142
 7939TIP3   OH248011   1.552   2.699   3.039 -0.3382  0.3347 -0.1561
 7939TIP3    H148012   1.565   2.645   3.116  1.7442  0.0794 -0.6311
 7939TIP3    H248013   1.544   2.637   2.967 -0.7073  0.6118 -0.3586
 7940TIP3   OH248014   3.460   3.526   2.488 -0.5822 -0.3234 -0.1253
 7940TIP3    H148015   3.454   3.433   2.513  2.5271 -0.2492  1.4123
 7940TIP3    H248016   3.410   3.572   2.556  0.8942 -0.6888  1.2514
 7941TIP3   OH248017   2.929   7.641   2.822  0.4506  0.3274  0.1656
 7941TIP3    H148018   3.008   7.680   2.861 -0.6304 -0.1282  3.0167
 7941TIP3    H248019   2.935   7.548   2.843  0.2842 -0.1564 -1.7442
 7942TIP3   OH248020   4.196   1.553   1.658 -0.0551  0.5774  0.3865
 7942TIP3    H148021   4.152   1.605   1.590  0.6400 -0.9012 -1.2480
 7942TIP3    H248022   4.289   1.563   1.640  0.1131 -0.5440  0.5685
 7943TIP3   OH248023   2.315   6.352   2.056  0.6784  0.0237  1.0875
 7943TIP3    H148024   2.247   6.414   2.031  0.3497 -1.1172 -1.0554
 7943TIP3    H248025   2.366   6.398   2.123 -0.2227  2.1625  0.3835
 7944TIP3   OH248026   5.686   7.498   1.871 -0.5327 -0.0003  0.1139
 7944TIP3    H148027   5.724   7.581   1.899 -1.6533 -0.0989  2.1289
 7944TIP3    H248028   5.608   7.523   1.821  0.9575  0.1620 -2.2580
 7945TIP3   OH248029   0.723   3.756   0.707 -0.3569  0.3787 -0.1316
 7945TIP3    H148030   0.808   3.798   0.697 -0.3846  0.4611 -0.0197
 7945TIP3    H248031   0.726   3.716   0.794 -0.0167 -0.5669 -0.5647
 7946TIP3   OH248032   5.690   3.592   2.556  0.1801  0.6012  0.4668
 7946TIP3    H148033   5.741   3.638   2.490  0.5818  0.5875  0.7667
 7946TIP3    H248034   5.623   3.545   2.507 -0.3210  1.6125  0.1598
 7947TIP3   OH248035   2.069   2.917   1.057 -0.4732 -0.5682  0.3389
 7947TIP3    H148036   2.099   2.840   1.009 -1.1995 -0.6357 -0.0254
 7947TIP3    H248037   2.011   2.962   0.995  1.3750  1.2896 -0.1634
 7948TIP3   OH248038   4.551   0.593   2.989  0.1178  0.2569 -0.1651
 7948TIP3    H148039   4.580   0.523   3.047 -0.5177  0.1378  0.0066
 7948TIP3    H248040   4.596   0.575   2.906 -0.7531 -0.8834 -0.4079
 7949TIP3   OH248041   6.879   5.245   1.579 -0.5510  0.0620  0.1279
 7949TIP3    H148042   6.839   5.173   1.530 -0.3544 -0.7157  1.0829
 7949TIP3    H248043   6.902   5.207   1.663 -3.1485  1.9370  1.8598
 7950TIP3   OH248044   5.190   6.848   2.472 -0.1725  0.5659 -0.2521
 7950TIP3    H148045   5.278   6.833   2.438  1.0354 -0.8556  3.0928
 7950TIP3    H248046   5.190   6.940   2.499  0.5361  0.3912  0.3602
 7951TIP3   OH248047   3.940   7.326   1.527 -0.3696 -0.5420 -0.1770
 7951TIP3    H148048   3.938   7.249   1.582  0.7580 -0.6687 -0.2974
 7951TIP3    H248049   3.992   7.300   1.451  0.9280  0.6239  0.2633
 7952TIP3   OH248050   3.451   7.552   1.788  0.3094 -0.4277 -0.1221
 7952TIP3    H148051   3.523   7.607   1.759 -0.4208  0.4382 -0.3266
 7952TIP3    H248052   3.372   7.605   1.775 -0.5093 -1.8008 -1.1308
 7953TIP3   OH248053   4.654   6.047   1.610 -0.0220  0.2121  0.4516
 7953TIP3    H148054   4.576   6.041   1.666 -0.0472  1.3610  0.5630
 7953TIP3    H248055   4.646   5.973   1.549 -1.0149  0.1096  0.6945
 7954TIP3   OH248056   2.024   7.639   2.556 -0.3251 -0.2730  0.4103
 7954TIP3    H148057   2.025   7.734   2.553  0.6170 -0.2821  0.1543
 7954TIP3    H248058   1.996   7.617   2.645  0.4325  0.2511  0.7869
 7955TIP3   OH248059   5.175   2.705   1.312 -0.4113 -0.5119 -0.1609
 7955TIP3    H148060   5.263   2.678   1.285 -0.7163 -1.4028 -0.3029
 7955TIP3    H248061   5.133   2.624   1.340 -0.9628  0.0106  0.5655
 7956TIP3   OH248062   1.616   7.119   2.305  0.2678 -0.1008  0.0707
 7956TIP3    H148063   1.710   7.135   2.303  0.4709 -0.9583  1.5756
 7956TIP3    H248064   1.608   7.024   2.316 -0.7821 -0.0823 -0.4510
 7957TIP3   OH248065   5.331   3.063   1.400  0.0765 -0.2317  0.6629
 7957TIP3    H148066   5.369   3.000   1.461  0.8370  2.1475  2.8145
 7957TIP3    H248067   5.373   3.146   1.422  0.0394  0.8604 -2.8805
 7958TIP3   OH248068   4.055   0.820   1.842  0.2048  0.4221  0.2888
 7958TIP3    H148069   4.126   0.785   1.896  0.7132  2.6581  1.1900
 7958TIP3    H248070   4.048   0.912   1.868 -4.3495 -0.0373  1.7205
 7959TIP3   OH248071   3.677   5.178   0.782 -0.0301  0.0846 -0.0294
 7959TIP3    H148072   3.736   5.157   0.855  1.2908  0.5003 -0.9400
 7959TIP3    H248073   3.609   5.233   0.821  0.1826 -0.3832  1.0438
 7960TIP3   OH248074   1.461   1.124   0.818 -0.1508  0.0782 -0.0488
 7960TIP3    H148075   1.520   1.139   0.743 -1.0472 -1.1701 -1.0574
 7960TIP3    H248076   1.390   1.187   0.805 -0.9567 -0.9816 -1.0119
 7961TIP3   OH248077   6.672   0.437   0.480 -0.1320 -0.5111 -0.6035
 7961TIP3    H148078   6.764   0.426   0.503 -0.6000  0.8690  2.4501
 7961TIP3    H248079   6.672   0.507   0.414  1.0661 -1.9861 -2.2624
 7962TIP3   OH248080   6.452   3.591   2.151 -0.1193 -0.5770  0.0350
 7962TIP3    H148081   6.497   3.549   2.079 -2.2425 -0.5150 -1.4135
 7962TIP3    H248082   6.458   3.685   2.132 -1.4475 -0.5957 -0.6036
 7963TIP3   OH248083   5.456   6.786   2.461 -0.3531 -0.5325  0.2532
 7963TIP3    H148084   5.493   6.828   2.383 -0.4148 -1.9095 -0.5536
 7963TIP3    H248085   5.528   6.787   2.524 -0.1439  0.1543  0.0171
 7964TIP3   OH248086   4.930   0.381   0.355  0.0083  0.0334 -0.2559
 7964TIP3    H148087   4.848   0.424   0.377  0.1449  0.6797 -0.9500
 7964TIP3    H248088   4.959   0.425   0.275  1.3154  0.2051  0.2863
 7965TIP3   OH248089   5.438   1.190   3.062  0.1742 -0.3983 -0.2639
 7965TIP3    H148090   5.410   1.259   3.122 -3.1464 -1.6537 -0.1351
 7965TIP3    H248091   5.491   1.131   3.115  2.2960  1.4483 -0.1577
 7966TIP3   OH248092   5.070   5.119   1.126 -0.1017  0.3310 -0.0902
 7966TIP3    H148093   5.054   5.155   1.038  0.5556  1.7612  0.3461
 7966TIP3    H248094   5.049   5.026   1.117  0.9673  0.2148 -2.0445
 7967TIP3   OH248095   0.068   4.082   2.151  0.1882 -0.1451 -0.5211
 7967TIP3    H148096   0.095   4.173   2.141  1.1316 -0.5355 -1.7149
 7967TIP3    H248097   0.001   4.069   2.085 -1.2152  0.1285  0.7914
 7968TIP3   OH248098   7.548   3.457   0.807 -0.4069 -0.1741 -0.0134
 7968TIP3    H148099   7.537   3.548   0.781 -1.8739 -0.6814 -1.2941
 7968TIP3    H248100   7.638   3.435   0.779 -0.4884  0.5158 -0.8593
 7969TIP3   OH248101   3.319   0.914   0.520  0.1613  0.3269 -0.3172
 7969TIP3    H148102   3.248   0.867   0.564 -0.9624  0.7183 -1.6491
 7969TIP3    H248103   3.372   0.846   0.478 -1.3642  0.1696 -2.1029
 7970TIP3   OH248104   0.504   3.159   3.022  0.1170  0.1362 -0.0123
 7970TIP3    H148105   0.596   3.185   3.012 -0.0797  0.6993 -0.4179
 7970TIP3    H248106   0.482   3.184   3.112  0.8390 -1.5783  0.6982
 7971TIP3   OH248107   5.772   1.265   2.024 -0.4556 -0.3333 -0.2657
 7971TIP3    H148108   5.769   1.358   2.004  0.5852  0.2767  2.0773
 7971TIP3    H248109   5.808   1.261   2.113  0.4326 -3.0153 -0.6666
 7972TIP3   OH248110   6.465   4.273   3.327 -0.1365  0.2314  0.7121
 7972TIP3    H148111   6.430   4.197   3.280  1.8297  0.7880 -1.9321
 7972TIP3    H248112   6.388   4.322   3.354 -1.4312 -1.0697 -0.4051
 7973TIP3   OH248113   1.076   3.265   1.347  0.6398 -0.4647  0.3700
 7973TIP3    H148114   1.122   3.229   1.423  1.3446 -1.1069 -0.3409
 7973TIP3    H248115   1.047   3.188   1.298  1.2663 -0.0765 -0.6384
 7974TIP3   OH248116   6.601   4.443   1.705  0.1524 -0.3658 -0.3000
 7974TIP3    H148117   6.540   4.467   1.774  2.3017 -0.3076  1.7210
 7974TIP3    H248118   6.587   4.349   1.693 -0.1472 -0.4086  0.3349
 7975TIP3   OH248119   0.679   7.519   2.148 -0.0803 -0.6534 -0.1040
 7975TIP3    H148120   0.587   7.503   2.168 -0.0234  0.5634  1.3420
 7975TIP3    H248121   0.679   7.551   2.058 -1.3709  1.4063  0.5547
 7976TIP3   OH248122   5.443   1.390   2.850 -0.4979  0.0565 -0.3771
 7976TIP3    H148123   5.440   1.332   2.926 -1.5015  0.6897  0.0961
 7976TIP3    H248124   5.368   1.449   2.863 -0.6239  0.2369 -1.8085
 7977TIP3   OH248125   3.002   2.132   1.360  0.0903  0.2301  0.0342
 7977TIP3    H148126   3.076   2.079   1.390  0.6087 -0.0509 -1.6408
 7977TIP3    H248127   2.976   2.183   1.437  0.4096 -1.4825  1.3284
 7978TIP3   OH248128   2.692   6.737   1.552  0.3147  0.5833  0.4693
 7978TIP3    H148129   2.616   6.720   1.496 -1.5042  1.5476  2.4629
 7978TIP3    H248130   2.735   6.812   1.512  2.0184 -1.6388 -2.2662
 7979TIP3   OH248131   7.104   3.543   2.602 -0.5562 -0.2762  0.0596
 7979TIP3    H148132   7.026   3.568   2.651 -0.1425 -0.1234  0.6444
 7979TIP3    H248133   7.177   3.567   2.658 -0.0606  0.2238 -0.7679
 7980TIP3   OH248134   0.949   1.243   2.455  0.5048 -0.4611  0.3640
 7980TIP3    H148135   0.980   1.154   2.469 -0.0378 -0.4040  2.1019
 7980TIP3    H248136   1.027   1.297   2.463  1.4877 -0.8876 -3.7361
 7981TIP3   OH248137   1.068   1.747   1.454  0.2550 -0.5288  0.1877
 7981TIP3    H148138   0.985   1.702   1.434 -0.3047 -0.0018  1.2347
 7981TIP3    H248139   1.047   1.840   1.444  0.5914 -0.3728  0.8853
 7982TIP3   OH248140   0.939   1.085   0.414 -0.7549 -0.3238  0.3608
 7982TIP3    H148141   0.968   1.000   0.382 -1.7926 -0.5880  0.0943
 7982TIP3    H248142   0.849   1.071   0.443 -0.8754  0.6402  0.5033
 7983TIP3   OH248143   1.922   4.355   1.977  0.4548  0.0275 -0.0893
 7983TIP3    H148144   2.016   4.336   1.968  0.1747 -1.0313 -0.9537
 7983TIP3    H248145   1.887   4.344   1.888  0.1651  4.3844 -0.7299
 7984TIP3   OH248146   2.465   1.555   1.756 -0.2201 -0.1287 -0.2330
 7984TIP3    H148147   2.427   1.553   1.844 -0.6026 -2.2827 -0.3782
 7984TIP3    H248148   2.560   1.550   1.770 -0.1821  1.0638  0.0508
 7985TIP3   OH248149   5.207   6.842   2.114  0.1774 -0.1955 -0.0066
 7985TIP3    H148150   5.179   6.930   2.139 -2.2988 -1.0736  0.6618
 7985TIP3    H248151   5.181   6.833   2.023 -4.3516 -1.7732  1.1804
 7986TIP3   OH248152   2.916   6.988   3.078 -0.1743  0.0401  0.2697
 7986TIP3    H148153   2.824   7.008   3.063 -0.3268  0.0172  1.1346
 7986TIP3    H248154   2.952   6.974   2.990 -0.8580  0.6181 -0.1148
 7987TIP3   OH248155   5.047   7.249   4.079 -0.3422  0.1420 -0.4302
 7987TIP3    H148156   5.048   7.221   3.988  1.5694 -4.1907  0.6232
 7987TIP3    H248157   5.120   7.311   4.086  0.8914 -1.1155 -1.5130
 7988TIP3   OH248158   3.009   1.508   2.790 -0.2419 -0.0555  0.6162
 7988TIP3    H148159   2.926   1.502   2.836 -1.6737  3.5221 -1.1426
 7988TIP3    H248160   3.066   1.558   2.848 -1.1610  2.1059 -0.2522
 7989TIP3   OH248161   0.948   7.364   0.716 -0.0085  0.4539 -0.3252
 7989TIP3    H148162   0.975   7.280   0.679 -1.5730  0.3829 -1.4074
 7989TIP3    H248163   0.934   7.420   0.641  0.2854  1.4615  0.3572
 7990TIP3   OH248164   6.270   2.265   0.327 -0.0342 -0.7038  0.1878
 7990TIP3    H148165   6.303   2.225   0.247  2.0810  1.0818  0.0707
 7990TIP3    H248166   6.346   2.271   0.384 -0.2462  2.6745  0.3253
 7991TIP3   OH248167   1.426   4.105   3.456 -0.7342 -0.0129  0.6049
 7991TIP3    H148168   1.425   4.182   3.398  0.0388 -1.0372 -0.8372
 7991TIP3    H248169   1.496   4.124   3.519 -1.3782  0.9912  1.0345
 7992TIP3   OH248170   1.935   4.715   1.247 -0.0648 -0.0524  0.2926
 7992TIP3    H148171   1.881   4.792   1.266 -0.8886 -0.3335 -0.7701
 7992TIP3    H248172   1.904   4.685   1.161 -1.5468 -3.0995  1.7509
 7993TIP3   OH248173   3.292   1.558   0.697  0.5235  0.2440 -0.4840
 7993TIP3    H148174   3.363   1.537   0.637 -0.4892  0.4338 -1.8236
 7993TIP3    H248175   3.236   1.480   0.696  1.1063 -0.2295  1.2012
 7994TIP3   OH248176   4.569   1.457   0.861 -0.9070 -0.2720 -0.0791
 7994TIP3    H148177   4.478   1.485   0.846 -1.1151 -0.7572  0.2249
 7994TIP3    H248178   4.592   1.407   0.783 -0.1396  1.6507 -1.1465
 7995TIP3   OH248179   5.128   7.335   1.182  0.3958 -0.0773 -0.6805
 7995TIP3    H148180   5.175   7.306   1.104  1.2172  0.0586 -0.2414
 7995TIP3    H248181   5.104   7.426   1.163  0.1498 -0.2028 -0.9778
 7996TIP3   OH248182   0.783   4.186   0.947  0.2202 -0.1541 -0.1721
 7996TIP3    H148183   0.812   4.118   1.008  0.1811  0.1720  0.2170
 7996TIP3    H248184   0.714   4.233   0.995  1.7544  1.5936  0.4721
 7997TIP3   OH248185   6.830   6.569   0.662 -0.0553  0.0349 -0.3171
 7997TIP3    H148186   6.917   6.548   0.627  1.2665 -0.7461  3.0092
 7997TIP3    H248187   6.848   6.604   0.750 -3.1228 -3.0072  1.7686
 7998TIP3   OH248188   7.576   4.211   0.741 -0.1615 -0.5848  0.3168
 7998TIP3    H148189   7.568   4.302   0.771 -0.2401 -0.4591 -0.0860
 7998TIP3    H248190   7.645   4.174   0.796  0.6375  0.0301 -0.2526
 7999TIP3   OH248191   4.736   6.617   0.980 -0.0827  0.2867  0.0357
 7999TIP3    H148192   4.764   6.636   1.069  1.7015 -0.2656 -0.3589
 7999TIP3    H248193   4.713   6.524   0.981  0.3029  0.1853 -0.1494
 8000TIP3   OH248194   5.824   5.151   2.059 -0.1904 -1.0034 -0.1946
 8000TIP3    H148195   5.785   5.191   1.981  0.3741 -0.2115 -0.0822
 8000TIP3    H248196   5.915   5.179   2.057 -0.8558  2.1063  2.6327
 8001TIP3   OH248197   6.663   5.425   1.482  1.0177 -0.6482 -0.3708
 8001TIP3    H148198   6.710   5.366   1.541  0.3305 -1.4869 -0.6487
 8001TIP3    H248199   6.724   5.439   1.409  0.9707 -1.4566 -0.5684
 8002TIP3   OH248200   0.101   2.230   2.171 -0.0110  0.2309 -0.2797
 8002TIP3    H148201   0.076   2.314   2.132 -1.6135 -0.4172 -0.7328
 8002TIP3    H248202   0.177   2.203   2.121 -0.7591  0.4244 -1.5822
 8003TIP3   OH248203   1.668   3.363   1.900 -0.0368  0.2910 -0.0835
 8003TIP3    H148204   1.703   3.450   1.917 -1.5103  1.0962 -0.9012
 8003TIP3    H248205   1.574   3.377   1.887 -0.3769 -1.4790  0.1359
 8004TIP3   OH248206   6.264   1.278   1.515  0.2858  0.3674 -0.1289
 8004TIP3    H148207   6.307   1.249   1.434 -0.0165  2.0559 -0.9478
 8004TIP3    H248208   6.173   1.291   1.490  0.2944  1.4044  0.3348
 8005TIP3   OH248209   5.228   4.989   0.864  0.1287  0.8593  0.0928
 8005TIP3    H148210   5.239   5.072   0.818 -0.2161  1.5996  1.3060
 8005TIP3    H248211   5.269   4.924   0.807 -0.3672  1.7234 -1.2932
 8006TIP3   OH248212   2.908   5.994   0.784  0.1228 -0.2450  0.2382
 8006TIP3    H148213   2.856   5.915   0.800  1.5739 -1.3329 -0.1797
 8006TIP3    H248214   2.992   5.976   0.826  0.3724  1.2352  0.4231
 8007TIP3   OH248215   1.330   3.928   1.356  0.5804 -0.4751  0.3242
 8007TIP3    H148216   1.419   3.959   1.342  0.6305  0.3818  2.2251
 8007TIP3    H248217   1.331   3.836   1.329  1.1707  0.2911 -2.7126
 8008TIP3   OH248218   2.975   2.591   0.591  0.0675 -0.0563  0.8940
 8008TIP3    H148219   2.980   2.665   0.531  0.3496 -0.6435  0.1801
 8008TIP3    H248220   3.031   2.616   0.665 -0.6546  0.8662  1.1467
 8009TIP3   OH248221   6.303   3.709   2.748 -0.2737 -0.3869  0.2892
 8009TIP3    H148222   6.302   3.673   2.837 -2.0025 -1.8821 -0.2933
 8009TIP3    H248223   6.244   3.785   2.752  0.2809  0.0443  0.5731
 8010TIP3   OH248224   6.473   7.561   3.428 -0.8365  0.1780  0.0554
 8010TIP3    H148225   6.517   7.633   3.382  0.7773 -1.2865 -0.8090
 8010TIP3    H248226   6.392   7.547   3.379 -0.1729  0.0760 -1.0585
 8011TIP3   OH248227   4.409   4.893   0.760 -0.2986 -0.3171 -0.1187
 8011TIP3    H148228   4.440   4.965   0.815 -1.4250 -0.1054  0.2624
 8011TIP3    H248229   4.323   4.921   0.729  1.2278  0.7085 -4.1000
 8012TIP3   OH248230   1.538   4.306   1.754 -0.2655  0.2845 -0.4899
 8012TIP3    H148231   1.448   4.330   1.730 -1.0139 -1.4438  0.3603
 8012TIP3    H248232   1.572   4.383   1.800 -1.7082  0.5825  0.1266
 8013TIP3   OH248233   1.899   5.452   3.765  0.0492 -0.2484 -0.5081
 8013TIP3    H148234   1.814   5.460   3.808 -0.0023  0.1068 -0.6726
 8013TIP3    H248235   1.912   5.536   3.721  1.3159  0.3844  0.9931
 8014TIP3   OH248236   6.797   1.384   0.478  0.0172 -0.1408 -0.1135
 8014TIP3    H148237   6.723   1.410   0.534  0.2132 -0.7667  0.4506
 8014TIP3    H248238   6.756   1.333   0.408 -0.3193  1.2786 -0.9880
 8015TIP3   OH248239   4.579   3.235   3.183  0.3457 -0.0872  0.2278
 8015TIP3    H148240   4.666   3.220   3.220  0.0052 -2.2275  0.2756
 8015TIP3    H248241   4.519   3.220   3.256 -0.0787  2.3055  0.4432
 8016TIP3   OH248242   4.672   4.698   1.447 -0.0606 -0.3243 -0.1547
 8016TIP3    H148243   4.649   4.649   1.367  1.9887  0.4162 -1.2748
 8016TIP3    H248244   4.768   4.694   1.450 -0.0723  0.2135  1.9554
 8017TIP3   OH248245   3.853   2.852   1.042 -0.1602 -0.5327 -0.4707
 8017TIP3    H148246   3.769   2.829   1.081 -0.4482 -0.6497 -1.1522
 8017TIP3    H248247   3.849   2.817   0.953  0.0128  0.7635 -1.0157
 8018TIP3   OH248248   6.818   0.042   1.994  0.9322 -0.1145 -0.5445
 8018TIP3    H148249   6.882  -0.026   2.016  0.5187 -0.4248 -0.2915
 8018TIP3    H248250   6.871   0.117   1.969  1.4013 -0.3033 -0.1352
 8019TIP3   OH248251   2.876   6.026   1.405  0.3222  0.2147  0.4082
 8019TIP3    H148252   2.902   5.951   1.459 -1.5480 -0.3161  0.6296
 8019TIP3    H248253   2.853   6.094   1.469 -0.6743  0.0101  0.2886
 8020TIP3   OH248254   1.785   1.949   1.768  0.1173  0.0990  0.4689
 8020TIP3    H148255   1.860   1.993   1.808 -0.1991  0.8352  0.2612
 8020TIP3    H248256   1.798   1.857   1.789 -0.4067  0.4954  2.9277
 8021TIP3   OH248257   3.816   7.359   2.089  0.8472 -0.0549  0.2971
 8021TIP3    H148258   3.894   7.372   2.143  0.4824  2.3140  0.3551
 8021TIP3    H248259   3.775   7.280   2.125  2.0626 -0.1144  1.6508
 8022TIP3   OH248260   4.642   4.875   2.535 -0.2212  0.1191 -0.3393
 8022TIP3    H148261   4.612   4.952   2.486 -0.9554 -0.9691 -1.6781
 8022TIP3    H248262   4.562   4.829   2.558  0.2397 -0.7019 -0.3387
 8023TIP3   OH248263   2.763   1.992   1.587  0.6821  0.0918  0.0402
 8023TIP3    H148264   2.786   2.058   1.652  0.3684  2.4599 -2.0860
 8023TIP3    H248265   2.830   2.003   1.519 -1.3080  0.6412 -1.9283
 8024TIP3   OH248266   2.926   4.186   1.110  0.3191 -0.7401 -0.5768
 8024TIP3    H148267   3.012   4.149   1.131  0.6948 -0.3350 -1.3484
 8024TIP3    H248268   2.878   4.184   1.192  1.3451 -0.2353  0.0520
 8025TIP3   OH248269   5.357   2.389   0.703  1.3959  0.1402  0.4243
 8025TIP3    H148270   5.340   2.396   0.797  2.1048  0.2731  0.5498
 8025TIP3    H248271   5.336   2.299   0.681 -1.3628  0.7632  0.1566
 8026TIP3   OH248272   1.002   6.985   0.900  0.2405  0.2461  0.0707
 8026TIP3    H148273   0.954   6.973   0.982 -0.5535  0.5539 -0.3326
 8026TIP3    H248274   1.043   6.901   0.883  0.3358  0.1559  0.7376
 8027TIP3   OH248275   6.465   3.817   0.677  0.1101  0.1357  0.4940
 8027TIP3    H148276   6.487   3.723   0.677  2.0752  0.5488  0.0282
 8027TIP3    H248277   6.515   3.853   0.750 -2.2483  0.5472  2.0108
 8028TIP3   OH248278   1.536   1.986   0.620 -0.4560 -0.0899  0.8880
 8028TIP3    H148279   1.604   2.033   0.668  0.9262 -1.3155  0.2170
 8028TIP3    H248280   1.573   1.898   0.606 -0.9216  0.0945 -2.0695
 8029TIP3   OH248281   5.437   7.304   1.872 -0.1671  0.1494 -0.6176
 8029TIP3    H148282   5.441   7.354   1.791 -0.3473  1.3386  0.0839
 8029TIP3    H248283   5.345   7.303   1.895 -0.0234  0.5093 -0.0129
 8030TIP3   OH248284   4.681   0.977   2.143  0.3847  0.3795 -0.1081
 8030TIP3    H148285   4.708   1.038   2.074 -0.4881 -1.2798 -2.0136
 8030TIP3    H248286   4.610   1.022   2.189  0.3369  1.1450 -0.9056
 8031TIP3   OH248287   2.106   2.530   2.302  0.1461  0.7789  0.4169
 8031TIP3    H148288   2.027   2.583   2.293  0.0820  0.3726 -1.9808
 8031TIP3    H248289   2.177   2.589   2.279  0.3902  0.6790  0.9067
 8032TIP3   OH248290   4.933   5.258   1.831 -0.8546  0.2841 -0.1869
 8032TIP3    H148291   5.006   5.203   1.803 -0.5590  1.0603 -0.9723
 8032TIP3    H248292   4.927   5.243   1.925 -0.1551 -0.3526 -0.2357
 8033TIP3   OH248293   6.719   2.254   0.687 -0.1554 -0.2704  0.7998
 8033TIP3    H148294   6.802   2.300   0.693 -0.8429  1.6245 -2.0934
 8033TIP3    H248295   6.664   2.295   0.754  0.8544 -0.7896  1.9855
 8034TIP3   OH248296   1.458   6.708   0.896 -0.5217  0.4870  0.1683
 8034TIP3    H148297   1.467   6.618   0.866  0.2802  0.5708  0.1345
 8034TIP3    H248298   1.423   6.702   0.985  1.0657  0.0712  0.7898
 8035TIP3   OH248299   4.090   5.127   1.636 -0.6014 -0.0469  0.0180
 8035TIP3    H148300   4.015   5.156   1.689 -0.2031  0.3139  0.3874
 8035TIP3    H248301   4.101   5.035   1.659 -0.9881 -0.1258 -0.1043
 8036TIP3   OH248302   7.263   7.498   2.409 -0.2817 -0.4377  0.6631
 8036TIP3    H148303   7.275   7.574   2.352 -0.1710 -0.8504  0.1245
 8036TIP3    H248304   7.350   7.481   2.446 -0.0071 -1.1054 -0.2574
 8037TIP3   OH248305   5.937   5.706   1.641  0.3192 -0.4009 -0.0658
 8037TIP3    H148306   5.967   5.720   1.551  1.5560 -0.2364  0.3396
 8037TIP3    H248307   5.850   5.745   1.644 -0.2660 -1.4802 -1.4965
 8038TIP3   OH248308   7.506   0.510   0.416  0.4075 -0.0870 -0.3034
 8038TIP3    H148309   7.457   0.587   0.443 -0.0923 -0.4803 -0.0654
 8038TIP3    H248310   7.595   0.526   0.448  0.3231  0.4123 -0.3078
 8039TIP3   OH248311   4.740   0.441   0.586  0.1305  0.4211 -0.4714
 8039TIP3    H148312   4.662   0.486   0.619  0.5397  0.3885  0.5841
 8039TIP3    H248313   4.706   0.360   0.547 -0.3361  0.2194  0.3259
 8040TIP3   OH248314   0.662   7.632   2.914 -0.4343 -0.2064 -0.0469
 8040TIP3    H148315   0.684   7.570   2.983  2.3525 -0.2824 -0.8687
 8040TIP3    H248316   0.634   7.578   2.840 -1.0944 -0.2682  0.2442
 8041TIP3   OH248317   0.564   1.187   2.587 -0.2126 -0.0563 -0.5025
 8041TIP3    H148318   0.553   1.246   2.662  1.2791  0.0113 -0.3126
 8041TIP3    H248319   0.507   1.112   2.608  1.2566 -0.7147  1.4307
 8042TIP3   OH248320   0.022   6.394   1.133 -0.2300  0.4170 -0.5318
 8042TIP3    H148321   0.014   6.489   1.144  0.7657  0.5088 -0.4858
 8042TIP3    H248322   0.097   6.370   1.187 -0.9387 -0.5271  0.0649
 8043TIP3   OH248323   3.854   5.083   1.451 -0.3425  0.4301  0.2141
 8043TIP3    H148324   3.924   5.124   1.502 -0.4138  1.0170 -0.1619
 8043TIP3    H248325   3.886   4.994   1.435 -0.0522  0.4345  0.7583
 8044TIP3   OH248326   4.552   6.581   1.837 -0.4003  0.1177 -0.0882
 8044TIP3    H148327   4.509   6.633   1.769 -0.4076  0.2487  0.0161
 8044TIP3    H248328   4.601   6.515   1.788  0.1765  0.6534 -0.2625
 8045TIP3   OH248329   2.923   5.874   1.896  0.2276 -0.0409  0.3033
 8045TIP3    H148330   2.827   5.882   1.903  0.2395  0.3510  0.0529
 8045TIP3    H248331   2.953   5.963   1.878  0.6730 -0.1094  0.7132
 8046TIP3   OH248332   6.818   0.417   0.758  0.2472 -0.8031 -0.2014
 8046TIP3    H148333   6.831   0.405   0.852  1.6991 -0.1933 -0.3092
 8046TIP3    H248334   6.725   0.395   0.744  0.3821 -2.4031  1.1064
 8047TIP3   OH248335   2.436   1.884   1.801 -0.0050 -0.4821 -0.3375
 8047TIP3    H148336   2.527   1.864   1.822  0.6381  0.9362 -1.5293
 8047TIP3    H248337   2.429   1.979   1.814 -1.1060 -0.4623 -0.9391
 8048TIP3   OH248338   3.544   6.246   1.614  0.1307  0.6612 -0.1390
 8048TIP3    H148339   3.618   6.303   1.593  0.7883  0.9768  2.6900
 8048TIP3    H248340   3.583   6.160   1.628 -0.3310  0.3809 -0.5326
 8049TIP3   OH248341   6.173   1.834   1.287 -0.0796  0.6121  0.1815
 8049TIP3    H148342   6.179   1.747   1.328 -0.4831  0.5703  0.1582
 8049TIP3    H248343   6.264   1.861   1.275  0.1409 -0.6801 -1.6390
 8050TIP3   OH248344   7.555   2.202   1.709  0.0118 -0.0497 -0.3687
 8050TIP3    H148345   7.571   2.108   1.717  2.5528  0.1502 -1.7729
 8050TIP3    H248346   7.508   2.211   1.626  0.8867 -0.0209 -0.8718
 8051TIP3   OH248347   1.434   2.883   1.935 -0.6715 -0.1518 -0.1239
 8051TIP3    H148348   1.524   2.914   1.922 -0.5307 -0.8755 -0.9821
 8051TIP3    H248349   1.397   2.944   1.999  0.3337  0.3352  0.0226
 8052TIP3   OH248350   4.935   6.782   0.872 -0.1283 -0.4571 -0.3099
 8052TIP3    H148351   4.873   6.712   0.895 -0.3306 -0.5102 -0.9858
 8052TIP3    H248352   4.978   6.804   0.955 -1.5686  0.0898  0.3376
 8053TIP3   OH248353   7.601   1.061   1.326 -0.1280  0.2693 -0.0843
 8053TIP3    H148354   7.527   1.006   1.353 -0.3095 -0.1448 -1.3467
 8053TIP3    H248355   7.674   1.032   1.381 -0.2802 -1.1181 -0.5646
 8054TIP3   OH248356   2.674   3.641   0.711 -0.3521 -0.5292 -0.4783
 8054TIP3    H148357   2.673   3.709   0.779 -3.3889 -1.0955  0.2024
 8054TIP3    H248358   2.676   3.690   0.628  0.8973  0.2428 -0.0175
 8055TIP3   OH248359   1.611   6.849   2.273 -0.4175 -0.1798 -0.6447
 8055TIP3    H148360   1.520   6.825   2.292 -0.3291 -0.4508 -0.5571
 8055TIP3    H248361   1.636   6.790   2.202  0.8171 -2.6214  1.6276
 8056TIP3   OH248362   3.776   2.632   0.860 -0.2170  0.0252 -0.0380
 8056TIP3    H148363   3.823   2.625   0.777  3.2065  2.5803  1.5046
 8056TIP3    H248364   3.797   2.550   0.906 -0.9351 -0.7504 -1.0358
 8057TIP3   OH248365   6.681   0.033   3.671  0.3409  0.2248  0.1912
 8057TIP3    H148366   6.640   0.108   3.629 -1.0971  0.3016  1.6408
 8057TIP3    H248367   6.619  -0.038   3.659  0.8421 -0.2648  0.4414
 8058TIP3   OH248368   0.540   4.494   1.995 -0.4805 -0.2052 -0.4797
 8058TIP3    H148369   0.482   4.565   2.023 -1.1390 -0.7910 -0.3382
 8058TIP3    H248370   0.483   4.436   1.944  0.1554 -0.4048 -0.9732
 8059TIP3   OH248371   4.409   3.713   1.562 -0.0123  0.7866 -0.7146
 8059TIP3    H148372   4.451   3.673   1.639  2.6062  0.0261 -2.4154
 8059TIP3    H248373   4.378   3.638   1.511  0.1895  1.1641 -1.3991
 8060TIP3   OH248374   4.314   5.904   1.527 -0.2005  0.4201  0.1104
 8060TIP3    H148375   4.237   5.848   1.516  0.6022 -1.4657  3.0668
 8060TIP3    H248376   4.278   5.989   1.553 -1.3241  0.2694 -0.8574
 8061TIP3   OH248377   7.183   1.107   1.262 -0.6240  0.6303  0.3626
 8061TIP3    H148378   7.193   1.174   1.194 -0.8928 -1.4635 -1.8895
 8061TIP3    H248379   7.092   1.078   1.255 -0.0689 -1.1768  0.0185
 8062TIP3   OH248380   1.766   2.700   1.683 -0.2248 -0.4697  0.1904
 8062TIP3    H148381   1.771   2.632   1.616 -0.6620  0.7855 -1.1604
 8062TIP3    H248382   1.846   2.750   1.673 -0.0024 -0.6327  1.0461
 8063TIP3   OH248383   4.307   2.596   2.280 -0.3573  0.0285  0.2592
 8063TIP3    H148384   4.277   2.615   2.191 -1.3760 -0.3087  0.5152
 8063TIP3    H248385   4.233   2.620   2.336  0.0035 -0.4379  0.9550
 8064TIP3   OH248386   0.799   0.029   1.265  0.2248  0.3995 -0.2286
 8064TIP3    H148387   0.711   0.065   1.264 -0.5004 -1.2971 -0.3166
 8064TIP3    H248388   0.812  -0.003   1.355  0.9650  1.1234 -0.0663
 8065TIP3   OH248389   0.075   1.229   2.282  0.5580  0.4428 -0.1614
 8065TIP3    H148390   0.154   1.215   2.230  0.3693 -0.4457 -0.2250
 8065TIP3    H248391   0.097   1.198   2.369  0.2847  0.2086 -0.1738
 8066TIP3   OH248392   1.890   4.759   0.517  0.5324 -0.0388  0.5440
 8066TIP3    H148393   1.893   4.852   0.498  1.0336 -0.0835  0.3807
 8066TIP3    H248394   1.937   4.750   0.599 -0.5604 -0.0021  1.1927
 8067TIP3   OH248395   5.145   4.580   2.013 -0.4709 -0.0640  0.6891
 8067TIP3    H148396   5.216   4.536   2.059  0.3824  0.5701  0.0203
 8067TIP3    H248397   5.103   4.635   2.079 -1.5814 -1.8487  1.5468
 8068TIP3   OH248398   1.850   5.466   2.435 -0.0834 -0.0249  0.7925
 8068TIP3    H148399   1.907   5.535   2.467  0.3502 -1.1416  2.5836
 8068TIP3    H248400   1.761   5.497   2.455  0.0354  0.5417  0.4515
 8069TIP3   OH248401   3.960   2.086   0.906  0.2778 -0.0100 -0.3580
 8069TIP3    H148402   3.879   2.044   0.935 -0.4509 -0.1274 -2.4294
 8069TIP3    H248403   3.933   2.142   0.834  1.7521  1.5602  0.2516
 8070TIP3   OH248404   1.269   1.360   1.098 -0.2719  0.2482  0.1059
 8070TIP3    H148405   1.196   1.422   1.097  0.4416  1.1734  1.8806
 8070TIP3    H248406   1.228   1.275   1.113 -1.1609  0.3861 -1.2896
 8071TIP3   OH248407   1.941   0.740   1.945 -0.0456 -0.3124  0.2496
 8071TIP3    H148408   1.997   0.672   1.980  0.8143 -0.3203 -1.0460
 8071TIP3    H248409   1.858   0.730   1.991  0.3453 -1.6668  0.6882
 8072TIP3   OH248410   2.705   2.066   2.220  0.2918 -0.0841  0.5796
 8072TIP3    H148411   2.664   2.062   2.306 -1.2873  1.2394 -0.0585
 8072TIP3    H248412   2.680   2.152   2.185  1.4167 -0.3252 -0.9432
 8073TIP3   OH248413   3.267   7.244   2.642 -0.6724 -0.0214 -0.2484
 8073TIP3    H148414   3.299   7.316   2.588 -0.3279  1.2001  1.5041
 8073TIP3    H248415   3.249   7.173   2.580 -1.0129  1.5539 -2.0197
 8074TIP3   OH248416   6.137   2.375   2.053  0.3148  0.3010 -0.6358
 8074TIP3    H148417   6.175   2.287   2.054 -0.4745 -0.0733  1.2259
 8074TIP3    H248418   6.131   2.399   2.145 -1.2820  1.5249 -1.0218
 8075TIP3   OH248419   0.603   1.679   2.580  0.4934  0.9935  0.2456
 8075TIP3    H148420   0.667   1.614   2.550  0.4454  2.2246 -2.7959
 8075TIP3    H248421   0.647   1.723   2.653  2.3524  0.5313 -0.5388
 8076TIP3   OH248422   1.177   4.330   2.664 -0.2163  0.2996  0.2938
 8076TIP3    H148423   1.206   4.266   2.729  0.6662  1.8299  1.4729
 8076TIP3    H248424   1.100   4.289   2.624  0.0918 -1.3283  1.2444
 8077TIP3   OH248425   0.012   0.041   1.138  0.4181 -0.2294  0.1937
 8077TIP3    H148426  -0.003   0.042   1.043 -1.2905  0.0762  0.4534
 8077TIP3    H248427   0.013  -0.052   1.161  2.1991 -0.3742 -0.2877
 8078TIP3   OH248428   6.249   1.304   1.145  0.1376  0.1190  0.5336
 8078TIP3    H148429   6.334   1.318   1.186  0.4491 -0.5545  0.1412
 8078TIP3    H248430   6.222   1.391   1.115  1.3847  0.1173 -0.6698
 8079TIP3   OH248431   3.559   5.855   1.397 -0.7428 -0.3830  0.8187
 8079TIP3    H148432   3.493   5.792   1.426  0.7622 -1.9437  1.0542
 8079TIP3    H248433   3.592   5.818   1.315 -1.0238  1.0528  0.0225
 8080TIP3   OH248434   0.206   2.628   2.773 -0.6144  0.4747  0.1641
 8080TIP3    H148435   0.178   2.644   2.683 -1.6620 -0.7752  0.2354
 8080TIP3    H248436   0.131   2.585   2.814  0.5091 -0.6733  1.1055
 8081TIP3   OH248437   3.820   1.278   2.196  0.7777 -0.4841 -0.5122
 8081TIP3    H148438   3.774   1.343   2.143  0.3097 -0.9742 -0.7098
 8081TIP3    H248439   3.899   1.258   2.146 -0.0689 -1.5721 -1.4627
 8082TIP3   OH248440   4.651   5.589   2.292 -0.3454  0.0207 -0.2779
 8082TIP3    H148441   4.575   5.536   2.315 -0.0227 -0.4299 -0.2407
 8082TIP3    H248442   4.726   5.536   2.317  0.0044 -0.0796 -1.4627
 8083TIP3   OH248443   5.012   3.350   1.811 -0.1624  0.1686 -0.1211
 8083TIP3    H148444   4.997   3.341   1.905 -0.6221 -1.1272 -0.3117
 8083TIP3    H248445   5.107   3.351   1.802 -0.1108  0.6983  0.3777
 8084TIP3   OH248446   1.857   1.752   1.996 -0.2672  0.3267  0.0670
 8084TIP3    H148447   1.868   1.845   2.018 -1.3616  0.3250  0.7315
 8084TIP3    H248448   1.770   1.730   2.030 -0.0463 -0.9321 -0.1306
 8085TIP3   OH248449   2.687   6.247   3.103 -0.2366  0.0096 -0.3224
 8085TIP3    H148450   2.671   6.232   3.010 -0.6642 -1.9729  0.0246
 8085TIP3    H248451   2.766   6.302   3.105 -0.0903 -0.1071 -1.8407
 8086TIP3   OH248452   0.840   2.855   0.765  0.1267  0.6997 -0.0348
 8086TIP3    H148453   0.893   2.776   0.752 -1.7777 -0.6023 -0.2274
 8086TIP3    H248454   0.788   2.836   0.843  0.9592  2.5588  1.0343
 8087TIP3   OH248455   0.561   5.137   1.313 -0.4512 -0.5021 -0.5202
 8087TIP3    H148456   0.572   5.050   1.274  0.9828 -1.2930  1.4672
 8087TIP3    H248457   0.648   5.176   1.310 -1.2040  1.1916 -1.9657
 8088TIP3   OH248458   1.037   7.559   2.996 -0.3513  0.0528 -0.7879
 8088TIP3    H148459   1.063   7.648   2.971 -1.6638  0.5066 -0.6127
 8088TIP3    H248460   1.111   7.504   2.968 -0.1517  1.0007 -2.2404
 8089TIP3   OH248461   7.654   1.297   0.557 -0.3563 -0.5849 -0.8397
 8089TIP3    H148462   7.644   1.207   0.526  0.2370 -0.6751 -0.7752
 8089TIP3    H248463   7.673   1.288   0.651 -1.2312 -0.3525 -0.6297
 8090TIP3   OH248464   2.076   6.887   2.190  0.4310  0.3910  0.6487
 8090TIP3    H148465   1.982   6.903   2.182 -0.1875 -2.0604  2.0158
 8090TIP3    H248466   2.106   6.880   2.099 -1.1058 -0.7287  0.1783
 8091TIP3   OH248467   2.185   3.968   0.632 -0.3511  0.2248  0.4098
 8091TIP3    H148468   2.121   3.984   0.702  1.1903 -0.7391  2.1420
 8091TIP3    H248469   2.188   4.050   0.584 -0.8440  1.2543  2.0265
 8092TIP3   OH248470   1.384   0.228   2.482  0.0997  0.3753  0.6909
 8092TIP3    H148471   1.411   0.301   2.537  1.8706 -0.1496  0.5565
 8092TIP3    H248472   1.461   0.206   2.430  0.1450 -2.5493  1.8056
 8093TIP3   OH248473   2.540   7.314   0.871 -0.5549 -0.0151  0.4446
 8093TIP3    H148474   2.519   7.221   0.873 -2.2063  0.3046 -0.3789
 8093TIP3    H248475   2.564   7.331   0.780 -0.9787  0.5015  0.4260
 8094TIP3   OH248476   2.593   2.236   0.578  0.9763 -0.1023  0.1849
 8094TIP3    H148477   2.557   2.225   0.490 -1.5733 -1.0052  1.2696
 8094TIP3    H248478   2.615   2.329   0.584  0.9394  0.0237 -1.2795
 8095TIP3   OH248479   3.609   0.235   1.451 -0.1291  0.1864  0.0239
 8095TIP3    H148480   3.595   0.308   1.511  0.0885  0.0625  0.2224
 8095TIP3    H248481   3.677   0.182   1.492  2.5231  1.8379 -1.8832
 8096TIP3   OH248482   3.707   1.717   2.158 -0.4474  1.1387  0.1479
 8096TIP3    H148483   3.787   1.702   2.108 -0.3871 -1.1185  0.8365
 8096TIP3    H248484   3.655   1.637   2.147 -1.4057  1.4641  1.8911
 8097TIP3   OH248485   2.776   1.448   2.196  0.1438  0.2408  0.4368
 8097TIP3    H148486   2.866   1.417   2.212  0.3315  0.8101  0.4938
 8097TIP3    H248487   2.747   1.484   2.279  0.8427  2.4938 -0.2149
 8098TIP3   OH248488   4.008   6.251   2.567 -0.2170 -0.3054  0.0437
 8098TIP3    H148489   4.033   6.300   2.488  2.0073 -0.9283  0.3017
 8098TIP3    H248490   4.023   6.159   2.544 -1.1096 -0.6179  0.6699
 8099TIP3   OH248491   4.528   4.650   2.657 -0.3767 -0.0875  0.1628
 8099TIP3    H148492   4.532   4.662   2.752  1.7373 -0.7366  0.2146
 8099TIP3    H248493   4.462   4.581   2.645 -1.7331  1.0032  1.0015
 8100TIP3   OH248494   3.466   4.683   1.757  0.0618  0.6360 -0.1544
 8100TIP3    H148495   3.383   4.732   1.754 -0.9732 -0.9857  0.8099
 8100TIP3    H248496   3.455   4.613   1.693 -0.4173 -1.1640  1.7873
 8101TIP3   OH248497   3.486   6.449   2.711 -0.2145 -0.5195 -0.3848
 8101TIP3    H148498   3.528   6.458   2.796 -0.6821 -2.0296  0.0282
 8101TIP3    H248499   3.542   6.389   2.662 -0.7228 -0.8196 -0.6120
 8102TIP3   OH248500   1.254   3.620   2.922  0.1013  0.1295 -0.6445
 8102TIP3    H148501   1.229   3.601   3.013 -1.8791  1.0192 -0.9564
 8102TIP3    H248502   1.305   3.544   2.895  0.3283 -0.3691  1.0605
 8103TIP3   OH248503   7.203   2.056   2.246 -0.1407 -0.2059 -0.3231
 8103TIP3    H148504   7.120   2.009   2.231 -0.6143  0.1382  1.0606
 8103TIP3    H248505   7.255   1.997   2.301 -0.5839  0.6662  1.0969
 8104TIP3   OH248506   1.403   5.437   1.669  0.1605 -0.3002 -0.0532
 8104TIP3    H148507   1.344   5.362   1.676 -0.4989  0.2903  0.8119
 8104TIP3    H248508   1.421   5.444   1.575 -2.3976  0.4480 -0.5812
 8105TIP3   OH248509   5.523   6.732   0.400 -0.2410 -0.2128 -0.0283
 8105TIP3    H148510   5.596   6.694   0.448 -0.5393  0.1788  0.7510
 8105TIP3    H248511   5.564   6.780   0.328  0.2414 -0.3811  0.1303
 8106TIP3   OH248512   2.064   4.058   2.411  0.8594  0.3078 -0.1604
 8106TIP3    H148513   2.049   3.994   2.342  1.3246 -0.6939  0.6392
 8106TIP3    H248514   2.116   4.127   2.370 -0.8648  0.9362 -1.4175
 8107TIP3   OH248515   1.872   1.241   2.121 -0.1981  0.0056  0.4339
 8107TIP3    H148516   1.796   1.235   2.063  0.0178 -0.3489  0.1809
 8107TIP3    H248517   1.916   1.157   2.111  1.1167  0.7939 -0.6583
 8108TIP3   OH248518   6.674   3.536   2.377  0.0336  0.2887 -0.7379
 8108TIP3    H148519   6.593   3.558   2.330 -0.6318  1.9099  1.0061
 8108TIP3    H248520   6.681   3.441   2.369 -0.4596  0.3783 -3.3350
 8109TIP3   OH248521   3.738   5.129   1.190 -0.3724 -0.5520 -0.1609
 8109TIP3    H148522   3.764   5.114   1.281  2.0605  2.7593 -0.1419
 8109TIP3    H248523   3.694   5.214   1.191  0.1621 -0.1971 -2.1525
 8110TIP3   OH248524   3.123   2.609   2.409 -0.0672  0.8992 -0.0310
 8110TIP3    H148525   3.146   2.589   2.500  1.0998 -0.2797 -0.5464
 8110TIP3    H248526   3.186   2.560   2.357  0.2399  2.7370 -1.4938
 8111TIP3   OH248527   4.649   3.649   2.867  0.6940 -0.6191  1.0175
 8111TIP3    H148528   4.653   3.592   2.944 -0.5146  0.4056  1.8818
 8111TIP3    H248529   4.610   3.730   2.900 -1.9066 -0.8816 -1.0964
 8112TIP3   OH248530   3.062   2.157   2.556 -0.3127  0.1000 -0.0652
 8112TIP3    H148531   3.058   2.072   2.602  1.3837 -0.6139 -1.1372
 8112TIP3    H248532   3.155   2.170   2.539 -0.7289  1.1992 -1.7178
 8113TIP3   OH248533   7.256   3.514   0.810  0.4330  0.6098  0.1359
 8113TIP3    H148534   7.290   3.498   0.898  1.4315 -0.6552 -0.4540
 8113TIP3    H248535   7.334   3.528   0.757  0.1543 -2.4623 -1.2757
 8114TIP3   OH248536   3.260   5.965   0.610 -0.2667 -0.2367  0.0522
 8114TIP3    H148537   3.221   6.052   0.620 -1.5899 -0.8861  0.8273
 8114TIP3    H248538   3.353   5.982   0.593 -0.4342  1.3153  0.5301
 8115TIP3   OH248539   0.825   0.198   2.852  0.1403  0.1173 -0.2819
 8115TIP3    H148540   0.761   0.132   2.878 -2.0882  1.2980 -2.3212
 8115TIP3    H248541   0.782   0.282   2.872  0.8862  0.9581 -1.9567
 8116TIP3   OH248542   0.645   5.039   1.595  0.8497  0.1909 -1.0234
 8116TIP3    H148543   0.678   4.956   1.560 -1.6518 -1.0625 -0.6265
 8116TIP3    H248544   0.592   5.075   1.523 -1.4355 -0.6622  0.1423
 8117TIP3   OH248545   1.089   1.292   1.868 -0.6400 -0.0228 -0.2479
 8117TIP3    H148546   1.058   1.262   1.783 -0.8281  0.4473 -0.3496
 8117TIP3    H248547   1.080   1.387   1.864  0.6646  0.1162 -0.2228
 8118TIP3   OH248548   7.656   7.195   0.608  0.1296  0.1156  0.2423
 8118TIP3    H148549   7.630   7.285   0.589  0.7521  0.6150  1.6346
 8118TIP3    H248550   7.589   7.163   0.669  1.0593  0.3895  1.4494
 8119TIP3   OH248551   4.358   1.163   0.972  0.2164  0.2118  0.0273
 8119TIP3    H148552   4.356   1.169   0.877  0.2348  1.4472  0.0777
 8119TIP3    H248553   4.321   1.077   0.992 -0.1966  0.1165 -1.0759
 8120TIP3   OH248554   6.277   1.603   0.701  0.1772 -0.1367  0.0643
 8120TIP3    H148555   6.210   1.632   0.640  0.8267  1.8161  0.2062
 8120TIP3    H248556   6.358   1.644   0.670  0.2876  2.2618  2.9713
 8121TIP3   OH248557   6.532   6.879   2.790 -0.4357  0.3864  0.8028
 8121TIP3    H148558   6.542   6.878   2.886  2.9966 -1.7880  0.5830
 8121TIP3    H248559   6.532   6.787   2.765  2.6482  0.8539 -1.4800
 8122TIP3   OH248560   1.207   7.620   8.403  0.0798  0.3269  0.7895
 8122TIP3    H148561   1.267   7.557   8.364 -0.5573  0.3532 -0.2939
 8122TIP3    H248562   1.174   7.670   8.328 -0.8548  0.6876  1.4269
 8123TIP3   OH248563   5.563   5.216   2.873  0.0745 -0.5917  0.2069
 8123TIP3    H148564   5.653   5.245   2.891 -0.7675  1.8744  0.7814
 8123TIP3    H248565   5.513   5.245   2.948 -1.7705  1.0259 -1.5477
 8124TIP3   OH248566   7.359   2.707   2.776 -0.3887 -0.0979 -0.6073
 8124TIP3    H148567   7.315   2.627   2.747  0.5747 -1.0602  0.4695
 8124TIP3    H248568   7.399   2.742   2.696 -2.0371  0.1502 -1.3751
 8125TIP3   OH248569   0.206   6.183   2.266  0.0478  0.3486 -0.3600
 8125TIP3    H148570   0.155   6.255   2.229  0.3095  0.1925 -1.0353
 8125TIP3    H248571   0.173   6.174   2.355 -1.4531 -0.0706 -0.9170
 8126TIP3   OH248572   3.699   6.774   0.682 -0.3668 -0.0180  0.4263
 8126TIP3    H148573   3.613   6.741   0.708 -0.7114 -0.1888 -0.8882
 8126TIP3    H248574   3.724   6.832   0.754 -0.3570 -1.9970  2.1390
 8127TIP3   OH248575   5.224   6.216   2.688  0.0655  0.0444  0.1412
 8127TIP3    H148576   5.129   6.227   2.681 -0.1031 -2.0811 -2.7611
 8127TIP3    H248577   5.256   6.300   2.722 -2.6093  1.7971 -1.3581
 8128TIP3   OH248578   1.547   6.181   0.864  0.0542  1.0792  0.0650
 8128TIP3    H148579   1.543   6.088   0.840 -0.8847  1.5052 -1.5993
 8128TIP3    H248580   1.583   6.181   0.953 -1.7108 -0.9957  0.8765
 8129TIP3   OH248581   2.392   1.352   2.373 -0.1417 -0.1584 -0.4382
 8129TIP3    H148582   2.457   1.363   2.442 -0.9805 -1.1503  0.5604
 8129TIP3    H248583   2.371   1.441   2.344  2.6115  0.1498 -1.7722
 8130TIP3   OH248584   6.699   4.517   0.415  1.0883 -0.4400 -0.2110
 8130TIP3    H148585   6.759   4.442   0.420  0.6214 -0.7494  2.9312
 8130TIP3    H248586   6.613   4.479   0.432  0.2428  0.3261 -2.4699
 8131TIP3   OH248587   4.246   0.926   1.060  0.0182 -0.1612  0.4613
 8131TIP3    H148588   4.183   0.867   1.018  0.0970 -0.4719  0.7788
 8131TIP3    H248589   4.215   0.934   1.150 -0.7031  1.2689  0.1202
 8132TIP3   OH248590   5.108   2.793   1.949 -0.6297 -0.0749 -0.3869
 8132TIP3    H148591   5.049   2.835   1.886 -0.4535  1.8629  0.6625
 8132TIP3    H248592   5.194   2.797   1.908 -1.1686 -3.6795 -2.3075
 8133TIP3   OH248593   5.107   1.142   2.124  0.1821  0.1106 -0.4786
 8133TIP3    H148594   5.079   1.056   2.155  0.4540  0.7454  1.6386
 8133TIP3    H248595   5.026   1.192   2.113  0.1502  0.5215  1.2977
 8134TIP3   OH248596   1.213   4.266   9.574 -0.3731 -0.1098  0.3078
 8134TIP3    H148597   1.218   4.311   9.659  0.9906 -1.8932  1.2650
 8134TIP3    H248598   1.198   4.174   9.597 -0.4723 -0.5550 -1.4238
 8135TIP3   OH248599   6.593   2.706   0.883  0.0370  0.0308  0.3632
 8135TIP3    H148600   6.500   2.717   0.905  0.1061  2.3349 -0.2358
 8135TIP3    H248601   6.617   2.788   0.838  1.0381 -2.4333 -4.1938
 8136TIP3   OH248602   4.841   1.647   2.603  0.1580 -0.3413  0.7712
 8136TIP3    H148603   4.840   1.678   2.694 -0.1738  0.5367  0.4781
 8136TIP3    H248604   4.749   1.631   2.582  0.2341 -0.5336  0.5789
 8137TIP3   OH248605   0.320   3.562   2.335 -0.0547  0.6927  0.1593
 8137TIP3    H148606   0.329   3.470   2.312  2.6038  0.8279  0.3384
 8137TIP3    H248607   0.328   3.563   2.431 -0.0694  1.1018  0.1569
 8138TIP3   OH248608   1.284   2.667   1.122 -0.0128  0.2883  0.5069
 8138TIP3    H148609   1.339   2.591   1.143  0.7273  0.4803 -0.6320
 8138TIP3    H248610   1.334   2.714   1.055 -0.4671  1.7711  1.1750
 8139TIP3   OH248611   4.051   7.396   0.925 -0.0147  0.4732  0.2730
 8139TIP3    H148612   4.108   7.444   0.986 -1.5828 -0.6123  2.7681
 8139TIP3    H248613   3.972   7.450   0.919 -0.1568  0.2094 -0.2579
 8140TIP3   OH248614   0.558   5.712   1.404  0.4740 -0.5189  0.3786
 8140TIP3    H148615   0.539   5.689   1.495  1.2189 -1.2707  0.3528
 8140TIP3    H248616   0.475   5.745   1.370  0.1537 -0.3543  1.2909
 8141TIP3   OH248617   3.379   5.138   1.527 -0.1483 -0.1375 -0.4114
 8141TIP3    H148618   3.321   5.166   1.597 -1.1459  0.0475 -1.2939
 8141TIP3    H248619   3.337   5.060   1.490  0.2795 -0.1363 -0.9171
 8142TIP3   OH248620   0.867   2.598   3.185  0.1316  0.6810 -0.1837
 8142TIP3    H148621   0.785   2.618   3.141 -0.4082 -1.9500 -0.4792
 8142TIP3    H248622   0.857   2.509   3.217  2.0542  1.0557  1.7450
 8143TIP3   OH248623   2.885   2.760   1.133  0.0229  0.2751  0.0255
 8143TIP3    H148624   2.895   2.834   1.073 -2.0747  1.7206  1.3200
 8143TIP3    H248625   2.964   2.761   1.187  0.9495  0.2528 -1.2788
 8144TIP3   OH248626   2.402   5.629   2.173  0.4429 -0.1313  0.0684
 8144TIP3    H148627   2.343   5.699   2.201 -0.5647 -0.9991  0.1718
 8144TIP3    H248628   2.345   5.563   2.132  1.3920 -0.7784 -0.2614
 8145TIP3   OH248629   7.067   5.564   0.834  0.1609  0.1015 -0.3198
 8145TIP3    H148630   7.028   5.481   0.806  1.0804 -0.5737  0.3338
 8145TIP3    H248631   7.051   5.567   0.929  3.4511 -1.2781  0.4404
 8146TIP3   OH248632   4.468   6.399   0.751 -0.4468  0.1717 -0.3073
 8146TIP3    H148633   4.416   6.321   0.772 -2.0495  1.2073 -0.3331
 8146TIP3    H248634   4.407   6.460   0.711  0.6124  1.7393  0.3542
 8147TIP3   OH248635   3.382   5.411   1.361  0.2782  0.2418  0.1122
 8147TIP3    H148636   3.422   5.336   1.405  1.0493 -0.1260 -1.1821
 8147TIP3    H248637   3.296   5.421   1.404  0.8021 -0.3926  1.3447
 8148TIP3   OH248638   5.131   4.508   2.419  0.5775 -0.0695 -0.0690
 8148TIP3    H148639   5.171   4.492   2.505 -0.2929  0.5719  0.4706
 8148TIP3    H248640   5.039   4.521   2.438  0.5117  0.9496 -1.0091
 8149TIP3   OH248641   2.218   3.214   2.543  0.6532 -0.0590 -0.0576
 8149TIP3    H148642   2.281   3.142   2.549 -0.0532 -0.6366  0.6664
 8149TIP3    H248643   2.192   3.231   2.634  1.3033  1.5737 -0.1328
 8150TIP3   OH248644   6.833   6.319   0.912 -0.1086 -0.5056 -0.3094
 8150TIP3    H148645   6.917   6.280   0.890  1.2910  0.4506  2.8545
 8150TIP3    H248646   6.851   6.413   0.919 -1.4772 -0.2710  0.3238
 8151TIP3   OH248647   6.626   0.400   2.970  0.3525 -0.0009  0.3512
 8151TIP3    H148648   6.597   0.328   2.913 -2.0163  1.1511 -0.0282
 8151TIP3    H248649   6.636   0.360   3.056  3.1041 -1.5801 -0.5862
 8152TIP3   OH248650   4.428   1.838   1.560  0.0739 -0.6284  0.0987
 8152TIP3    H148651   4.439   1.743   1.569 -0.3755 -0.8516 -1.4473
 8152TIP3    H248652   4.507   1.875   1.600  0.2319 -1.6403  0.7571
 8153TIP3   OH248653   4.847   7.548   1.536  0.0942  0.3885 -0.2686
 8153TIP3    H148654   4.920   7.515   1.589 -0.7088  0.1501  0.7318
 8153TIP3    H248655   4.803   7.470   1.504  0.4803  0.5345 -1.1830
 8154TIP3   OH248656   3.098   2.976   1.506 -0.2905 -0.0389  0.0988
 8154TIP3    H148657   3.003   2.967   1.514 -0.1640 -2.5290 -0.2092
 8154TIP3    H248658   3.130   2.968   1.596 -0.3408  0.1384  0.1323
 8155TIP3   OH248659   0.963   6.465   1.915  0.0390  0.9504  0.5022
 8155TIP3    H148660   0.912   6.441   1.993  2.0363 -1.1527  1.2904
 8155TIP3    H248661   1.029   6.526   1.948 -0.3703  1.6721  0.0093
 8156TIP3   OH248662   3.535   4.309   1.506 -0.9056  0.3613 -0.1673
 8156TIP3    H148663   3.605   4.292   1.443 -0.0896  0.4593  0.6999
 8156TIP3    H248664   3.579   4.322   1.589 -1.9718  0.1787  0.4545
 8157TIP3   OH248665   6.218   6.124   0.740  0.5326 -0.2111 -0.5037
 8157TIP3    H148666   6.198   6.147   0.649  0.1169 -1.9067 -0.8762
 8157TIP3    H248667   6.142   6.155   0.790  0.5811  0.3695 -0.7808
 8158TIP3   OH248668   0.345   7.383   2.868  0.1289  0.2872  0.0404
 8158TIP3    H148669   0.343   7.424   2.955  2.7452 -0.4961  0.5395
 8158TIP3    H248670   0.265   7.330   2.866 -1.1441  2.0394  1.0342
 8159TIP3   OH248671   5.263   5.374   2.927  0.6098 -0.2434 -0.2480
 8159TIP3    H148672   5.182   5.328   2.906 -1.1929  1.9489  1.4203
 8159TIP3    H248673   5.312   5.312   2.982  0.6796 -2.0106 -2.1474
 8160TIP3   OH248674   0.133   0.281   1.087 -0.0233 -0.0580 -0.2961
 8160TIP3    H148675   0.094   0.193   1.092 -1.0268  0.4085  0.4783
 8160TIP3    H248676   0.194   0.284   1.161 -0.0865 -0.0558 -0.2440
 8161TIP3   OH248677   6.267   4.495   2.549 -0.0027  0.0718  0.3621
 8161TIP3    H148678   6.251   4.517   2.457  0.5221 -2.1723 -0.3337
 8161TIP3    H248679   6.282   4.579   2.592 -0.8996  1.2307 -1.4621
 8162TIP3   OH248680   2.995   5.887   2.487 -0.4103  0.0731  0.3347
 8162TIP3    H148681   3.049   5.809   2.481  0.7828  0.8219  0.9269
 8162TIP3    H248682   2.970   5.891   2.579 -0.3582  0.4525  0.3329
 8163TIP3   OH248683   2.397   0.104   0.535 -0.0619  0.2937 -0.9067
 8163TIP3    H148684   2.464   0.042   0.507 -0.1730 -0.1494 -0.2121
 8163TIP3    H248685   2.389   0.090   0.629 -0.0438  1.4091 -0.7282
 8164TIP3   OH248686   1.809   6.552   2.092 -0.1970 -0.4995 -0.4589
 8164TIP3    H148687   1.795   6.542   1.998  1.0604  0.9880 -0.8432
 8164TIP3    H248688   1.825   6.646   2.104 -0.4431 -0.6475  1.2638
 8165TIP3   OH248689   7.182   3.579   1.692  0.0448 -0.4248 -0.6667
 8165TIP3    H148690   7.263   3.565   1.741 -0.6208 -1.6242  0.1243
 8165TIP3    H248691   7.200   3.543   1.605  0.7119  0.3074 -0.8432
 8166TIP3   OH248692   6.099   6.147   0.492  0.3357 -0.2306 -0.2227
 8166TIP3    H148693   6.112   6.070   0.436  0.4812 -1.3136  1.2299
 8166TIP3    H248694   6.007   6.141   0.519  0.1448  0.5316 -0.6721
 8167TIP3   OH248695   4.329   6.744   0.808 -0.1669  0.3287 -0.0667
 8167TIP3    H148696   4.242   6.782   0.801 -0.2559  0.1519  0.0624
 8167TIP3    H248697   4.318   6.652   0.782  0.0219  0.3590 -0.2604
 8168TIP3   OH248698   4.162   2.236   1.025 -0.2300  0.3847 -0.2620
 8168TIP3    H148699   4.147   2.204   1.114 -0.0360 -1.7151 -0.9278
 8168TIP3    H248700   4.082   2.212   0.977  1.2145 -2.3371 -1.5734
 8169TIP3   OH248701   4.603   0.021   1.432  0.1184 -0.1178  0.5722
 8169TIP3    H148702   4.564   0.025   1.520  0.4197  0.5151  0.6810
 8169TIP3    H248703   4.696   0.007   1.448  0.2535  0.5180  0.3734
 8170TIP3   OH248704   3.694   0.637   2.337  0.5214 -0.2953 -0.3272
 8170TIP3    H148705   3.729   0.725   2.327  1.3372 -0.5895 -0.2277
 8170TIP3    H248706   3.611   0.638   2.290 -0.4584  1.0620  1.3114
 8171TIP3   OH248707   6.407   6.094   1.179 -0.0474  0.3771 -0.2767
 8171TIP3    H148708   6.473   6.024   1.174 -1.0166 -0.8707  2.4707
 8171TIP3    H248709   6.324   6.047   1.191 -1.1383  1.9824 -1.1749
 8172TIP3   OH248710   3.382   2.080   3.246  0.1391  0.6302 -0.3591
 8172TIP3    H148711   3.470   2.118   3.244  0.6546 -0.4817  0.4008
 8172TIP3    H248712   3.329   2.146   3.292  1.0005  0.5018  0.8587
 8173TIP3   OH248713   4.156   6.003   2.237  0.2213 -0.4091 -0.1270
 8173TIP3    H148714   4.194   5.916   2.225 -1.6382 -1.2771 -0.1391
 8173TIP3    H248715   4.123   6.003   2.327  1.4378  0.8190  0.3431
 8174TIP3   OH248716   3.670   1.320   1.004  0.4142  0.0959  0.0804
 8174TIP3    H148717   3.669   1.322   0.908 -1.6432  1.4143  0.0703
 8174TIP3    H248718   3.745   1.265   1.026  0.5705 -0.7408 -2.2819
 8175TIP3   OH248719   4.631   0.771   3.224 -0.1877 -0.0112 -0.7543
 8175TIP3    H148720   4.605   0.772   3.132 -0.2036 -0.7267 -0.7616
 8175TIP3    H248721   4.563   0.820   3.270  0.1581  0.9179 -1.2060
 8176TIP3   OH248722   0.696   4.390   2.516 -0.2490 -0.0586  0.0872
 8176TIP3    H148723   0.711   4.464   2.575 -1.1940 -0.9215  1.4567
 8176TIP3    H248724   0.639   4.331   2.565  1.1897 -2.1402 -0.5836
 8177TIP3   OH248725   2.034   1.799   2.488  0.2404  0.4772  0.0636
 8177TIP3    H148726   2.019   1.764   2.400  0.2227  1.7986 -0.4915
 8177TIP3    H248727   2.058   1.891   2.473  0.4121  0.6757  1.4316
 8178TIP3   OH248728   1.194   3.051   2.788 -0.1451 -0.3561 -0.0401
 8178TIP3    H148729   1.240   3.089   2.713  0.5904 -1.0991  0.0258
 8178TIP3    H248730   1.120   3.111   2.803 -0.0688  0.0297 -1.0897
 8179TIP3   OH248731   3.453   6.766   2.411 -0.4828 -0.1124 -0.1486
 8179TIP3    H148732   3.423   6.805   2.329  0.3017  0.4687 -0.1788
 8179TIP3    H248733   3.479   6.841   2.464 -0.4267 -0.5190  0.4032
 8180TIP3   OH248734   5.229   5.991   0.994  0.5477 -0.0861  0.2929
 8180TIP3    H148735   5.247   6.046   1.070 -1.5007 -0.3187  1.0044
 8180TIP3    H248736   5.276   5.909   1.012  0.0357 -0.1656  1.3895
 8181TIP3   OH248737   1.496   7.474   1.404  0.0523  0.4729 -0.0987
 8181TIP3    H148738   1.507   7.389   1.363 -0.5013 -0.0817  0.8638
 8181TIP3    H248739   1.545   7.468   1.486  0.3105  1.2142 -0.1838
 8182TIP3   OH248740   6.425   7.316   2.498 -0.9221  0.0660 -0.3406
 8182TIP3    H148741   6.479   7.247   2.458 -0.9600 -0.1287 -0.0586
 8182TIP3    H248742   6.335   7.286   2.484 -1.0086  0.8189 -1.5986
 8183TIP3   OH248743   4.402   1.065   1.825 -0.1154 -0.0830 -0.3542
 8183TIP3    H148744   4.412   1.134   1.890 -0.4662  0.3967 -0.7976
 8183TIP3    H248745   4.371   0.989   1.874  1.6786 -0.3866  0.3782
 8184TIP3   OH248746   5.277   7.275   0.964  0.1855 -0.1791  0.6400
 8184TIP3    H148747   5.269   7.230   0.880 -0.0068 -0.8728  1.0170
 8184TIP3    H248748   5.368   7.302   0.970  0.4837 -1.1694  0.7178
 8185TIP3   OH248749   2.560   4.179   1.671  0.3340 -0.6565  0.1713
 8185TIP3    H148750   2.570   4.096   1.625 -0.2418  0.2492 -1.6791
 8185TIP3    H248751   2.634   4.182   1.732  0.3412 -2.5138  0.2936
 8186TIP3   OH248752   3.220   3.771   3.600 -0.3024  0.2893  0.5589
 8186TIP3    H148753   3.190   3.697   3.547 -0.9324  0.6706  0.3710
 8186TIP3    H248754   3.277   3.821   3.541 -0.1921  0.1721  0.5647
 8187TIP3   OH248755   6.056   0.548   3.057  0.4164  0.3856 -0.2518
 8187TIP3    H148756   6.074   0.461   3.023  0.2881  0.3662 -0.2676
 8187TIP3    H248757   6.142   0.590   3.062  0.5913 -0.0480  0.5881
 8188TIP3   OH248758   6.114   6.384   2.619  0.4302 -0.1193 -0.6460
 8188TIP3    H148759   6.168   6.323   2.668  1.2032 -0.0038 -1.3284
 8188TIP3    H248760   6.174   6.424   2.556 -0.6230 -0.6699 -2.0674
 8189TIP3   OH248761   4.309   6.595   2.100  0.6052 -0.9296 -0.2402
 8189TIP3    H148762   4.306   6.671   2.158 -0.7318 -0.5857 -0.7081
 8189TIP3    H248763   4.273   6.523   2.152 -0.5207 -0.6391 -0.5829
 8190TIP3   OH248764   0.982   7.147   2.276 -0.4900 -0.2263  0.0032
 8190TIP3    H148765   1.030   7.112   2.201 -0.7947 -0.6408  0.0032
 8190TIP3    H248766   0.974   7.241   2.258 -0.4814 -0.3097 -0.4328
 8191TIP3   OH248767   0.825   4.545   3.265 -0.1239  0.1189  0.0636
 8191TIP3    H148768   0.778   4.461   3.255  0.8547 -0.4582  0.2317
 8191TIP3    H248769   0.798   4.596   3.189 -3.0962  0.8470  1.4607
 8192TIP3   OH248770   5.832   3.419   2.101  0.3895  0.6488 -0.2620
 8192TIP3    H148771   5.813   3.377   2.185  0.9950  2.9008  1.0858
 8192TIP3    H248772   5.760   3.480   2.089  0.1759  0.1655 -1.5503
 8193TIP3   OH248773   7.357   4.310   1.217  0.1105  0.1445 -0.1419
 8193TIP3    H148774   7.374   4.395   1.177  1.1732  0.0993  0.1821
 8193TIP3    H248775   7.316   4.259   1.147 -1.9083  1.3525  0.0892
 8194TIP3   OH248776   6.920   4.914   1.878  0.1127 -0.2233 -0.1553
 8194TIP3    H148777   6.955   5.001   1.860 -0.8860  0.2890  0.2921
 8194TIP3    H248778   6.932   4.865   1.797 -0.6100  0.7740 -0.8823
 8195TIP3   OH248779   5.494   1.974   1.724 -0.6254  0.4910  0.1451
 8195TIP3    H148780   5.513   2.021   1.806 -1.4188 -0.1714  0.7289
 8195TIP3    H248781   5.575   1.981   1.674  0.4294 -0.4116  1.6393
 8196TIP3   OH248782   0.769   7.139   0.532  0.0977  0.6490 -0.3798
 8196TIP3    H148783   0.795   7.127   0.441 -1.4870  1.5495 -0.9712
 8196TIP3    H248784   0.850   7.122   0.582  0.5097 -2.0135 -1.7533
 8197TIP3   OH248785   5.752   7.124   1.517  0.5303 -0.2630  0.3386
 8197TIP3    H148786   5.731   7.126   1.610 -0.4386  1.7164  0.1319
 8197TIP3    H248787   5.735   7.034   1.491  0.7169 -0.8302  2.0395
 8198TIP3   OH248788   4.437   1.092   0.527  0.2036  0.0932 -0.2449
 8198TIP3    H148789   4.408   1.067   0.438  0.6891  0.1809 -0.4287
 8198TIP3    H248790   4.431   1.011   0.577  1.4382 -0.3386 -0.7547
 8199TIP3   OH248791   1.904   6.940   2.874  0.0447 -0.1595  0.2123
 8199TIP3    H148792   1.965   6.897   2.813 -1.0431  0.3380 -1.2607
 8199TIP3    H248793   1.837   6.874   2.891 -0.9810  0.5103 -1.1053
 8200TIP3   OH248794   6.032   5.736   1.366  0.4378  0.1597 -0.0170
 8200TIP3    H148795   6.016   5.830   1.372  0.5903  0.3233 -1.6071
 8200TIP3    H248796   6.123   5.724   1.392 -0.4212 -0.0173  3.3465
 8201TIP3   OH248797   6.492   7.254   1.231  0.4846 -0.1124 -0.1176
 8201TIP3    H148798   6.510   7.223   1.143 -0.6763 -2.4170  0.3871
 8201TIP3    H248799   6.411   7.305   1.223  0.3389 -0.3853 -0.3758
 8202TIP3   OH248800   5.591   4.349   1.187 -0.2683  0.2851  0.1411
 8202TIP3    H148801   5.599   4.350   1.283  1.2368  1.5769  0.0376
 8202TIP3    H248802   5.517   4.290   1.170  0.1622 -0.9035  2.0355
 8203TIP3   OH248803   1.035   1.710   2.682 -0.5810  0.4540 -0.2106
 8203TIP3    H148804   0.965   1.722   2.747 -0.2304 -0.1318  0.2866
 8203TIP3    H248805   0.989   1.690   2.601 -1.0518  1.6872 -0.2735
 8204TIP3   OH248806   7.589   7.408   2.098  0.1402  0.0763  0.0330
 8204TIP3    H148807   7.511   7.441   2.053 -0.6431  0.5583  1.6483
 8204TIP3    H248808   7.584   7.313   2.086  0.1001  0.2099 -1.0943
 8205TIP3   OH248809   3.223   1.665   1.877  0.2152  0.3566  0.0680
 8205TIP3    H148810   3.139   1.640   1.914  0.1402 -0.6408 -0.7304
 8205TIP3    H248811   3.253   1.737   1.933 -0.8997  0.3644  0.6957
 8206TIP3   OH248812   0.940   6.790   3.242  0.1512 -0.2651 -0.1604
 8206TIP3    H148813   0.856   6.766   3.202  0.0466  1.4013 -1.0180
 8206TIP3    H248814   0.986   6.707   3.253 -0.1434 -0.9183 -3.0527
 8207TIP3   OH248815   3.121   6.224   0.627  0.2407  0.5634  0.1670
 8207TIP3    H148816   3.027   6.206   0.633  0.2253  0.8468  0.9000
 8207TIP3    H248817   3.131   6.273   0.545 -0.0244 -0.7920 -0.6985
 8208TIP3   OH248818   3.836   0.329   2.687 -0.0211 -0.1071  0.3307
 8208TIP3    H148819   3.844   0.234   2.676  0.5955  0.0915 -1.1964
 8208TIP3    H248820   3.863   0.365   2.603  0.9101  1.4848  1.2549
 8209TIP3   OH248821   2.701   1.664   2.400 -0.1733 -0.3057 -0.0095
 8209TIP3    H148822   2.706   1.602   2.472  0.1627  0.2857  0.4853
 8209TIP3    H248823   2.673   1.746   2.440  0.5286  0.1692 -0.4539
 8210TIP3   OH248824   4.688   4.308   3.265 -0.6456  0.3212 -0.1640
 8210TIP3    H148825   4.711   4.400   3.252  1.7902 -0.0902  0.6300
 8210TIP3    H248826   4.617   4.309   3.330  0.0218  1.6359  0.5800
 8211TIP3   OH248827   4.847   4.397   2.162  0.6103 -0.0946 -0.0871
 8211TIP3    H148828   4.939   4.394   2.187  0.5604  1.1181  0.3359
 8211TIP3    H248829   4.833   4.318   2.110  1.6180 -0.8302  0.7251
 8212TIP3   OH248830   3.714   4.952   3.016 -0.1097 -0.0194  0.3834
 8212TIP3    H148831   3.710   4.879   3.079 -1.7480 -0.2904  0.0159
 8212TIP3    H248832   3.663   5.022   3.057  0.6654  0.6034  0.3102
 8213TIP3   OH248833   2.060   1.889   3.059  0.6058  0.1645  0.5661
 8213TIP3    H148834   2.067   1.846   2.974  1.4233  0.1933  0.6141
 8213TIP3    H248835   1.976   1.936   3.055 -0.2622 -1.3379  0.4858
 8214TIP3   OH248836   5.276   0.066   1.480  0.0852  0.2730 -0.7074
 8214TIP3    H148837   5.248   0.026   1.562  1.4453  0.7909  0.0530
 8214TIP3    H248838   5.225   0.147   1.473  1.1257  1.0777  0.5196
 8215TIP3   OH248839   4.504   2.378   1.702 -0.4772 -0.1285 -0.2237
 8215TIP3    H148840   4.409   2.386   1.706 -0.4606  0.2095 -0.4150
 8215TIP3    H248841   4.521   2.284   1.708 -0.7231 -0.0774  1.7194
 8216TIP3   OH248842   3.914   1.938   2.540 -0.2307  0.5094  0.0273
 8216TIP3    H148843   3.888   2.030   2.542  0.2069  0.6550 -0.5181
 8216TIP3    H248844   3.840   1.893   2.499 -0.0818  0.7614 -0.5401
 8217TIP3   OH248845   6.038   1.992   1.475  0.4769 -0.2801  0.3527
 8217TIP3    H148846   6.084   1.946   1.404  0.7434  0.5112  0.0054
 8217TIP3    H248847   6.081   1.961   1.555  0.4849 -0.8299  0.1414
 8218TIP3   OH248848   6.295   4.816   2.115  0.1118  0.2187  0.1992
 8218TIP3    H148849   6.266   4.863   2.037  1.5132  0.2820 -0.3206
 8218TIP3    H248850   6.352   4.878   2.161  2.0787 -0.9305 -0.5615
 8219TIP3   OH248851   0.953   3.121   1.783 -0.2175 -0.7203 -0.1843
 8219TIP3    H148852   0.930   3.179   1.855 -0.1819 -0.9764  0.0347
 8219TIP3    H248853   1.028   3.071   1.815  0.3804 -0.1974 -0.7314
 8220TIP3   OH248854   4.033   5.051   2.104 -0.3934 -0.4362  0.2896
 8220TIP3    H148855   3.950   5.081   2.067  0.0255  0.4349  0.0235
 8220TIP3    H248856   4.076   5.004   2.033 -0.9699 -1.5572  0.6519
 8221TIP3   OH248857   3.538   3.502   1.543 -0.0773  0.5746 -0.6874
 8221TIP3    H148858   3.540   3.575   1.605  1.2144  0.8126 -0.9921
 8221TIP3    H248859   3.572   3.538   1.462  2.0975 -0.7072 -0.4250
 8222TIP3   OH248860   5.201   1.472   2.320  0.2671 -0.2240  0.2011
 8222TIP3    H148861   5.254   1.534   2.370  0.0021  1.2443 -1.2407
 8222TIP3    H248862   5.110   1.497   2.338  0.1366 -0.6371  0.1380
 8223TIP3   OH248863   6.461   1.293   0.802 -0.1538  0.1016  0.4067
 8223TIP3    H148864   6.378   1.263   0.839 -0.3873  0.1612 -0.0545
 8223TIP3    H248865   6.466   1.251   0.716  0.3504  0.0083  0.4777
 8224TIP3   OH248866   1.410   5.892   1.903  0.1993 -0.1240 -0.9260
 8224TIP3    H148867   1.390   5.868   1.812 -1.3054 -0.5595 -0.5165
 8224TIP3    H248868   1.326   5.883   1.949  0.9576 -0.0479  0.5380
 8225TIP3   OH248869   0.845   3.705   1.437 -0.3239  0.0412 -0.2250
 8225TIP3    H148870   0.855   3.795   1.466 -1.1540 -0.0444  0.3709
 8225TIP3    H248871   0.925   3.661   1.467 -0.2100  0.4359  0.0585
 8226TIP3   OH248872   0.360   3.963   2.974  0.0154 -0.2080 -0.0628
 8226TIP3    H148873   0.316   3.970   2.889  1.5336  0.5623 -0.8197
 8226TIP3    H248874   0.356   3.870   2.995  1.5557 -0.7999 -2.0864
 8227TIP3   OH248875   3.636   7.121   1.580  0.7208 -0.6875  0.0153
 8227TIP3    H148876   3.561   7.175   1.555  0.6719 -0.4583  0.6301
 8227TIP3    H248877   3.616   7.092   1.669  1.2790 -0.7724  0.1186
 8228TIP3   OH248878   5.200   4.555   1.438  0.3968  0.0043 -0.1922
 8228TIP3    H148879   5.272   4.602   1.398  0.1208  0.2854 -0.3605
 8228TIP3    H248880   5.177   4.487   1.375 -0.4169  0.8073 -0.7834
 8229TIP3   OH248881   5.403   2.789   0.893  0.1876 -0.4151  0.0670
 8229TIP3    H148882   5.344   2.761   0.822 -0.3510 -0.8360  0.6724
 8229TIP3    H248883   5.349   2.788   0.971  0.6116  0.7034  0.3906
 8230TIP3   OH248884   6.986   1.878   2.660  0.0992 -0.4972  0.0653
 8230TIP3    H148885   6.924   1.808   2.644  0.1561 -0.8705  1.3619
 8230TIP3    H248886   6.999   1.878   2.755  1.2955  0.2340 -0.0684
 8231TIP3   OH248887   0.319   4.138   1.750 -0.2326  0.5255 -0.3491
 8231TIP3    H148888   0.414   4.142   1.755 -0.2168  2.1642 -1.2310
 8231TIP3    H248889   0.289   4.184   1.828 -0.3646 -1.6530  0.9502
 8232TIP3   OH248890   4.286   0.658   1.927 -0.0805 -0.2729  0.0972
 8232TIP3    H148891   4.282   0.589   1.993 -1.1547  0.1307  0.4843
 8232TIP3    H248892   4.344   0.624   1.859 -0.8115 -1.6816  0.1460
 8233TIP3   OH248893   1.646   4.842   2.113  0.3760 -0.1894  0.1688
 8233TIP3    H148894   1.661   4.927   2.155 -1.5348  0.8393 -1.0273
 8233TIP3    H248895   1.552   4.842   2.093  0.5070 -2.2078 -0.6780
 8234TIP3   OH248896   5.736   7.346   1.198  0.0752 -0.1479 -0.3697
 8234TIP3    H148897   5.710   7.369   1.288  0.6569  0.6581 -0.3892
 8234TIP3    H248898   5.812   7.402   1.181 -0.1544 -0.1435 -1.4411
 8235TIP3   OH248899   3.627   4.882   1.639  0.2362  0.2836  0.1008
 8235TIP3    H148900   3.598   4.824   1.709  1.1477 -0.1126  0.1595
 8235TIP3    H248901   3.559   4.875   1.572 -0.3337  0.1948  0.6764
 8236TIP3   OH248902   2.780   6.235   0.934  0.2550 -0.2082  0.0621
 8236TIP3    H148903   2.833   6.166   0.895  0.2644 -0.6003  0.7530
 8236TIP3    H248904   2.815   6.246   1.022  1.2223  1.7235 -0.5083
 8237TIP3   OH248905   3.045   6.686   1.288 -0.3897  0.1783 -0.2938
 8237TIP3    H148906   3.107   6.613   1.287  1.2510  1.4946  0.7021
 8237TIP3    H248907   2.967   6.651   1.245  0.7380 -1.7941 -0.8814
 8238TIP3   OH248908   5.712   4.805   3.084  0.8402 -0.1456 -0.2319
 8238TIP3    H148909   5.638   4.766   3.131  0.0346  1.6750  0.0912
 8238TIP3    H248910   5.712   4.762   2.999 -1.7239  0.9892 -0.9008
 8239TIP3   OH248911   6.711   0.469   2.352  0.2599  0.0384 -0.2252
 8239TIP3    H148912   6.787   0.467   2.410 -0.6301  1.9233  1.1003
 8239TIP3    H248913   6.718   0.389   2.301  1.8937 -0.9613  1.4478
 8240TIP3   OH248914   1.866   0.578   0.762 -0.3441  0.2733 -0.2959
 8240TIP3    H148915   1.834   0.547   0.847 -0.9498 -0.4574 -0.7822
 8240TIP3    H248916   1.863   0.673   0.769  0.6066  0.2440  0.8725
 8241TIP3   OH248917   1.419   5.818   1.063 -0.2734 -0.0161 -0.5415
 8241TIP3    H148918   1.501   5.818   1.113 -1.2756 -0.0363  1.2121
 8241TIP3    H248919   1.382   5.731   1.078 -0.6373  0.0133 -1.2521
 8242TIP3   OH248920   2.898   5.717   0.838  0.6405 -0.1751  0.2552
 8242TIP3    H148921   2.964   5.732   0.771  0.0607  3.2588  0.2597
 8242TIP3    H248922   2.934   5.646   0.892  3.7007  0.6820 -0.4780
 8243TIP3   OH248923   0.825   6.994   1.804 -0.1584  0.2070 -0.1267
 8243TIP3    H148924   0.789   7.030   1.885 -0.7098 -0.5388 -0.0303
 8243TIP3    H248925   0.802   7.059   1.737 -0.1016  0.6065  0.2366
 8244TIP3   OH248926   1.758   5.550   1.283 -0.5308 -0.8113 -0.0596
 8244TIP3    H148927   1.765   5.455   1.275  1.5040 -0.6001 -1.7691
 8244TIP3    H248928   1.679   5.573   1.235 -1.2517 -1.6503  0.6943
 8245TIP3   OH248929   7.304   6.300   2.705 -0.1455 -0.6849  0.1728
 8245TIP3    H148930   7.397   6.290   2.685 -0.3033 -0.6625 -0.5790
 8245TIP3    H248931   7.302   6.362   2.777  0.3727  0.0956 -0.4706
 8246TIP3   OH248932   1.714   7.657   1.529  0.1782  0.0362 -0.1206
 8246TIP3    H148933   1.626   7.686   1.502  1.0287  2.6886 -0.3323
 8246TIP3    H248934   1.761   7.646   1.446  0.5167  0.2976  0.0379
 8247TIP3   OH248935   6.241   3.917   1.200 -0.2359  0.0729 -0.1742
 8247TIP3    H148936   6.170   3.962   1.247 -1.5085 -1.8917 -0.1100
 8247TIP3    H248937   6.209   3.911   1.110 -0.4237 -1.3063 -0.0294
 8248TIP3   OH248938   2.728   0.968   1.595 -0.2359  0.4889 -0.0495
 8248TIP3    H148939   2.750   0.960   1.688  0.7510  0.3989 -0.2791
 8248TIP3    H248940   2.716   0.878   1.566 -1.9847  0.5665  0.2943
 8249TIP3   OH248941   5.661   3.042   1.874 -0.5265  0.9151 -0.0218
 8249TIP3    H148942   5.658   2.949   1.850  1.9958  0.9174 -0.5788
 8249TIP3    H248943   5.632   3.044   1.965  1.2660 -0.7154  0.6441
 8250TIP3   OH248944   4.144   0.711   2.455  0.2741  0.2600 -0.6175
 8250TIP3    H148945   4.100   0.629   2.433 -0.2607  0.5004 -0.4671
 8250TIP3    H248946   4.169   0.700   2.547 -0.6994  0.6426 -0.2866
 8251TIP3   OH248947   0.383   5.620   2.515  0.0767  0.2967  0.3715
 8251TIP3    H148948   0.412   5.661   2.597  0.2400 -0.0701  0.4968
 8251TIP3    H248949   0.463   5.589   2.474 -0.0351  0.2147  0.2166
 8252TIP3   OH248950   4.728   3.072   1.647  0.2979  0.2957 -0.3856
 8252TIP3    H148951   4.790   3.140   1.620  0.2149  0.5118 -0.0320
 8252TIP3    H248952   4.662   3.073   1.578 -1.7311  3.1540  1.3704
 8253TIP3   OH248953   2.497   6.093   2.457  0.4865  0.5017  0.4879
 8253TIP3    H148954   2.405   6.110   2.437  0.2094  0.0995  1.3398
 8253TIP3    H248955   2.504   6.111   2.551  0.5165 -2.5346  1.1518
 8254TIP3   OH248956   0.166   7.599   1.786 -0.0608 -0.2844  0.0894
 8254TIP3    H148957   0.187   7.544   1.861 -2.2094 -0.8926  0.3310
 8254TIP3    H248958   0.106   7.546   1.733  0.7169  0.4593 -1.6328
 8255TIP3   OH248959   2.822   3.982   0.898  0.1023 -0.6055  0.1318
 8255TIP3    H148960   2.748   4.006   0.842 -0.7355 -0.7443  1.1497
 8255TIP3    H248961   2.857   4.066   0.929  0.2444 -0.5474 -0.1827
 8256TIP3   OH248962   0.743   4.524   2.751 -0.2595  0.0337  0.3545
 8256TIP3    H148963   0.762   4.484   2.835 -1.5860 -0.6679  0.3498
 8256TIP3    H248964   0.824   4.567   2.725  1.1100 -2.3065  0.5541
 8257TIP3   OH248965   2.420   6.208   1.715  0.9330 -0.4951  0.5193
 8257TIP3    H148966   2.504   6.180   1.680  1.7184  1.6423  0.5543
 8257TIP3    H248967   2.371   6.239   1.639  0.4344 -1.0585  0.6004
 8258TIP3   OH248968   0.655   5.890   0.492  0.1130  0.2674 -0.5813
 8258TIP3    H148969   0.692   5.900   0.404 -0.1226 -0.0431 -0.7169
 8258TIP3    H248970   0.606   5.971   0.507  2.4708  1.6366  0.4038
 8259TIP3   OH248971   4.733   0.271   2.267 -0.0904  0.5303 -0.4619
 8259TIP3    H148972   4.796   0.266   2.339 -0.6312  1.1446  0.0709
 8259TIP3    H248973   4.679   0.193   2.276  0.4822  0.0902 -0.8158
 8260TIP3   OH248974   1.363   7.653   2.175  0.6115  0.1740  0.3790
 8260TIP3    H148975   1.428   7.721   2.159 -0.9623  1.6391 -0.0829
 8260TIP3    H248976   1.364   7.640   2.270 -0.0099  1.8707  0.6503
 8261TIP3   OH248977   0.486   2.658   2.490 -0.0843 -0.4967  0.3999
 8261TIP3    H148978   0.402   2.612   2.484 -0.2644 -0.1520  0.2251
 8261TIP3    H248979   0.532   2.615   2.562 -0.1529 -1.0982  0.0901
 8262TIP3   OH248980   1.871   0.296   0.972 -0.0429  0.6400  0.0454
 8262TIP3    H148981   1.907   0.250   1.047 -1.1290 -1.0453 -0.4176
 8262TIP3    H248982   1.844   0.381   1.006 -1.2850 -0.3860  1.7763
 8263TIP3   OH248983   6.428   3.153   1.344 -0.0204 -0.7270 -0.0172
 8263TIP3    H148984   6.394   3.080   1.396 -0.3085 -1.1082 -0.7255
 8263TIP3    H248985   6.509   3.178   1.388 -1.0512  0.0296  1.5525
 8264TIP3   OH248986   6.088   4.155   2.573  0.0824  0.8599  0.1076
 8264TIP3    H148987   6.044   4.240   2.581  0.7404  1.2832 -0.6425
 8264TIP3    H248988   6.096   4.141   2.478 -0.9320 -0.5256  0.2017
 8265TIP3   OH248989   2.655   3.712   1.355 -0.2843  0.0866 -0.0337
 8265TIP3    H148990   2.709   3.639   1.386  0.0267  0.3593  0.0669
 8265TIP3    H248991   2.690   3.732   1.268  2.1687  2.6033  1.4075
 8266TIP3   OH248992   5.611   3.296   0.797  0.4820 -0.0595 -0.9879
 8266TIP3    H148993   5.612   3.291   0.701  0.6376 -2.3001 -0.9088
 8266TIP3    H248994   5.692   3.252   0.824 -0.0356 -0.3017  0.2015
 8267TIP3   OH248995   7.343   2.533   1.570  0.1214  0.4157 -0.1249
 8267TIP3    H148996   7.369   2.465   1.632  0.2690  2.0574  1.7230
 8267TIP3    H248997   7.248   2.524   1.563  0.1030  0.1908  0.3471
 8268TIP3   OH248998   7.367   4.134   1.745  0.1707  0.5909 -0.2950
 8268TIP3    H148999   7.421   4.195   1.694 -2.1196  4.8287  1.8070
 8268TIP3    H249000   7.286   4.126   1.694  0.9409 -2.1200 -1.2599
 8269TIP3   OH249001   1.884   4.976   3.809 -0.1226 -0.3090 -0.3587
 8269TIP3    H149002   1.818   4.907   3.813  0.0092 -0.4589 -0.7318
 8269TIP3    H249003   1.952   4.941   3.751  0.9637 -0.7228  1.1308
 8270TIP3   OH249004   4.657   6.109   0.878 -0.1658 -0.8765 -0.3083
 8270TIP3    H149005   4.672   6.030   0.930 -1.1878 -0.9452 -0.0895
 8270TIP3    H249006   4.562   6.113   0.868 -0.1478  0.4245 -0.1601
 8271TIP3   OH249007   0.137   7.168   2.890 -0.3159 -0.0262  0.2944
 8271TIP3    H149008   0.151   7.180   2.984  0.5933 -1.1134  0.3153
 8271TIP3    H249009   0.162   7.077   2.873  0.6938  0.4897 -1.1949
 8272TIP3   OH249010   0.520   1.985   0.799 -0.0819  0.2232  0.6380
 8272TIP3    H149011   0.614   1.998   0.806 -0.0496  0.1925  0.2873
 8272TIP3    H249012   0.511   1.902   0.753 -0.2779  0.6108 -0.0294
 8273TIP3   OH249013   5.430   5.790   1.440 -0.1669 -0.9250 -0.8288
 8273TIP3    H149014   5.469   5.711   1.401  0.7093 -0.2920 -1.2758
 8273TIP3    H249015   5.420   5.850   1.367 -1.9643 -1.0350 -0.7083
 8274TIP3   OH249016   2.142   2.210   1.403  0.1908  0.3681 -0.2425
 8274TIP3    H149017   2.129   2.267   1.478 -1.7618 -0.0736 -0.1851
 8274TIP3    H249018   2.212   2.251   1.352  1.7461  0.5374  1.9038
 8275TIP3   OH249019   1.046   4.490   1.738 -0.3766  0.3177 -0.0405
 8275TIP3    H149020   1.015   4.580   1.726 -0.7979  0.1436 -0.2667
 8275TIP3    H249021   0.971   4.435   1.717 -0.4461 -0.0699  1.1602
 8276TIP3   OH249022   5.268   1.950   1.554 -0.6728 -0.9267  0.5614
 8276TIP3    H149023   5.348   1.971   1.603 -1.6807  1.5132  1.2862
 8276TIP3    H249024   5.301   1.915   1.470  1.1654 -0.0357  0.8496
 8277TIP3   OH249025   3.340   2.713   1.175  0.0910 -0.0867  0.3676
 8277TIP3    H149026   3.345   2.620   1.200  0.8538 -0.1681 -0.0868
 8277TIP3    H249027   3.430   2.744   1.180 -0.0771  0.4760 -0.1058
 8278TIP3   OH249028   4.517   4.619   1.652 -0.0551 -0.3309  0.7858
 8278TIP3    H149029   4.576   4.657   1.587 -2.4833  1.2330 -0.6480
 8278TIP3    H249030   4.560   4.537   1.679  2.3741  0.3718 -0.6623
 8279TIP3   OH249031   3.725   2.560   2.106  0.0463 -0.2976  0.5125
 8279TIP3    H149032   3.656   2.528   2.048 -2.7366  1.8861  2.2915
 8279TIP3    H249033   3.749   2.646   2.070  0.6963 -0.3725  0.7605
 8280TIP3   OH249034   4.012   5.961   2.466 -0.0147  0.0056  0.1005
 8280TIP3    H149035   3.935   6.000   2.425  0.4875 -0.1512 -1.0252
 8280TIP3    H249036   3.991   5.868   2.473 -0.7311  0.2580  1.6863
 8281TIP3   OH249037   2.629   3.035   0.474  0.0500 -0.0930 -0.2164
 8281TIP3    H149038   2.600   2.946   0.457 -0.2518 -0.8107  3.3599
 8281TIP3    H249039   2.548   3.086   0.482  0.1493  0.0664 -0.2087
 8282TIP3   OH249040   2.643   3.936   0.657 -0.6722  0.1835 -0.7466
 8282TIP3    H149041   2.612   3.887   0.581 -1.8768 -1.2129  0.5747
 8282TIP3    H249042   2.572   3.930   0.720  0.6845  0.4369  0.8715
 8283TIP3   OH249043   0.678   1.119   1.541  0.1418  0.3060  0.4333
 8283TIP3    H149044   0.675   1.026   1.562  1.5047  0.5680  1.9934
 8283TIP3    H249045   0.708   1.122   1.450  0.3889 -0.7759  0.4677
 8284TIP3   OH249046   6.479   5.567   1.129  0.4144  0.0941  0.5702
 8284TIP3    H149047   6.471   5.635   1.062 -1.6055 -1.1819 -0.5623
 8284TIP3    H249048   6.392   5.529   1.137  1.1502 -1.4496  2.1873
 8285TIP3   OH249049   1.434   6.610   1.503  0.3519  0.4875  0.3504
 8285TIP3    H149050   1.343   6.641   1.507 -0.2558 -0.5589 -2.6372
 8285TIP3    H249051   1.486   6.690   1.500 -0.7184  1.1806 -0.8207
 8286TIP3   OH249052   4.820   5.025   2.066 -0.3588  0.4377 -0.4823
 8286TIP3    H149053   4.846   4.977   1.988  1.3459  2.4603 -1.2630
 8286TIP3    H249054   4.823   4.961   2.136  2.0465 -0.5899 -1.4134
 8287TIP3   OH249055   3.653   5.489   2.730  0.5794 -0.3247 -0.5462
 8287TIP3    H149056   3.589   5.556   2.706 -0.6073 -1.0129  0.5957
 8287TIP3    H249057   3.627   5.460   2.817  1.8053 -1.4047 -0.5047
 8288TIP3   OH249058   2.620   1.160   2.750 -0.2187 -0.0743 -0.2443
 8288TIP3    H149059   2.537   1.137   2.710 -0.5741 -0.9960  0.9466
 8288TIP3    H249060   2.668   1.077   2.755 -0.0557  0.0694  0.8905
 8289TIP3   OH249061   0.156   4.334   2.270 -0.5130 -0.2175 -0.5839
 8289TIP3    H149062   0.219   4.307   2.338 -1.7482 -0.0002  0.6889
 8289TIP3    H249063   0.154   4.429   2.277  0.7283 -0.0223 -2.2387
 8290TIP3   OH249064   2.854   2.280   2.418  0.3493 -0.4744 -0.4619
 8290TIP3    H149065   2.872   2.254   2.327  0.1215 -1.1589 -0.3130
 8290TIP3    H249066   2.924   2.241   2.469  1.2843  1.0807 -0.4948
 8291TIP3   OH249067   4.371   2.372   1.420 -0.4159 -0.1343  0.4770
 8291TIP3    H149068   4.386   2.382   1.326 -0.1084  1.0338  0.6394
 8291TIP3    H249069   4.436   2.428   1.461 -1.0782  0.0008  1.3740
 8292TIP3   OH249070   4.635   5.087   2.771  0.6511 -1.1875 -0.1310
 8292TIP3    H149071   4.712   5.059   2.821  0.5488  0.5945  1.1062
 8292TIP3    H249072   4.634   5.029   2.695  1.8274 -2.8326  1.0338
 8293TIP3   OH249073   6.527   1.196   2.319 -0.9338  0.4936 -0.2313
 8293TIP3    H149074   6.486   1.124   2.366 -1.0457  0.4372 -0.4130
 8293TIP3    H249075   6.569   1.249   2.387  1.0382 -0.9107 -0.2707
 8294TIP3   OH249076   6.105   1.529   1.189  0.2470  0.0601 -0.1919
 8294TIP3    H149077   6.060   1.567   1.264  0.9843  1.2100 -0.2922
 8294TIP3    H249078   6.058   1.564   1.113 -0.2805 -0.8195 -0.2789
 8295TIP3   OH249079   7.642   1.868   2.180  0.2644 -0.7761 -0.2709
 8295TIP3    H149080   7.734   1.892   2.192  0.2125 -0.7516  0.0710
 8295TIP3    H249081   7.644   1.793   2.120  0.6254 -1.9472  1.1616
 8296TIP3   OH249082   5.349   7.105   0.753  0.0497  0.2800  0.1310
 8296TIP3    H149083   5.275   7.051   0.725  1.1240 -1.0414 -0.2821
 8296TIP3    H249084   5.396   7.124   0.672  0.7803  0.1318  0.5154
 8297TIP3   OH249085   5.539   7.069   1.716  0.4103 -0.5362 -0.1468
 8297TIP3    H149086   5.536   6.999   1.780 -1.2168 -0.0522  0.3447
 8297TIP3    H249087   5.525   7.026   1.631  0.5453 -0.9240  0.0268
 8298TIP3   OH249088   0.271   7.473   3.125 -0.4842  0.7653 -0.4346
 8298TIP3    H149089   0.237   7.384   3.138  1.3720 -0.2046 -1.7764
 8298TIP3    H249090   0.327   7.488   3.201 -1.0067  0.9166 -0.0713
 8299TIP3   OH249091   6.891   3.342   1.869 -0.4143 -0.3968  0.0978
 8299TIP3    H149092   6.903   3.350   1.774  0.6495 -0.4885  0.2105
 8299TIP3    H249093   6.811   3.292   1.879  0.5802 -2.2749 -0.8040
 8300TIP3   OH249094   5.073   1.660   0.927 -0.3002  0.0059  0.7091
 8300TIP3    H149095   5.081   1.630   1.017  2.1384 -0.3404  0.4509
 8300TIP3    H249096   5.120   1.744   0.925 -0.3507  0.0256 -0.2178
 8301TIP3   OH249097   3.257   1.762   2.634 -0.2311  0.5185 -0.5181
 8301TIP3    H149098   3.278   1.737   2.724  1.1246  0.4387 -0.8313
 8301TIP3    H249099   3.223   1.682   2.594  0.0582  0.2954 -0.3280
 8302TIP3   OH249100   6.224   3.652   0.967  0.0456  0.6048 -0.3478
 8302TIP3    H149101   6.210   3.639   1.061 -1.0976  1.2558 -0.4159
 8302TIP3    H249102   6.319   3.647   0.957  0.0854 -2.6411  0.3440
 8303TIP3   OH249103   5.010   7.075   1.000  0.1906  0.1653  0.1058
 8303TIP3    H149104   5.003   7.162   0.962 -0.6979 -0.3738 -1.0162
 8303TIP3    H249105   4.997   7.089   1.094 -1.9186  1.0288 -0.2566
 8304TIP3   OH249106   2.547   1.833   1.546  0.2252 -0.2058 -0.2020
 8304TIP3    H149107   2.624   1.882   1.573 -0.4981  1.9747 -1.8348
 8304TIP3    H249108   2.476   1.868   1.600  0.1361 -1.3628  0.4639
 8305TIP3   OH249109   6.077   3.521   1.718  0.1057  0.8737 -0.2524
 8305TIP3    H149110   6.026   3.602   1.727  0.0567  0.9292 -0.9859
 8305TIP3    H249111   6.161   3.550   1.683  0.6469  0.7797  0.9343
 8306TIP3   OH249112   3.688   4.296   1.718 -0.2144 -0.3813 -0.0081
 8306TIP3    H149113   3.718   4.261   1.802  0.1848  1.5394  0.6910
 8306TIP3    H249114   3.749   4.259   1.654 -0.2598 -1.5256  0.5702
 8307TIP3   OH249115   0.604   3.035   2.289 -0.3042 -0.3623  0.5295
 8307TIP3    H149116   0.596   3.081   2.372  1.0763 -1.9004  1.5995
 8307TIP3    H249117   0.642   2.950   2.313  0.9623 -0.5189 -1.7594
 8308TIP3   OH249118   1.335   1.768   2.142 -0.3871  0.2327  0.0458
 8308TIP3    H149119   1.298   1.832   2.203 -1.1228 -1.1215  1.0614
 8308TIP3    H249120   1.281   1.777   2.063 -0.8411  0.4911  0.3767
 8309TIP3   OH249121   4.610   3.096   0.836  0.9618  0.5121  0.0074
 8309TIP3    H149122   4.554   3.165   0.802 -0.2382 -0.7738 -0.7264
 8309TIP3    H249123   4.556   3.017   0.834  1.5008 -0.0676  2.9477
 8310TIP3   OH249124   7.280   2.993   2.686 -0.4314 -0.0300  0.3081
 8310TIP3    H149125   7.331   3.072   2.705  3.1431 -1.5715 -1.7567
 8310TIP3    H249126   7.194   3.026   2.661  0.4976  3.1139  0.7057
 8311TIP3   OH249127   2.552   0.658   2.154  0.8475  0.2500 -0.4684
 8311TIP3    H149128   2.557   0.716   2.230  0.3252 -1.0441  0.5801
 8311TIP3    H249129   2.474   0.688   2.107 -0.7972 -1.0254  1.3190
 8312TIP3   OH249130   5.628   0.739   0.978  0.0087 -0.2547 -0.5030
 8312TIP3    H149131   5.718   0.705   0.983  0.1204 -0.2353 -1.9250
 8312TIP3    H249132   5.594   0.731   1.067  1.6303  0.3238  0.2126
 8313TIP3   OH249133   4.102   0.117   1.241 -1.0970  0.4132 -0.3382
 8313TIP3    H149134   4.114   0.025   1.267 -1.0365  0.2996 -0.7624
 8313TIP3    H249135   4.092   0.114   1.146 -1.7990  0.7773 -0.2843
 8314TIP3   OH249136   1.675   2.796   2.567 -0.7710  0.3744 -0.1514
 8314TIP3    H149137   1.708   2.723   2.620  1.7876  1.1825 -0.4783
 8314TIP3    H249138   1.658   2.757   2.482  0.1669  0.0202 -0.1970
 8315TIP3   OH249139   2.210   5.790   1.101  0.4744  0.0029 -0.4126
 8315TIP3    H149140   2.203   5.874   1.146 -0.6520  0.1911 -0.9024
 8315TIP3    H249141   2.158   5.730   1.154  0.4721 -0.1549 -0.5924
 8316TIP3   OH249142   1.609   4.272   2.351  0.1104 -0.1850 -0.1549
 8316TIP3    H149143   1.525   4.308   2.378  0.0129 -0.1312 -0.5259
 8316TIP3    H249144   1.630   4.207   2.418  0.2022  0.4326  0.4192
 8317TIP3   OH249145   3.407   0.044   2.430  0.1740  0.3031  0.0497
 8317TIP3    H149146   3.456  -0.038   2.441 -0.8038 -0.2756  0.2135
 8317TIP3    H249147   3.359   0.054   2.512  1.3308  1.7860  0.5941
 8318TIP3   OH249148   5.924   0.245   2.163 -0.2364  0.8115 -0.1760
 8318TIP3    H149149   5.946   0.199   2.244  1.4021 -1.5077 -1.8216
 8318TIP3    H249150   6.007   0.285   2.136 -0.3929  0.2804 -1.4687
 8319TIP3   OH249151   0.771   3.031   1.263 -0.0547  0.5212 -0.3655
 8319TIP3    H149152   0.819   2.950   1.281  0.8693  0.8399 -1.3149
 8319TIP3    H249153   0.723   3.049   1.344  1.8000  0.4454  0.7991
 8320TIP3   OH249154   3.466   6.784   1.087  0.1496  0.0428 -0.1022
 8320TIP3    H149155   3.481   6.776   1.181  0.3788  1.0425 -0.0373
 8320TIP3    H249156   3.381   6.742   1.072  0.1590 -0.2092  0.5358
 8321TIP3   OH249157   7.414   0.236   0.826 -0.3375  0.6110 -0.2847
 8321TIP3    H149158   7.404   0.286   0.746 -2.5896 -0.6676 -0.8775
 8321TIP3    H249159   7.448   0.299   0.890  0.8745  1.8099 -2.0150
 8322TIP3   OH249160   0.645   3.082   1.501 -0.1712  0.0706  0.3623
 8322TIP3    H149161   0.699   3.134   1.560  1.6029  0.0564 -1.1477
 8322TIP3    H249162   0.561   3.073   1.547  0.7110  1.0531  2.3101
 8323TIP3   OH249163   7.343   1.503   0.634 -0.3895  0.6583  0.5926
 8323TIP3    H149164   7.398   1.581   0.637  0.5242  0.1113 -0.6987
 8323TIP3    H249165   7.403   1.430   0.649  0.0438 -0.2272 -4.0047
 8324TIP3   OH249166   4.180   4.151   0.771 -0.0313  0.0024  0.2540
 8324TIP3    H149167   4.237   4.113   0.703  0.0876 -0.7912  0.7782
 8324TIP3    H249168   4.092   4.140   0.737 -0.0555 -1.4761  0.7137
 8325TIP3   OH249169   6.676   1.650   1.264 -0.0192 -0.5207 -0.1060
 8325TIP3    H149170   6.621   1.702   1.323  1.4117 -0.0990  0.9056
 8325TIP3    H249171   6.631   1.655   1.179 -2.1663 -1.2001  0.9183
 8326TIP3   OH249172   4.310   4.087   0.536 -0.0526  0.2113 -0.2160
 8326TIP3    H149173   4.302   4.168   0.486  1.0371 -0.7395 -2.0249
 8326TIP3    H249174   4.382   4.104   0.596 -0.9012  1.1144  0.5950
 8327TIP3   OH249175   1.555   4.571   2.362  0.6013  0.1207  0.2256
 8327TIP3    H149176   1.579   4.554   2.271 -0.8593  1.4444 -0.4696
 8327TIP3    H249177   1.462   4.594   2.358  1.2631  3.5692  1.5519
 8328TIP3   OH249178   6.732   1.136   1.313  0.2341 -0.3600  0.5450
 8328TIP3    H149179   6.793   1.070   1.280 -1.3264 -1.1790 -0.8122
 8328TIP3    H249180   6.770   1.220   1.285  1.4313 -0.7333  0.9517
 8329TIP3   OH249181   0.061   4.717   2.510 -0.6944 -0.5107 -0.0614
 8329TIP3    H149182   0.133   4.772   2.539 -0.2235 -2.2224  2.4135
 8329TIP3    H249183  -0.013   4.744   2.565 -1.3797 -0.1387 -1.1485
 8330TIP3   OH249184   4.323   0.240   2.444  0.1272  0.3114  0.3202
 8330TIP3    H149185   4.326   0.156   2.490  0.9172  0.0501 -0.1935
 8330TIP3    H249186   4.311   0.217   2.352  0.1156  0.7695  0.2053
 8331TIP3   OH249187   0.340   3.637   1.859  0.7438 -0.7516  0.6438
 8331TIP3    H149188   0.417   3.691   1.839 -0.2815  0.8282  0.7707
 8331TIP3    H249189   0.302   3.617   1.774  0.3592 -0.0765  0.6487
 8332TIP3   OH249190   2.856   3.848   1.590 -0.0013 -0.1199  0.2635
 8332TIP3    H149191   2.894   3.843   1.502  0.0213  0.2689  0.2481
 8332TIP3    H249192   2.815   3.763   1.604 -1.3044  0.3228 -0.7168
 8333TIP3   OH249193   3.395   4.617   2.193  0.2883 -0.3754  0.4084
 8333TIP3    H149194   3.461   4.685   2.181  0.5107 -0.8839 -1.8027
 8333TIP3    H249195   3.414   4.553   2.124 -0.2636 -2.4050  2.0379
 8334TIP3   OH249196   2.294   5.867   2.220  0.1927 -0.6170  0.0316
 8334TIP3    H149197   2.211   5.844   2.179  0.5790 -1.2173 -0.4517
 8334TIP3    H249198   2.275   5.942   2.276 -0.4234  0.0267 -1.0155
 8335TIP3   OH249199   6.998   7.415   0.544 -0.6508 -0.3692  0.3170
 8335TIP3    H149200   7.090   7.390   0.555 -0.4518  0.8061  1.6730
 8335TIP3    H249201   6.952   7.332   0.530  0.2855 -1.3109  2.3299
 8336TIP3   OH249202   2.143   2.812   9.485 -0.0756 -0.6436 -0.6108
 8336TIP3    H149203   2.171   2.726   9.453 -1.4826 -1.5167  0.4072
 8336TIP3    H249204   2.067   2.794   9.540 -0.1508  1.2210 -0.0291
 8337TIP3   OH249205   4.543   0.581   0.698 -0.3199 -0.3407  0.0728
 8337TIP3    H149206   4.605   0.600   0.769 -0.5180  0.3558  0.0678
 8337TIP3    H249207   4.479   0.522   0.738  0.0154 -0.5865  0.2481
 8338TIP3   OH249208   5.771   0.010   0.921  0.0132  0.2054 -0.1964
 8338TIP3    H149209   5.680   0.015   0.891 -0.4813 -2.0079  0.7532
 8338TIP3    H249210   5.780   0.085   0.981 -1.5497 -0.1949  0.5829
 8339TIP3   OH249211   7.383   1.207   1.489 -0.0037  0.6115 -0.1819
 8339TIP3    H149212   7.465   1.246   1.457  1.4289 -1.5267  0.6580
 8339TIP3    H249213   7.334   1.186   1.409  0.8417  0.7524 -0.7459
 8340TIP3   OH249214   4.339   0.007   2.632  0.7509 -0.0103  0.2630
 8340TIP3    H149215   4.257  -0.021   2.671  0.5616 -0.5767 -0.5322
 8340TIP3    H249216   4.399   0.017   2.706 -0.3506  1.6147  0.9930
 8341TIP3   OH249217   1.256   3.059   1.270  0.5976 -0.8902  0.2556
 8341TIP3    H149218   1.316   3.099   1.333 -1.1576 -1.5926  2.5108
 8341TIP3    H249219   1.307   3.054   1.189  2.4411  1.5405  1.1139
 8342TIP3   OH249220   4.572   7.624   2.017 -0.1218  0.3508  0.2769
 8342TIP3    H149221   4.651   7.640   1.964 -0.5850  0.3828 -0.4135
 8342TIP3    H249222   4.558   7.706   2.065  0.3946  0.2648  0.5833
 8343TIP3   OH249223   1.408   2.042   1.987 -0.0624  0.3483 -0.5822
 8343TIP3    H149224   1.434   2.097   1.913 -1.9428  0.1770 -1.4303
 8343TIP3    H249225   1.410   1.953   1.953  1.4333  0.0012  0.3281
 8344TIP3   OH249226   7.405   3.813   2.579 -0.0259  0.2346 -0.2826
 8344TIP3    H149227   7.389   3.725   2.614  0.4358  1.1480  2.5061
 8344TIP3    H249228   7.497   3.813   2.554 -0.6050 -0.7395 -2.6332
 8345TIP3   OH249229   3.911   2.076   2.104  0.1769  0.5271 -0.0971
 8345TIP3    H149230   3.955   2.017   2.165 -0.2518 -1.5828 -1.7239
 8345TIP3    H249231   3.981   2.111   2.049  0.1270 -1.6234 -1.6732
 8346TIP3   OH249232   1.379   1.967   1.089  0.2426  0.1415 -0.0303
 8346TIP3    H149233   1.406   1.883   1.126 -0.0937 -0.5757 -1.3366
 8346TIP3    H249234   1.346   1.945   1.001  0.8641  1.7413 -0.7003
 8347TIP3   OH249235   0.729   1.370   0.986 -0.2543  0.1630  0.1714
 8347TIP3    H149236   0.734   1.299   0.922  0.2093  1.0385 -0.7980
 8347TIP3    H249237   0.638   1.371   1.015 -0.8188  0.5960 -1.4957
 8348TIP3   OH249238   1.395   2.294   9.334  0.0100  0.1755  0.1302
 8348TIP3    H149239   1.436   2.219   9.378  0.7429  0.5217  0.0592
 8348TIP3    H249240   1.381   2.264   9.244 -1.5337 -0.5498  0.5775
 8349TIP3   OH249241   0.964   2.177   1.934 -0.1822  0.2370 -0.7248
 8349TIP3    H149242   0.987   2.269   1.951 -0.8317  0.2080  0.4042
 8349TIP3    H249243   1.024   2.126   1.988 -1.1662  0.0776  0.2407
 8350TIP3   OH249244   5.002   1.993   1.268 -0.1326 -0.0259 -0.1078
 8350TIP3    H149245   4.928   2.024   1.216  0.3389  0.0242 -0.7516
 8350TIP3    H249246   5.079   2.020   1.219  0.3059 -0.7368  0.1796
 8351TIP3   OH249247   6.916   4.586   1.307  0.1285  0.0081  0.3519
 8351TIP3    H149248   6.954   4.511   1.353  1.2959  0.9423  0.9523
 8351TIP3    H249249   6.835   4.604   1.354 -1.0845 -1.8934 -0.8348
 8352TIP3   OH249250   7.192   0.215   1.983  0.3497  0.3473 -0.1322
 8352TIP3    H149251   7.097   0.223   1.973  0.2512 -2.3622 -2.8279
 8352TIP3    H249252   7.227   0.243   1.898  1.7759 -0.6812  0.0776
 8353TIP3   OH249253   0.513   1.882   2.080 -0.4874 -0.8026 -0.1532
 8353TIP3    H149254   0.594   1.929   2.058 -0.1052 -1.1202  0.5193
 8353TIP3    H249255   0.454   1.899   2.007  0.0901 -0.3263 -0.5169
 8354TIP3   OH249256   1.349   5.086   1.953  0.0165  0.0869  0.7252
 8354TIP3    H149257   1.371   5.122   2.039  0.1477  0.4914  0.5247
 8354TIP3    H249258   1.359   4.991   1.963 -2.6286 -0.1506  1.9377
 8355TIP3   OH249259   2.081   4.911   2.091 -0.0597 -0.9546  0.5656
 8355TIP3    H149260   2.139   4.909   2.015 -0.8364 -1.5748 -0.0195
 8355TIP3    H249261   2.123   4.853   2.155  0.3559 -0.7996  0.4362
 8356TIP3   OH249262   5.368   0.492   1.225 -0.5023  0.2054 -0.4779
 8356TIP3    H149263   5.427   0.427   1.186  2.2390  1.5780  1.0778
 8356TIP3    H249264   5.307   0.440   1.278  0.3892 -1.2127 -0.7768
 8357TIP3   OH249265   3.112   6.620   2.368  0.1114  0.4324  0.3744
 8357TIP3    H149266   3.065   6.541   2.340 -1.5904  2.1386 -1.9295
 8357TIP3    H249267   3.187   6.587   2.418 -0.6517 -2.6040 -0.3015
 8358TIP3   OH249268   6.875   4.913   1.290  0.3595 -1.1241  0.4776
 8358TIP3    H149269   6.926   4.881   1.215 -0.9550 -1.2524 -0.3900
 8358TIP3    H249270   6.807   4.848   1.302 -1.0294  0.2052  0.0953
 8359TIP3   OH249271   7.367   3.060   1.770  0.0764 -0.0876  0.0804
 8359TIP3    H149272   7.340   3.129   1.710 -1.2239 -1.0304 -0.4708
 8359TIP3    H249273   7.442   3.018   1.728  0.5376  0.6451  0.1697
 8360TIP3   OH249274   1.233   5.368   0.438  0.6644  0.3387  0.7559
 8360TIP3    H149275   1.155   5.322   0.468 -0.5362  0.6988 -1.5927
 8360TIP3    H249276   1.212   5.461   0.448 -0.1907  0.5085 -1.9438
 8361TIP3   OH249277   1.073   6.726   2.939  0.4141  0.0226 -0.3035
 8361TIP3    H149278   1.048   6.645   2.893 -0.0602  0.0252 -0.0500
 8361TIP3    H249279   1.168   6.719   2.947  0.6641  0.5175 -2.2311
 8362TIP3   OH249280   3.755   0.187   2.225 -0.2652 -0.0075 -0.5160
 8362TIP3    H149281   3.798   0.238   2.156 -1.3394  1.5296 -0.1130
 8362TIP3    H249282   3.683   0.143   2.181  1.8964 -3.0338 -1.3064
 8363TIP3   OH249283   1.339   5.892   1.629 -0.1468  0.4679  0.4173
 8363TIP3    H149284   1.327   5.873   1.536  0.1716 -2.4092  0.8773
 8363TIP3    H249285   1.255   5.928   1.658 -0.3879  0.9699 -0.8646
 8364TIP3   OH249286   4.041   1.746   3.017  0.7480 -0.3258 -0.0692
 8364TIP3    H149287   3.966   1.719   3.070 -0.0138 -0.4125 -1.1645
 8364TIP3    H249288   4.100   1.788   3.079 -0.2861 -0.0885  0.7823
 8365TIP3   OH249289   2.497   6.828   3.382  0.2567 -0.0400 -0.5957
 8365TIP3    H149290   2.411   6.786   3.388  0.9729 -1.6441 -1.0515
 8365TIP3    H249291   2.553   6.777   3.440  0.9851  0.7712 -0.5700
 8366TIP3   OH249292   2.931   1.832   3.005 -0.3521 -0.4085  0.3123
 8366TIP3    H149293   2.838   1.818   2.988 -0.6354  0.1384  1.3059
 8366TIP3    H249294   2.933   1.905   3.067  0.7963  0.3129 -0.5475
 8367TIP3   OH249295   2.923   0.313   1.294  0.4003  0.6021  0.0824
 8367TIP3    H149296   2.920   0.402   1.259  2.4097  0.8904  0.4869
 8367TIP3    H249297   2.993   0.270   1.245  0.2239 -0.3926  0.6670
 8368TIP3   OH249298   1.605   0.066   2.037  0.8074 -0.2571 -0.4640
 8368TIP3    H149299   1.679   0.121   2.012  1.5007 -1.5155 -1.3211
 8368TIP3    H249300   1.551   0.061   1.958  0.2967 -0.1112 -0.1286
 8369TIP3   OH249301   4.802   6.656   1.254  0.3630  0.6516  0.4425
 8369TIP3    H149302   4.731   6.703   1.299  0.7235  0.4714  1.2241
 8369TIP3    H249303   4.811   6.574   1.302  1.0022  0.6110  0.2634
 8370TIP3   OH249304   4.287   0.664   2.994  0.0041 -0.1288  0.2185
 8370TIP3    H149305   4.378   0.637   3.003 -0.1867 -0.2998  1.8728
 8370TIP3    H249306   4.275   0.730   3.061 -1.3316 -0.7654  0.6401
 8371TIP3   OH249307   4.609   7.109   2.526 -0.2553 -0.2780 -0.0407
 8371TIP3    H149308   4.666   7.075   2.457  0.3490  0.0090  0.3088
 8371TIP3    H249309   4.554   7.035   2.550  0.4094 -0.7522  0.0624
 8372TIP3   OH249310   7.585   5.823   1.234 -0.2049 -0.7029 -0.0784
 8372TIP3    H149311   7.621   5.843   1.148  0.3891  0.6306  0.4528
 8372TIP3    H249312   7.640   5.752   1.267  0.3195 -0.4220 -0.3306
 8373TIP3   OH249313   4.918   4.087   1.229  0.0426 -0.0905  0.3081
 8373TIP3    H149314   4.978   4.016   1.209  2.3053  1.8303 -0.2785
 8373TIP3    H249315   4.867   4.056   1.303  1.6868 -1.8947  0.7623
 8374TIP3   OH249316   4.819   4.488   1.743  0.5914 -0.7702 -0.1056
 8374TIP3    H149317   4.862   4.438   1.812  1.3702 -0.2496 -0.1980
 8374TIP3    H249318   4.847   4.579   1.758 -0.0690 -0.4977 -0.4793
 8375TIP3   OH249319   6.885   3.779   2.137 -0.3241  0.0152  0.2279
 8375TIP3    H149320   6.970   3.807   2.101 -0.3335  0.0256  0.2140
 8375TIP3    H249321   6.844   3.730   2.066 -1.1801  1.6795 -0.4867
 8376TIP3   OH249322   6.076   7.015   1.010 -0.5109 -0.2033 -0.0086
 8376TIP3    H149323   6.101   7.105   1.033 -0.0934 -0.1900 -0.5058
 8376TIP3    H249324   5.990   7.025   0.967 -0.5494 -0.0591  0.1013
 8377TIP3   OH249325   2.287   3.499   1.173  0.1886  0.0519 -0.4365
 8377TIP3    H149326   2.277   3.560   1.245  0.7226 -1.0416  0.5949
 8377TIP3    H249327   2.376   3.515   1.140  0.2441 -0.0036 -0.3150
 8378TIP3   OH249328   4.716   7.407   1.325  0.5853 -0.4010  0.2256
 8378TIP3    H149329   4.737   7.325   1.282  0.8579  0.6993 -1.8866
 8378TIP3    H249330   4.620   7.409   1.329  0.5814 -0.8218  0.3416
 8379TIP3   OH249331   3.025   6.696   1.565 -0.3692 -0.0245  0.2540
 8379TIP3    H149332   2.941   6.652   1.555 -0.0902 -0.4458 -0.2543
 8379TIP3    H249333   3.071   6.680   1.483 -0.6783  2.1262 -0.4047
 8380TIP3   OH249334   0.294   2.470   1.488  0.2156 -0.0305 -0.3343
 8380TIP3    H149335   0.371   2.516   1.454  0.2190 -0.7992 -1.4276
 8380TIP3    H249336   0.277   2.511   1.572  1.3924  0.6421 -0.3974
 8381TIP3   OH249337   6.368   7.047   2.014 -0.0453 -0.8940  0.2490
 8381TIP3    H149338   6.448   7.045   1.962  0.3648  0.7529  0.7301
 8381TIP3    H249339   6.297   7.043   1.950  0.4185  2.6112 -0.7347
 8382TIP3   OH249340   6.467   3.287   2.171  0.2025  0.3434 -0.4515
 8382TIP3    H149341   6.464   3.380   2.150  1.3801  0.6025  0.4078
 8382TIP3    H249342   6.382   3.268   2.210 -0.3968  0.8301 -1.4760
 8383TIP3   OH249343   3.628   2.433   1.576 -0.1753 -0.0988  0.1231
 8383TIP3    H149344   3.600   2.519   1.608 -0.9621 -0.0964 -0.5405
 8383TIP3    H249345   3.598   2.371   1.643 -1.4369 -0.0508 -0.3619
 8384TIP3   OH249346   5.510   6.899   1.922 -0.0975 -0.2223 -0.0198
 8384TIP3    H149347   5.491   6.978   1.974  0.6813 -0.2172  0.2718
 8384TIP3    H249348   5.524   6.831   1.987 -0.7330 -0.5961 -0.2738
 8385TIP3   OH249349   4.525   5.968   3.240 -0.1667 -0.1315  0.0253
 8385TIP3    H149350   4.509   6.058   3.210  0.1765  0.6178  1.9967
 8385TIP3    H249351   4.586   5.977   3.312 -0.0606 -1.9839  0.2038
 8386TIP3   OH249352   0.701   3.662   0.964 -0.4247 -0.1463 -0.3300
 8386TIP3    H149353   0.732   3.592   1.020  0.5332  0.3618 -0.1934
 8386TIP3    H249354   0.606   3.649   0.958 -0.5324 -0.2685  1.3155
 8387TIP3   OH249355   0.785   5.253   1.235  0.0904  0.3910 -0.4686
 8387TIP3    H149356   0.872   5.228   1.203  0.8434  0.4590  1.3991
 8387TIP3    H249357   0.769   5.340   1.199  1.6101  1.1452  0.5996
 8388TIP3   OH249358   7.658   1.659   1.485 -0.2588 -0.4984 -0.5396
 8388TIP3    H149359   7.711   1.650   1.406 -0.3915  0.2862 -0.7246
 8388TIP3    H249360   7.589   1.593   1.474  0.5791 -1.4239 -0.3626
 8389TIP3   OH249361   4.282   1.153   1.576 -0.4449 -0.1464  0.2704
 8389TIP3    H149362   4.342   1.112   1.638 -0.4873  0.6702  0.8715
 8389TIP3    H249363   4.197   1.152   1.621 -0.8781 -1.2306 -0.5442
 8390TIP3   OH249364   4.761   1.904   0.655  0.3662  0.4320 -0.3862
 8390TIP3    H149365   4.667   1.925   0.656  0.1412 -0.5267 -0.0793
 8390TIP3    H249366   4.781   1.878   0.745 -0.0345 -3.2265 -1.2001
 8391TIP3   OH249367   4.395   5.774   2.448 -0.2968 -0.2893 -0.4280
 8391TIP3    H149368   4.323   5.738   2.397 -0.6583  0.9277 -0.8244
 8391TIP3    H249369   4.474   5.750   2.398 -0.4891 -0.9001 -0.4418
 8392TIP3   OH249370   7.487   6.141   1.954 -0.0637  0.1606 -0.0226
 8392TIP3    H149371   7.569   6.171   1.915  0.1183 -0.8803 -0.4693
 8392TIP3    H249372   7.437   6.106   1.880 -0.2164 -0.7292  0.4863
 8393TIP3   OH249373   2.114   6.975   0.760 -0.4487 -0.2892 -0.1303
 8393TIP3    H149374   2.022   6.988   0.737 -0.4583  0.3305  0.2094
 8393TIP3    H249375   2.111   6.916   0.835 -0.7944  1.9193  1.7214
 8394TIP3   OH249376   6.477   2.288   0.528  0.1340 -0.0466 -0.2663
 8394TIP3    H149377   6.442   2.323   0.609  1.5004  2.9080 -0.8149
 8394TIP3    H249378   6.569   2.315   0.527  0.5917 -1.4323 -2.0492
 8395TIP3   OH249379   3.608   5.727   0.691 -0.0536  0.1296 -0.6849
 8395TIP3    H149380   3.540   5.661   0.681 -1.5215  1.0516  2.0259
 8395TIP3    H249381   3.660   5.697   0.766 -0.6476  1.8614  0.4898
 8396TIP3   OH249382   0.582   6.312   1.792  0.6065  0.0660  0.2603
 8396TIP3    H149383   0.533   6.231   1.807  0.0050  0.5934  1.2991
 8396TIP3    H249384   0.674   6.287   1.804  0.3302 -0.0867  2.7730
 8397TIP3   OH249385   2.504   6.042   0.931 -0.2293 -0.1002  0.7978
 8397TIP3    H149386   2.469   6.130   0.942  1.3417  0.5165  1.1450
 8397TIP3    H249387   2.586   6.042   0.981  0.6350 -1.2268 -0.5292
 8398TIP3   OH249388   0.109   4.630   1.868  0.0646  0.4189  0.8359
 8398TIP3    H149389   0.103   4.541   1.904  0.9615  0.6218  1.5249
 8398TIP3    H249390   0.022   4.666   1.881 -0.8237 -0.9167 -1.0028
 8399TIP3   OH249391   2.215   0.979   2.524  0.4487  0.1822  0.2883
 8399TIP3    H149392   2.303   1.011   2.505  1.0457 -0.7795  1.3492
 8399TIP3    H249393   2.157   1.049   2.494  1.4357  0.0271 -2.2620
 8400TIP3   OH249394   5.731   3.751   0.559 -0.5045  0.5719  0.2819
 8400TIP3    H149395   5.742   3.846   0.563  1.2401  0.3758  3.1295
 8400TIP3    H249396   5.637   3.738   0.548 -0.7425  2.5929 -0.5883
 8401TIP3   OH249397   2.473   6.861   3.085 -0.1278  0.2882  0.5441
 8401TIP3    H149398   2.426   6.786   3.049 -1.1715  0.9886  0.4190
 8401TIP3    H249399   2.494   6.835   3.175  0.1809 -0.4368  0.2699
 8402TIP3   OH249400   6.906   2.964   1.005 -0.3070  0.2721 -0.6631
 8402TIP3    H149401   6.984   2.961   1.060 -1.3517 -0.3452  0.8318
 8402TIP3    H249402   6.891   3.058   0.990 -0.4023  0.5022  0.7311
 8403TIP3   OH249403   4.957   3.111   1.154  0.5303  0.0478 -0.1447
 8403TIP3    H149404   5.037   3.067   1.183  1.3922  1.0883 -0.8542
 8403TIP3    H249405   4.917   3.050   1.091  1.5964  0.1741 -0.9625
 8404TIP3   OH249406   5.511   3.711   1.369 -0.0339  0.0004 -0.0519
 8404TIP3    H149407   5.516   3.672   1.282 -2.1514 -1.1214  0.2552
 8404TIP3    H249408   5.568   3.656   1.423 -0.0930 -0.3945 -0.3901
 8405TIP3   OH249409   2.237   0.704   2.508 -0.0043  0.3501 -1.0940
 8405TIP3    H149410   2.286   0.678   2.586 -0.8381 -1.1178 -1.0271
 8405TIP3    H249411   2.218   0.797   2.522 -1.4688 -0.1858  1.2447
 8406TIP3   OH249412   0.563   7.226   2.767  0.8357  0.5858  0.1191
 8406TIP3    H149413   0.499   7.296   2.779  1.4972  1.3028 -0.3722
 8406TIP3    H249414   0.511   7.146   2.760 -0.0859  1.2523 -1.1838
 8407TIP3   OH249415   3.498   6.346   0.439 -0.2413 -0.1228  0.2314
 8407TIP3    H149416   3.529   6.435   0.454  0.5398 -0.4776  0.8595
 8407TIP3    H249417   3.563   6.291   0.483  0.4243 -1.1091 -1.8289
 8408TIP3   OH249418   0.597   1.044   1.258 -0.4410 -0.9136  0.2024
 8408TIP3    H149419   0.520   1.100   1.270  0.5612  0.8297 -1.1329
 8408TIP3    H249420   0.670   1.104   1.246  0.8063 -2.5119 -0.6491
 8409TIP3   OH249421   4.526   7.344   3.423 -0.9710 -0.1575 -0.0110
 8409TIP3    H149422   4.513   7.433   3.456  1.9830  0.3690  0.0734
 8409TIP3    H249423   4.525   7.290   3.502  0.9564  0.3982  0.4634
 8410TIP3   OH249424   6.051   7.591   1.901  0.2594  0.4024 -0.3507
 8410TIP3    H149425   6.131   7.620   1.857  0.8973  0.7927  1.0129
 8410TIP3    H249426   6.032   7.506   1.862 -0.1374  1.4040 -2.5223
 8411TIP3   OH249427   3.502   3.703   0.569  0.0964 -0.0333  0.1941
 8411TIP3    H149428   3.419   3.750   0.567 -0.9045 -1.6988  0.6001
 8411TIP3    H249429   3.499   3.653   0.651  1.5430 -0.0604  0.2502
 8412TIP3   OH249430   6.271   6.398   0.560  0.2877 -0.1836  0.1618
 8412TIP3    H149431   6.361   6.383   0.589  0.7221 -1.0999 -1.5068
 8412TIP3    H249432   6.242   6.313   0.527 -2.1044 -0.5480  2.8655
 8413TIP3   OH249433   1.868   5.002   0.935 -0.1726 -0.2756  0.7620
 8413TIP3    H149434   1.780   5.040   0.935  0.5274  1.6288 -1.7661
 8413TIP3    H249435   1.855   4.908   0.920 -1.7795  0.0363  0.0737
 8414TIP3   OH249436   4.551   5.054   0.937 -0.1347  0.1397 -0.1408
 8414TIP3    H149437   4.553   5.149   0.947 -0.8996  0.1363  0.0715
 8414TIP3    H249438   4.613   5.021   1.003 -0.9133  0.4188  0.7372
 8415TIP3   OH249439   4.839   7.010   2.094 -0.0730 -0.1712  0.1261
 8415TIP3    H149440   4.875   6.923   2.109  1.1896  0.0115 -1.5169
 8415TIP3    H249441   4.806   7.007   2.004  1.1076  1.3621 -0.4090
 8416TIP3   OH249442   0.104   3.082   1.843 -0.2603  0.2833 -0.4653
 8416TIP3    H149443   0.034   3.127   1.796 -1.9396 -0.3059  1.3744
 8416TIP3    H249444   0.068   2.996   1.863  1.9067 -0.9532 -1.5568
 8417TIP3   OH249445   4.257   5.718   2.192 -0.6603 -0.5195  0.1843
 8417TIP3    H149446   4.305   5.768   2.125 -2.4567 -0.8725 -1.4680
 8417TIP3    H249447   4.265   5.627   2.164 -1.8224 -0.6287  0.1689
 8418TIP3   OH249448   2.577   0.433   2.520 -0.5900 -0.0701  0.3921
 8418TIP3    H149449   2.565   0.410   2.427  1.8561 -1.1172  0.2834
 8418TIP3    H249450   2.646   0.499   2.519  0.1419 -0.8015  1.5408
 8419TIP3   OH249451   2.998   4.313   2.344 -0.0315 -0.4609 -0.0187
 8419TIP3    H149452   2.912   4.291   2.307  0.2877 -0.0161 -1.0775
 8419TIP3    H249453   2.978   4.374   2.415 -0.5420  0.8326 -1.2024
 8420TIP3   OH249454   4.632   4.568   0.406  0.3563 -0.5519  0.0822
 8420TIP3    H149455   4.623   4.636   0.472 -0.7071 -0.2611 -0.3471
 8420TIP3    H249456   4.561   4.584   0.344  1.7641 -0.3704 -1.5523
 8421TIP3   OH249457   6.839   0.534   1.665  0.1431 -0.0780 -0.5609
 8421TIP3    H149458   6.816   0.627   1.670  0.0890 -0.1389  0.5063
 8421TIP3    H249459   6.825   0.511   1.573 -0.3997  0.8217 -0.7191
 8422TIP3   OH249460   0.065   5.167   1.526  0.1134 -0.5441  0.3836
 8422TIP3    H149461   0.068   5.096   1.590  1.1827 -0.7774  0.0924
 8422TIP3    H249462  -0.018   5.212   1.544  0.2419 -0.8043  1.6995
 8423TIP3   OH249463   3.842   6.827   2.506  0.0264  0.6132 -0.3515
 8423TIP3    H149464   3.790   6.842   2.586 -0.4737 -0.9904 -0.3245
 8423TIP3    H249465   3.886   6.743   2.523  2.0450  1.5463 -0.7040
 8424TIP3   OH249466   4.296   6.202   2.715 -0.1844  0.2432 -0.3328
 8424TIP3    H149467   4.328   6.133   2.657 -0.5746 -1.1143  0.9939
 8424TIP3    H249468   4.354   6.197   2.791 -1.4406  0.0108  0.6391
 8425TIP3   OH249469   1.553   4.523   2.071 -0.0811 -0.0133  0.2175
 8425TIP3    H149470   1.461   4.514   2.096 -0.3759  3.6453  0.9617
 8425TIP3    H249471   1.551   4.535   1.976 -0.5156  0.9336  0.3336
 8426TIP3   OH249472   5.188   4.019   2.294  0.2981  0.2378  0.2479
 8426TIP3    H149473   5.248   4.087   2.264 -1.5283  0.9602 -2.0323
 8426TIP3    H249474   5.144   3.989   2.214 -0.7944 -1.8228  1.5413
 8427TIP3   OH249475   1.732   6.284   1.640 -0.2713  0.0570  0.6644
 8427TIP3    H149476   1.654   6.247   1.599  1.1008 -0.2433 -1.9097
 8427TIP3    H249477   1.763   6.350   1.578  1.5111  0.1701  1.6058
 8428TIP3   OH249478   3.152   4.655   3.029  0.2215  0.0564  0.3711
 8428TIP3    H149479   3.233   4.605   3.017  0.0297 -0.4534  1.1092
 8428TIP3    H249480   3.135   4.649   3.123 -0.1549  0.9751  0.3646
 8429TIP3   OH249481   4.589   7.273   1.119 -0.1192  0.0588 -0.1601
 8429TIP3    H149482   4.571   7.179   1.114  1.0522 -0.1250 -1.0957
 8429TIP3    H249483   4.507   7.311   1.152 -0.7914 -1.2150 -0.3109
 8430TIP3   OH249484   2.686   5.982   3.209 -0.0362 -0.0897  0.3285
 8430TIP3    H149485   2.778   5.984   3.233 -0.0946  1.4905  0.5285
 8430TIP3    H249486   2.668   6.069   3.174 -1.2736 -0.6169 -0.4376
 8431TIP3   OH249487   2.177   3.367   0.803 -0.1528  0.2547 -0.3103
 8431TIP3    H149488   2.138   3.349   0.717 -0.5407 -1.2218  0.1533
 8431TIP3    H249489   2.118   3.326   0.865  0.7309  0.3161  0.5897
 8432TIP3   OH249490   2.210   7.285   1.658 -0.2306  0.2657  0.3857
 8432TIP3    H149491   2.247   7.357   1.707  0.1932  2.2609 -2.6013
 8432TIP3    H249492   2.272   7.213   1.670 -0.5482  0.3757  3.2372
 8433TIP3   OH249493   1.163   7.260   3.007  0.3058 -0.4859  0.1737
 8433TIP3    H149494   1.224   7.295   2.942  0.2601  0.4768  0.6189
 8433TIP3    H249495   1.214   7.194   3.055  1.3833  1.0233  1.2263
 8434TIP3   OH249496   0.933   2.576   1.553  0.4376 -0.3206  0.0994
 8434TIP3    H149497   1.021   2.614   1.545  0.3703  0.1292  1.3059
 8434TIP3    H249498   0.905   2.562   1.463  1.6874 -0.3246 -0.3113
 8435TIP3   OH249499   4.900   3.351   2.277  0.5240  0.4401  0.4497
 8435TIP3    H149500   4.833   3.369   2.211  0.5614 -0.5249  0.1242
 8435TIP3    H249501   4.865   3.278   2.328  2.2555 -1.7510 -1.2463
 8436TIP3   OH249502   1.917   5.208   2.757 -0.2307  0.1038 -0.2080
 8436TIP3    H149503   1.842   5.243   2.707 -1.4162 -0.2460  1.2483
 8436TIP3    H249504   1.880   5.136   2.808  1.2831 -0.5548  0.0166
 8437TIP3   OH249505   4.341   5.011   3.319 -0.1432 -0.4274 -0.3748
 8437TIP3    H149506   4.383   4.960   3.249  1.0629  0.5652 -0.3886
 8437TIP3    H249507   4.413   5.040   3.375 -1.0175 -0.4774  0.8095
 8438TIP3   OH249508   0.227   2.564   0.778  0.4681 -0.1166  0.1120
 8438TIP3    H149509   0.321   2.543   0.775  0.2061 -1.2615 -2.2728
 8438TIP3    H249510   0.184   2.479   0.768 -0.8408  0.4202  1.0237
 8439TIP3   OH249511   2.333   2.325   1.194 -0.3864 -0.0350  0.0970
 8439TIP3    H149512   2.360   2.394   1.133  0.1915  0.2847  0.6957
 8439TIP3    H249513   2.359   2.244   1.150 -0.2940  0.1685 -0.2343
 8440TIP3   OH249514   1.142   3.695   1.478  0.2050  0.0475 -0.1390
 8440TIP3    H149515   1.163   3.617   1.528  0.3095 -0.7285 -1.3551
 8440TIP3    H249516   1.199   3.691   1.401 -1.6668 -0.1332 -1.5945
 8441TIP3   OH249517   0.399   6.513   1.786  0.5820  0.2698  0.2266
 8441TIP3    H149518   0.469   6.448   1.779  0.7905  0.5459 -0.3043
 8441TIP3    H249519   0.439   6.595   1.759  0.7414  0.9448  2.3618
 8442TIP3   OH249520   6.601   5.287   0.675 -0.0991  0.1415 -0.8107
 8442TIP3    H149521   6.615   5.237   0.755 -2.5453 -0.9557 -0.9595
 8442TIP3    H249522   6.600   5.220   0.606 -1.6240  0.5695 -1.2469
 8443TIP3   OH249523   4.470   1.590   3.180 -0.3294 -0.0927 -0.0434
 8443TIP3    H149524   4.553   1.626   3.147  0.1877  1.9436  3.0179
 8443TIP3    H249525   4.475   1.496   3.161  3.1540 -0.2118  0.7467
 8444TIP3   OH249526   6.995   3.140   2.753  0.3160 -0.0090 -0.4465
 8444TIP3    H149527   6.992   3.045   2.762  0.0692  0.0462  0.0756
 8444TIP3    H249528   7.034   3.171   2.835 -0.9315  0.4238  0.0141
 8445TIP3   OH249529   0.971   2.289   0.700 -0.1020  1.0261 -0.1417
 8445TIP3    H149530   0.879   2.293   0.677 -0.4748 -1.2200  0.7370
 8445TIP3    H249531   1.017   2.298   0.617 -1.0902  1.7350 -0.6365
 8446TIP3   OH249532   4.764   4.333   2.757  0.3518  0.8999  0.6259
 8446TIP3    H149533   4.712   4.294   2.687  2.5413  0.8317 -1.0492
 8446TIP3    H249534   4.700   4.354   2.825 -1.8088  0.5552 -1.1878
 8447TIP3   OH249535   4.189   7.511   3.282 -0.4192 -0.5287  0.1027
 8447TIP3    H149536   4.182   7.574   3.210 -2.6350 -0.8528 -0.0224
 8447TIP3    H249537   4.257   7.450   3.254 -0.0571  0.3152 -0.9339
 8448TIP3   OH249538   6.837   0.943   0.424  0.1511 -0.2485 -0.1318
 8448TIP3    H149539   6.886   0.863   0.439  0.2994 -0.3787 -1.2863
 8448TIP3    H249540   6.892   1.013   0.460  0.5210 -0.5476 -0.1201
 8449TIP3   OH249541   5.746   6.867   1.449 -0.2178 -0.3061 -0.3071
 8449TIP3    H149542   5.802   6.865   1.371  0.3263  0.2982  0.0593
 8449TIP3    H249543   5.763   6.783   1.492  0.9482  0.1447  0.1588
 8450TIP3   OH249544   2.428   5.260   2.625 -0.8828  0.5771  0.0073
 8450TIP3    H149545   2.414   5.296   2.537 -2.0956  0.2569  0.0492
 8450TIP3    H249546   2.341   5.229   2.652 -0.1049 -1.4066  0.4081
 8451TIP3   OH249547   4.106   6.254   2.125 -0.2942  0.1174  0.0307
 8451TIP3    H149548   4.115   6.170   2.170  1.2498 -0.2939 -0.9403
 8451TIP3    H249549   4.020   6.250   2.084  0.0586 -1.3645 -0.6423
 8452TIP3   OH249550   0.307   0.824   1.630  0.3450  0.0799 -0.4107
 8452TIP3    H149551   0.342   0.796   1.715 -0.0780  0.4740 -0.0998
 8452TIP3    H249552   0.234   0.765   1.613  0.1451  0.2872 -0.2806
 8453TIP3   OH249553   4.239   5.136   2.408 -0.0287 -0.6004  0.3726
 8453TIP3    H149554   4.195   5.219   2.390  0.7067 -0.7152 -2.6139
 8453TIP3    H249555   4.178   5.069   2.377  0.4116 -1.0098  0.3705
 8454TIP3   OH249556   3.782   1.138   0.816 -0.4907 -0.2749 -0.3349
 8454TIP3    H149557   3.717   1.080   0.856 -0.8190 -0.3946 -1.0362
 8454TIP3    H249558   3.866   1.101   0.843 -0.7004 -0.9781 -0.6367
 8455TIP3   OH249559   6.537   4.024   1.428  0.2249 -0.2554  0.2262
 8455TIP3    H149560   6.481   4.082   1.377 -0.4624 -2.9013 -2.2550
 8455TIP3    H249561   6.625   4.044   1.398 -0.1086 -1.2437 -1.5652
 8456TIP3   OH249562   3.849   6.239   2.060 -0.4162  0.0367 -0.1644
 8456TIP3    H149563   3.766   6.251   2.014  0.2071  0.5988 -1.1819
 8456TIP3    H249564   3.875   6.149   2.038 -0.5800 -0.0176 -0.1386
 8457TIP3   OH249565   2.183   6.942   2.754  0.0522  0.2043 -0.0320
 8457TIP3    H149566   2.188   6.846   2.756  0.1350  0.1723 -1.0183
 8457TIP3    H249567   2.201   6.969   2.844 -0.3159 -0.7213  0.3354
 8458TIP3   OH249568   4.584   1.494   2.600  0.5237 -0.6389 -0.0434
 8458TIP3    H149569   4.541   1.464   2.681  0.4254  0.3201  0.2645
 8458TIP3    H249570   4.513   1.499   2.536  0.5038 -0.8365 -0.0395
 8459TIP3   OH249571   7.450   1.187   0.801  0.2284  0.2034  0.0979
 8459TIP3    H149572   7.542   1.213   0.810 -0.3454  2.4731 -0.0477
 8459TIP3    H249573   7.401   1.256   0.847 -1.3793 -1.4846  1.0511
 8460TIP3   OH249574   0.595   0.747   1.607 -0.0387 -0.1114  0.5172
 8460TIP3    H149575   0.522   0.794   1.646  0.9399  1.3962  0.5966
 8460TIP3    H249576   0.665   0.754   1.672  0.0295 -2.1048  0.7431
 8461TIP3   OH249577   6.341   6.457   0.928  0.2272  0.4902 -0.3122
 8461TIP3    H149578   6.406   6.526   0.919 -0.2446  0.8051 -1.6619
 8461TIP3    H249579   6.390   6.381   0.958  1.1851  0.7837 -1.0900
 8462TIP3   OH249580   1.356   6.836   2.480  0.2691  0.3216 -0.3875
 8462TIP3    H149581   1.290   6.860   2.415 -0.6379 -2.0419 -0.4483
 8462TIP3    H249582   1.345   6.900   2.550 -2.0448  0.1149 -0.4848
 8463TIP3   OH249583   5.181   4.015   1.466  0.4260 -0.1266  0.0136
 8463TIP3    H149584   5.115   4.078   1.495 -1.4585 -2.8663  2.2720
 8463TIP3    H249585   5.264   4.050   1.498 -0.2274  2.1829 -0.6727
 8464TIP3   OH249586   6.462   2.309   1.533  0.1253  0.1867  0.0884
 8464TIP3    H149587   6.478   2.279   1.444 -0.4947  0.3511 -0.0875
 8464TIP3    H249588   6.543   2.353   1.559  0.1488  0.5403 -0.5668
 8465TIP3   OH249589   6.038   6.212   0.917 -0.4099  0.6388 -0.5825
 8465TIP3    H149590   6.072   6.297   0.946 -1.3534  0.7284  0.3279
 8465TIP3    H249591   5.958   6.234   0.868  0.4488  0.3948 -2.1539
 8466TIP3   OH249592   4.176   4.362   2.268  0.1138  0.2457  0.4576
 8466TIP3    H149593   4.252   4.420   2.264  0.0411  0.2944 -1.8339
 8466TIP3    H249594   4.199   4.288   2.211 -1.1491 -0.2552  0.5566
 8467TIP3   OH249595   4.268   0.246   1.745 -0.5671 -0.1902 -0.2064
 8467TIP3    H149596   4.228   0.332   1.736  0.7410  0.8185  2.4038
 8467TIP3    H249597   4.333   0.258   1.815  0.1656 -3.1249 -0.2756
 8468TIP3   OH249598   2.642   6.416   1.862 -0.4573  0.7844  0.3575
 8468TIP3    H149599   2.552   6.383   1.860 -0.7782  1.6081  0.7234
 8468TIP3    H249600   2.667   6.424   1.769 -0.3883 -0.3919  0.2561
 8469TIP3   OH249601   3.881   7.593   3.101 -0.5741  0.4988  0.6911
 8469TIP3    H149602   3.861   7.500   3.114 -2.0651  0.7293  0.2518
 8469TIP3    H249603   3.941   7.615   3.173  2.1283 -1.4372 -0.7965
 8470TIP3   OH249604   5.534   2.225   0.376  0.3763 -0.6544  0.1290
 8470TIP3    H149605   5.534   2.132   0.398 -0.0033 -0.4443  1.0547
 8470TIP3    H249606   5.442   2.250   0.380  0.4269 -0.3447 -0.5986
 8471TIP3   OH249607   1.293   4.137   3.091  0.1258  0.0306 -0.1636
 8471TIP3    H149608   1.332   4.192   3.159  0.0021 -0.9136  0.6991
 8471TIP3    H249609   1.248   4.068   3.139  0.3458 -0.8743 -1.2084
 8472TIP3   OH249610   0.974   2.320   0.965 -0.8877 -0.9546  0.2686
 8472TIP3    H149611   1.048   2.379   0.979 -0.7547 -1.1444  0.3817
 8472TIP3    H249612   0.962   2.318   0.870 -0.7497 -0.9190  0.2503
 8473TIP3   OH249613   4.977   1.385   1.596  0.5117  0.5092  0.0653
 8473TIP3    H149614   4.944   1.354   1.512 -0.3273 -1.3948  1.0415
 8473TIP3    H249615   4.899   1.388   1.652  1.3397 -0.0306  1.2763
 8474TIP3   OH249616   3.973   1.699   1.516  0.1193  0.2289  0.2135
 8474TIP3    H149617   3.952   1.608   1.496 -0.0718  0.3046  0.0705
 8474TIP3    H249618   3.889   1.738   1.542  0.2510  0.2904  0.5544
 8475TIP3   OH249619   7.466   5.165   1.779 -0.0142 -0.0924 -0.2881
 8475TIP3    H149620   7.397   5.230   1.786  0.2045  0.1860 -0.6501
 8475TIP3    H249621   7.431   5.099   1.719  0.5672  0.7752 -1.6384
 8476TIP3   OH249622   7.328   3.886   1.352  0.1657 -0.3150  0.2008
 8476TIP3    H149623   7.344   3.891   1.258  0.6851  0.7882  0.3339
 8476TIP3    H249624   7.234   3.898   1.361  0.0459 -0.8821 -0.1969
 8477TIP3   OH249625   2.685   2.493   0.581 -0.2557  0.3704 -0.2575
 8477TIP3    H149626   2.771   2.531   0.566 -1.1671  2.0620 -1.5415
 8477TIP3    H249627   2.624   2.565   0.569 -1.8606 -0.7086  0.9208
 8478TIP3   OH249628   7.265   5.039   2.170 -0.2228  0.1457 -0.6933
 8478TIP3    H149629   7.185   5.083   2.142 -0.7550 -0.2595  0.1415
 8478TIP3    H249630   7.306   5.100   2.231 -1.3643 -0.7723  1.0837
 8479TIP3   OH249631   0.777   1.574   0.569 -0.0584 -0.0529  0.5288
 8479TIP3    H149632   0.787   1.507   0.500  1.7730  0.1718  0.5231
 8479TIP3    H249633   0.731   1.646   0.526 -0.2793 -0.5148 -0.0283
 8480TIP3   OH249634   6.416   5.924   2.967 -0.6476 -0.4554 -0.1651
 8480TIP3    H149635   6.454   6.000   3.009 -0.3704 -1.3657  1.3042
 8480TIP3    H249636   6.485   5.858   2.968 -1.0596 -0.9231 -0.9135
 8481TIP3   OH249637   3.535   3.073   1.200  0.1165 -0.2445  0.6265
 8481TIP3    H149638   3.445   3.071   1.232 -0.7011  1.5037 -1.2839
 8481TIP3    H249639   3.574   3.148   1.245  1.3838 -2.2532  3.0802
 8482TIP3   OH249640   6.889   0.509   1.379  0.1176  0.5492  0.3946
 8482TIP3    H149641   6.853   0.500   1.290  0.4941  1.5219  0.1278
 8482TIP3    H249642   6.983   0.497   1.368  0.0494 -0.5519  0.8713
 8483TIP3   OH249643   5.972   7.671   2.656  0.9103 -0.1895 -0.1732
 8483TIP3    H149644   5.899   7.689   2.598  0.3607 -0.2769  0.4821
 8483TIP3    H249645   5.957   7.582   2.688  1.3397 -0.2377 -0.0900
 8484TIP3   OH249646   6.543   7.522   2.229 -0.0044  0.2931  0.6100
 8484TIP3    H149647   6.563   7.614   2.211  2.1850 -0.1193  0.6718
 8484TIP3    H249648   6.555   7.512   2.323  1.0207 -0.3012  0.4362
 8485TIP3   OH249649   6.913   2.662   2.093  0.4611 -0.0391 -0.1118
 8485TIP3    H149650   6.966   2.659   2.172 -1.0188  0.0020  0.9252
 8485TIP3    H249651   6.936   2.746   2.052  2.5136 -0.8225 -0.7068
 8486TIP3   OH249652   2.706   4.021   2.711 -0.0033 -0.7206  0.4282
 8486TIP3    H149653   2.635   4.043   2.651 -1.1830  0.6021  2.2130
 8486TIP3    H249654   2.663   3.979   2.785  1.0599 -0.0573  1.4641
 8487TIP3   OH249655   5.950   6.283   1.930  0.4880 -0.0387  0.3787
 8487TIP3    H149656   5.948   6.201   1.881  1.2747 -0.9344  1.7900
 8487TIP3    H249657   5.864   6.290   1.971 -0.2452  0.8107 -1.1991
 8488TIP3   OH249658   1.193   2.480   0.967 -0.1346  0.6113  0.5567
 8488TIP3    H149659   1.211   2.554   1.026  0.8183  1.7427 -1.0721
 8488TIP3    H249660   1.203   2.517   0.879 -0.7400 -1.2119 -0.3164
 8489TIP3   OH249661   5.081   5.903   2.024  0.0158  0.0213  0.6610
 8489TIP3    H149662   5.149   5.911   1.957 -0.2429 -0.7343  0.2902
 8489TIP3    H249663   4.999   5.925   1.978 -0.1636 -0.5088  0.7165
 8490TIP3   OH249664   3.737   0.653   1.898 -0.4520 -0.7036 -0.5171
 8490TIP3    H149665   3.692   0.735   1.877 -0.0954 -0.7500 -1.5059
 8490TIP3    H249666   3.812   0.680   1.951 -1.7070 -0.6418  1.3108
 8491TIP3   OH249667   6.454   5.523   2.341  0.0646 -0.2315 -0.3254
 8491TIP3    H149668   6.395   5.508   2.415  0.3110  0.6236  0.0569
 8491TIP3    H249669   6.503   5.602   2.365  0.2648 -0.0427 -1.3298
 8492TIP3   OH249670   2.756   2.559   2.635  0.2456  0.3529 -0.3891
 8492TIP3    H149671   2.820   2.491   2.657 -0.0105  0.6269  1.3243
 8492TIP3    H249672   2.797   2.641   2.662  0.7040  1.0039 -2.7670
 8493TIP3   OH249673   6.691   3.956   2.628 -0.5998 -0.2192  1.1188
 8493TIP3    H149674   6.690   3.952   2.724 -1.0800  1.1885  1.1964
 8493TIP3    H249675   6.599   3.940   2.603 -0.6968  0.5826  0.9604
 8494TIP3   OH249676   3.000   0.563   1.171 -0.1598  0.1494 -0.2418
 8494TIP3    H149677   3.079   0.514   1.148 -0.6141 -0.5326 -0.3654
 8494TIP3    H249678   2.985   0.621   1.096 -0.0760 -0.0953 -0.4489
 8495TIP3   OH249679   1.137   3.334   2.674 -0.6040  0.2371 -0.2150
 8495TIP3    H149680   1.183   3.302   2.597  1.0608  0.9609  0.4364
 8495TIP3    H249681   1.197   3.396   2.715 -1.1445 -0.6006  2.0345
 8496TIP3   OH249682   5.461   3.197   1.759  0.0884 -0.0261  0.5486
 8496TIP3    H149683   5.536   3.161   1.806 -0.6838  0.8182  2.5799
 8496TIP3    H249684   5.492   3.281   1.725  0.5816 -0.5224 -0.2486
 8497TIP3   OH249685   7.181   1.549   0.411  0.1290  0.6248 -0.0792
 8497TIP3    H149686   7.220   1.560   0.498 -0.6471  0.9726  0.2369
 8497TIP3    H249687   7.249   1.508   0.359  0.5594  0.2891  0.7331
 8498TIP3   OH249688   6.677   1.517   2.215  0.0737  0.1493  0.2187
 8498TIP3    H149689   6.657   1.487   2.304  1.1886 -0.7609  0.1940
 8498TIP3    H249690   6.604   1.486   2.161 -0.0162 -0.3482  0.6205
 8499TIP3   OH249691   3.769   4.560   1.646 -0.6528  0.1299  0.6771
 8499TIP3    H149692   3.730   4.500   1.710 -2.4545 -1.3428 -1.6401
 8499TIP3    H249693   3.695   4.591   1.594  0.8438  0.3588 -1.4236
 8500TIP3   OH249694   0.628   6.534   2.917 -0.4575  0.3548 -0.2503
 8500TIP3    H149695   0.637   6.510   3.010  0.4896 -1.4975 -0.7775
 8500TIP3    H249696   0.626   6.450   2.871 -2.3444  1.1979 -1.8282
 8501TIP3   OH249697   5.322   6.216   0.613 -0.1894 -0.1789 -0.2700
 8501TIP3    H149698   5.332   6.289   0.675  2.5137  0.2882 -1.1194
 8501TIP3    H249699   5.275   6.149   0.663 -0.7053  1.2676  1.2996
 8502TIP3   OH249700   3.293   7.670   1.533 -0.4589 -0.1576 -0.0935
 8502TIP3    H149701   3.236   7.728   1.482  0.5419  1.3133  0.4006
 8502TIP3    H249702   3.232   7.617   1.585 -1.3957  0.6484 -0.3317
 8503TIP3   OH249703   4.499   4.078   2.881  0.0928 -0.1953 -0.3342
 8503TIP3    H149704   4.488   4.104   2.790 -0.1094 -0.9141 -0.5202
 8503TIP3    H249705   4.440   4.136   2.930  0.5343  0.4964 -0.5986
 8504TIP3   OH249706   0.238   3.793   1.027  0.1782  0.2045  0.2077
 8504TIP3    H149707   0.154   3.766   0.989 -0.2585  0.9945  0.5939
 8504TIP3    H249708   0.288   3.828   0.954  1.2299 -2.6112 -0.5727
 8505TIP3   OH249709   4.741   0.197   1.981 -0.4962  0.5144  0.2451
 8505TIP3    H149710   4.748   0.240   2.067 -0.0781 -0.9639  0.9892
 8505TIP3    H249711   4.832   0.189   1.951 -0.2778 -2.1632  1.3622
 8506TIP3   OH249712   3.351   0.971   2.282  0.3809  0.3745 -0.5706
 8506TIP3    H149713   3.315   0.924   2.207  1.0055  1.8132 -1.8201
 8506TIP3    H249714   3.275   0.998   2.333 -0.0235 -1.0384 -0.3957
 8507TIP3   OH249715   2.132   6.402   3.425  0.3323 -0.2561  0.2127
 8507TIP3    H149716   2.049   6.358   3.407  0.5956 -0.9370  0.6242
 8507TIP3    H249717   2.108   6.476   3.481 -0.1193  0.1807 -0.5313
 8508TIP3   OH249718   0.471   7.469   1.309 -0.0965  0.1174  0.0908
 8508TIP3    H149719   0.381   7.501   1.297 -0.6658 -1.4295 -0.0030
 8508TIP3    H249720   0.476   7.444   1.401  0.4973  0.9209  0.2830
 8509TIP3   OH249721   4.581   4.740   0.606 -0.1799 -0.5503 -0.2320
 8509TIP3    H149722   4.509   4.779   0.654 -0.2009  0.4977 -1.0763
 8509TIP3    H249723   4.645   4.810   0.597  0.1523 -0.9368 -1.0514
 8510TIP3   OH249724   4.146   3.820   1.742  0.5163  0.2632 -0.0788
 8510TIP3    H149725   4.214   3.851   1.683  1.4394  0.8050  1.2193
 8510TIP3    H249726   4.122   3.897   1.794  0.2248 -0.3521  0.7174
 8511TIP3   OH249727   0.364   1.197   1.243 -0.2575 -0.0869  0.4226
 8511TIP3    H149728   0.340   1.267   1.303 -0.1051 -0.6479  1.1544
 8511TIP3    H249729   0.283   1.177   1.196  0.2011  2.1456 -1.5064
 8512TIP3   OH249730   1.047   0.630   0.825  0.3261  0.8582  0.1747
 8512TIP3    H149731   1.012   0.656   0.910 -1.2166  0.4259 -0.3036
 8512TIP3    H249732   0.990   0.673   0.761 -0.1955 -0.9454 -0.6223
 8513TIP3   OH249733   3.118   7.201   0.797 -0.6030  0.2214 -0.2901
 8513TIP3    H149734   3.025   7.183   0.784 -0.9340  1.4572  0.2202
 8513TIP3    H249735   3.158   7.178   0.713 -1.5133  0.5746 -0.8438
 8514TIP3   OH249736   6.854   6.511   2.152  0.3005  0.2778  0.4646
 8514TIP3    H149737   6.921   6.568   2.116  0.7537 -0.8898 -0.6335
 8514TIP3    H249738   6.869   6.426   2.109 -0.3549 -0.6661  1.9929
 8515TIP3   OH249739   1.504   0.013   1.771 -0.6853  0.0823 -0.3031
 8515TIP3    H149740   1.505   0.073   1.697 -0.3780  0.8139  0.2862
 8515TIP3    H249741   1.412  -0.014   1.778 -0.6814 -0.1660 -1.0710
 8516TIP3   OH249742   4.036   3.297   2.128  0.2591  0.6986 -0.6925
 8516TIP3    H149743   3.951   3.257   2.145 -0.1762  1.7179 -0.4074
 8516TIP3    H249744   4.040   3.373   2.186  0.1475  2.3284 -2.7026
 8517TIP3   OH249745   2.529   0.326   1.647 -0.1181  0.4148  0.4008
 8517TIP3    H149746   2.489   0.325   1.560 -0.0776  1.5585  0.3514
 8517TIP3    H249747   2.623   0.332   1.630  0.0141 -0.9781  0.5275
 8518TIP3   OH249748   7.212   4.421   0.722  0.0858  0.3500 -0.0854
 8518TIP3    H149749   7.233   4.514   0.736  1.6865 -0.2662  2.1094
 8518TIP3    H249750   7.275   4.374   0.775 -1.3387 -2.0033 -0.3428
 8519TIP3   OH249751   4.193   5.674   3.292  0.5595  0.4536 -0.5190
 8519TIP3    H149752   4.132   5.729   3.341  1.9088  0.4335  1.3229
 8519TIP3    H249753   4.139   5.604   3.255 -0.4672  0.0190  1.6402
 8520TIP3   OH249754   7.284   1.762   0.925  0.2784 -0.1362 -0.0483
 8520TIP3    H149755   7.226   1.800   0.991  0.9457  1.9979 -0.5844
 8520TIP3    H249756   7.229   1.754   0.847 -0.2918 -1.8789  0.4992
 8521TIP3   OH249757   6.258   2.777   1.661 -0.1060 -0.0825  0.3363
 8521TIP3    H149758   6.220   2.716   1.598  1.3125 -0.8838  0.2131
 8521TIP3    H249759   6.278   2.723   1.738  2.2504 -0.1051 -0.2020
 8522TIP3   OH249760   7.260   3.244   1.595  0.1357 -0.7138 -0.5026
 8522TIP3    H149761   7.191   3.269   1.534 -0.0276 -1.0638 -0.4645
 8522TIP3    H249762   7.339   3.285   1.560 -0.0997 -0.2676 -0.5147
 8523TIP3   OH249763   6.069   0.882   2.734 -0.6126  0.3123  0.2668
 8523TIP3    H149764   6.116   0.873   2.651 -0.7471  0.9294  0.1164
 8523TIP3    H249765   5.980   0.908   2.708 -0.9213 -0.4229  0.5653
 8524TIP3   OH249766   1.782   3.790   2.396 -0.4217  0.0845 -0.1438
 8524TIP3    H149767   1.811   3.781   2.486 -2.1180  0.0766  0.4295
 8524TIP3    H249768   1.816   3.712   2.352  0.5266  0.1567  0.4381
 8525TIP3   OH249769   3.252   1.952   1.329 -0.0184 -0.0849  0.1883
 8525TIP3    H149770   3.236   1.986   1.241 -0.3900 -0.1568  0.2255
 8525TIP3    H249771   3.324   1.889   1.318  0.3204  0.3281  0.0343
 8526TIP3   OH249772   1.103   1.002   2.528  0.3639 -0.3080 -0.1099
 8526TIP3    H149773   1.041   1.019   2.598  1.3620  1.0297  0.4884
 8526TIP3    H249774   1.174   0.952   2.569  0.2028 -0.9238 -0.5528
 8527TIP3   OH249775   6.615   5.838   1.638 -0.1509  0.1127 -0.4429
 8527TIP3    H149776   6.614   5.809   1.547 -0.8486  0.6084 -0.6038
 8527TIP3    H249777   6.530   5.882   1.650  0.1652  0.5436  0.2798
 8528TIP3   OH249778   4.654   5.432   1.866 -0.5638 -0.2733  0.4838
 8528TIP3    H149779   4.664   5.367   1.935  1.5360 -1.1492 -0.5460
 8528TIP3    H249780   4.716   5.501   1.889 -1.4130  0.4881  0.5653
 8529TIP3   OH249781   4.050   1.924   1.134  0.4910 -0.0002  0.1343
 8529TIP3    H149782   4.141   1.899   1.152  0.3137 -0.4826  0.3653
 8529TIP3    H249783   4.055   1.974   1.052  0.9440 -0.1681  0.0546
 8530TIP3   OH249784   0.243   2.487   2.380  0.5972 -0.3475  0.5329
 8530TIP3    H149785   0.314   2.430   2.351 -0.2073 -1.2247  0.2215
 8530TIP3    H249786   0.188   2.430   2.434 -0.6540 -0.1158 -0.4422
 8531TIP3   OH249787   0.902   2.222   1.637 -0.2167 -0.0916  0.1086
 8531TIP3    H149788   0.890   2.245   1.729 -0.1263 -0.7777  0.2996
 8531TIP3    H249789   0.893   2.305   1.590 -0.5185  0.2250  0.7101
 8532TIP3   OH249790   0.344   4.751   2.264 -0.1295  0.2240 -0.2388
 8532TIP3    H149791   0.279   4.680   2.261  0.0958 -0.0615  1.0256
 8532TIP3    H249792   0.429   4.707   2.261  0.0125  0.4332  0.4174
 8533TIP3   OH249793   1.415   5.369   2.791 -0.5043  0.0953 -0.3547
 8533TIP3    H149794   1.330   5.339   2.760 -0.4414  0.0835 -0.5180
 8533TIP3    H249795   1.449   5.296   2.842 -0.4256 -0.0451 -0.6097
 8534TIP3   OH249796   1.433   2.596   0.444 -0.3191 -0.1925 -0.3368
 8534TIP3    H149797   1.375   2.592   0.521  0.1863  0.3635  0.0827
 8534TIP3    H249798   1.499   2.661   0.467  1.1225 -1.5838 -0.3735
 8535TIP3   OH249799   2.602   4.601   2.831 -0.2846 -0.2324 -0.3965
 8535TIP3    H149800   2.577   4.555   2.911 -0.8033 -1.7771 -1.3953
 8535TIP3    H249801   2.676   4.656   2.857 -1.5975  0.7247  1.5368
 8536TIP3   OH249802   2.249   6.201   3.190  0.3093 -0.0819 -0.2316
 8536TIP3    H149803   2.163   6.169   3.160  0.4136  0.0115 -0.6404
 8536TIP3    H249804   2.231   6.243   3.274  0.2714 -1.7431  0.6145
 8537TIP3   OH249805   4.898   5.028   2.866  0.5316  0.0475  0.4159
 8537TIP3    H149806   4.974   4.970   2.871  0.6491  0.1514 -0.1136
 8537TIP3    H249807   4.906   5.072   2.782 -1.2786 -1.5582 -0.6985
 8538TIP3   OH249808   5.276   1.236   1.595  0.0857 -0.0260  0.4681
 8538TIP3    H149809   5.185   1.250   1.568 -0.3074  0.0067  1.7120
 8538TIP3    H249810   5.275   1.251   1.690  1.2999 -0.4676  0.5705
 8539TIP3   OH249811   3.743   1.986   2.863 -0.2790  0.0702 -0.4813
 8539TIP3    H149812   3.712   2.045   2.794 -0.9063 -1.3272 -1.4236
 8539TIP3    H249813   3.668   1.979   2.923  0.2386  1.2198  0.3458
 8540TIP3   OH249814   0.040   6.907   1.808  0.3525  0.1594  0.3643
 8540TIP3    H149815   0.022   6.906   1.714 -1.6245  0.3593  0.7101
 8540TIP3    H249816   0.080   6.821   1.825 -1.5829 -0.9309 -0.2754
 8541TIP3   OH249817   2.140   6.565   2.065  0.0818 -0.1789 -0.7246
 8541TIP3    H149818   2.068   6.604   2.015 -0.2634 -1.3112 -1.1466
 8541TIP3    H249819   2.204   6.635   2.073 -1.4813  1.1838  0.5490
 8542TIP3   OH249820   1.836   3.453   0.578 -0.3194  0.2825  0.4441
 8542TIP3    H149821   1.746   3.477   0.598 -1.0877  0.3320 -2.5233
 8542TIP3    H249822   1.879   3.535   0.555 -0.7564 -0.1169 -2.1155
 8543TIP3   OH249823   6.664   4.918   0.694  0.0246  0.6203 -0.5294
 8543TIP3    H149824   6.580   4.942   0.734 -0.1647  2.1174 -1.7141
 8543TIP3    H249825   6.640   4.879   0.610  0.5004  0.2376 -0.4939
 8544TIP3   OH249826   4.110   7.525   1.339 -0.5591  0.7853  0.3225
 8544TIP3    H149827   4.083   7.433   1.333 -1.3479  1.0831 -1.2473
 8544TIP3    H249828   4.112   7.543   1.433 -0.1273 -0.9080  0.6712
 8545TIP3   OH249829   6.065   0.749   1.812  0.2349 -0.1280 -0.7708
 8545TIP3    H149830   6.093   0.727   1.900 -1.2929 -2.3510 -0.7592
 8545TIP3    H249831   6.146   0.774   1.767  1.2462 -0.2858  0.8694
 8546TIP3   OH249832   7.528   7.667   1.894 -0.8294 -0.0976  0.0901
 8546TIP3    H149833   7.538   7.715   1.976  0.0553  1.3429 -0.8231
 8546TIP3    H249834   7.467   7.596   1.915  1.0719 -1.1509  2.5512
 8547TIP3   OH249835   1.082   0.815   1.900  0.2773  0.0163 -0.1190
 8547TIP3    H149836   1.119   0.770   1.975  1.6659  0.3772 -0.5588
 8547TIP3    H249837   1.145   0.884   1.879 -0.6869  0.7158 -0.8582
 8548TIP3   OH249838   3.764   0.590   0.779 -0.1984 -0.2049 -0.0018
 8548TIP3    H149839   3.773   0.675   0.823  0.7420 -1.0739  1.5864
 8548TIP3    H249840   3.752   0.528   0.851 -1.7948 -1.3282 -1.1828
 8549TIP3   OH249841   5.028   0.721   1.175 -0.1805 -0.0601  0.1875
 8549TIP3    H149842   4.965   0.793   1.179  0.4434  0.4613  0.5502
 8549TIP3    H249843   4.982   0.647   1.216 -0.1345  0.6359  1.5503
 8550TIP3   OH249844   5.753   0.288   7.324 -0.0463 -0.1828 -0.4094
 8550TIP3    H149845   5.778   0.377   7.302 -0.3770  0.0532  0.1529
 8550TIP3    H249846   5.657   0.287   7.321 -0.0798 -0.3020  0.3661
 8551TIP3   OH249847   1.994   4.621   2.970  0.3057  0.3687 -0.8749
 8551TIP3    H149848   1.988   4.664   3.055  0.4324  0.6540 -1.0086
 8551TIP3    H249849   2.083   4.639   2.940  0.9057 -1.3153 -0.2406
 8552TIP3   OH249850   1.423   1.542   1.251 -0.5054  0.0156  0.2992
 8552TIP3    H149851   1.356   1.608   1.234 -0.6367  0.1233  1.2122
 8552TIP3    H249852   1.402   1.472   1.190  1.1155  1.7950 -2.5381
 8553TIP3   OH249853   0.429   2.741   2.876 -0.1122  0.1018  0.2387
 8553TIP3    H149854   0.398   2.832   2.874  0.9762  0.4872  0.4285
 8553TIP3    H249855   0.352   2.690   2.853 -1.0949  0.9834  1.4377
 8554TIP3   OH249856   2.813   0.053   1.658 -0.1492  0.1140  0.5990
 8554TIP3    H149857   2.755   0.014   1.723 -0.0642  0.3772  0.8321
 8554TIP3    H249858   2.758   0.118   1.613 -0.5471 -0.8643 -0.3788
 8555TIP3   OH249859   6.485   3.802   1.248 -0.4981 -0.1021  0.5479
 8555TIP3    H149860   6.507   3.792   1.341 -1.9499  0.0813  0.9336
 8555TIP3    H249861   6.409   3.860   1.248 -1.0921 -0.8576 -0.7002
 8556TIP3   OH249862   6.173   4.399   1.540  0.2011  0.0868 -0.3472
 8556TIP3    H149863   6.128   4.438   1.465  0.7367 -1.0292 -1.2849
 8556TIP3    H249864   6.203   4.474   1.591  0.0774  0.8933 -1.4098
 8557TIP3   OH249865   0.453   2.286   1.257  0.5802 -0.3791  0.1161
 8557TIP3    H149866   0.511   2.249   1.191  2.1660 -0.8421  1.6950
 8557TIP3    H249867   0.512   2.320   1.324 -0.9645  0.2241  1.2180
 8558TIP3   OH249868   5.893   0.180   1.411  0.5869 -0.0306 -0.2446
 8558TIP3    H149869   5.935   0.262   1.437  1.8263 -1.0635  1.2026
 8558TIP3    H249870   5.890   0.128   1.491 -0.2365 -1.3938 -1.1123
 8559TIP3   OH249871   1.886   3.074   0.897 -0.0793  0.1705 -0.2623
 8559TIP3    H149872   1.895   3.168   0.917 -2.4908  0.4508 -0.1907
 8559TIP3    H249873   1.797   3.066   0.864  1.2341 -1.5406 -3.7746
 8560TIP3   OH249874   0.918   4.793   1.186  0.2040  0.5071  0.1715
 8560TIP3    H149875   0.997   4.836   1.219 -0.6416  1.9381  0.4472
 8560TIP3    H249876   0.899   4.725   1.250  1.1533  0.2139  0.1498
 8561TIP3   OH249877   7.483   7.060   2.716  0.3138 -0.2646  0.2717
 8561TIP3    H149878   7.552   6.994   2.705  0.5560 -0.1025  0.7614
 8561TIP3    H249879   7.481   7.076   2.810 -2.4119 -2.4385  0.7061
 8562TIP3   OH249880   2.883   4.986   7.471 -0.2755 -0.6139 -0.3080
 8562TIP3    H149881   2.857   5.073   7.441 -1.7593 -0.8784  0.1247
 8562TIP3    H249882   2.902   4.938   7.391 -2.3209 -0.7473 -0.7583
 8563TIP3   OH249883   2.513   1.717   1.103  0.2648  0.2140 -0.2544
 8563TIP3    H149884   2.604   1.745   1.090  1.0497 -0.4201  2.8455
 8563TIP3    H249885   2.505   1.637   1.052  1.0547  0.9029 -1.5042
 8564TIP3   OH249886   3.542   6.010   0.640  0.0097 -0.2421 -0.5959
 8564TIP3    H149887   3.568   5.918   0.643 -0.8693 -0.4987 -0.6966
 8564TIP3    H249888   3.620   6.056   0.608  0.5996 -0.8896 -0.1230
 8565TIP3   OH249889   4.515   1.994   0.766  0.9989 -0.0073  0.2119
 8565TIP3    H149890   4.459   1.926   0.802  1.1341 -0.4507 -0.3974
 8565TIP3    H249891   4.456   2.056   0.723  0.8280  0.5811  1.2602
 8566TIP3   OH249892   0.036   7.516   2.351 -0.5710 -0.4849 -0.2437
 8566TIP3    H149893   0.111   7.464   2.381  0.0618  0.2299 -0.5544
 8566TIP3    H249894   0.002   7.468   2.276  0.8224  0.2048 -1.3484
 8567TIP3   OH249895   2.668   4.355   2.556 -0.2043 -0.8934 -0.2811
 8567TIP3    H149896   2.671   4.263   2.533 -0.4000 -1.2040  0.8878
 8567TIP3    H249897   2.583   4.368   2.598 -0.2422 -0.1460 -0.5615
 8568TIP3   OH249898   5.724   3.609   1.498  0.5255 -0.3581 -0.1972
 8568TIP3    H149899   5.790   3.600   1.430 -0.1229 -0.8480 -0.7801
 8568TIP3    H249900   5.760   3.674   1.559  1.8520 -1.1530 -0.1060
 8569TIP3   OH249901   5.777   5.386   3.003  0.2098 -0.3189  0.4567
 8569TIP3    H149902   5.795   5.294   3.025  0.4005 -0.1017  1.2477
 8569TIP3    H249903   5.726   5.418   3.078  0.3088  0.2718  0.2684
 8570TIP3   OH249904   0.837   3.475   2.126  0.1495 -0.0479  0.4531
 8570TIP3    H149905   0.928   3.466   2.154  0.2969 -0.6527 -0.1847
 8570TIP3    H249906   0.819   3.569   2.133  1.0938  0.2037 -0.2084
 8571TIP3   OH249907   4.560   3.867   3.009 -0.2584 -0.5340 -0.0487
 8571TIP3    H149908   4.513   3.935   2.960  0.6470 -1.1568 -1.8464
 8571TIP3    H249909   4.521   3.871   3.097 -0.4201  2.0979 -0.1468
 8572TIP3   OH249910   6.151   6.767   3.201 -0.0755 -0.0790  0.3178
 8572TIP3    H149911   6.064   6.744   3.167 -0.1056 -0.7846  0.8324
 8572TIP3    H249912   6.155   6.862   3.195 -1.1727  0.0237  0.9583
 8573TIP3   OH249913   6.274   6.866   1.582  0.4204 -0.2346  0.1337
 8573TIP3    H149914   6.363   6.895   1.561  0.3480  0.6720  1.0054
 8573TIP3    H249915   6.265   6.881   1.676 -0.2966 -1.3373  0.2666
 8574TIP3   OH249916   3.960   3.417   0.602 -0.0620  0.2730  0.1385
 8574TIP3    H149917   3.932   3.488   0.661  1.8417  0.7273  0.5723
 8574TIP3    H249918   4.019   3.460   0.540  0.6305 -0.8213  0.0184
 8575TIP3   OH249919   1.660   5.858   1.162  0.0892 -0.1698 -0.1405
 8575TIP3    H149920   1.732   5.837   1.103 -0.4173 -2.0253 -0.1725
 8575TIP3    H249921   1.667   5.952   1.176  2.8779 -0.3434  0.3152
 8576TIP3   OH249922   4.604   7.306   0.817  0.2185 -0.3021  0.4026
 8576TIP3    H149923   4.666   7.237   0.796 -1.3876 -2.4132  2.1382
 8576TIP3    H249924   4.595   7.302   0.913  0.9998  3.2231  0.7807
 8577TIP3   OH249925   6.835   7.401   2.681 -0.2748  0.0355  0.4364
 8577TIP3    H149926   6.848   7.452   2.761  1.5784  2.4685 -1.2614
 8577TIP3    H249927   6.918   7.409   2.634 -1.0041 -2.0267 -1.3912
 8578TIP3   OH249928   1.077   0.155   2.941 -0.1076 -0.0517 -0.0486
 8578TIP3    H149929   1.129   0.232   2.917 -0.1965  0.8919  2.4721
 8578TIP3    H249930   0.986   0.184   2.933 -0.1492 -0.0370  0.4743
 8579TIP3   OH249931   3.234   5.683   2.586  0.5954 -0.6196  0.0272
 8579TIP3    H149932   3.156   5.669   2.640  0.3004 -0.3903 -0.3372
 8579TIP3    H249933   3.206   5.660   2.498  0.6295  0.5107 -0.2845
 8580TIP3   OH249934   7.411   4.022   3.371  0.6214  0.5163  0.5250
 8580TIP3    H149935   7.437   4.093   3.312  0.8680  0.7043  0.8506
 8580TIP3    H249936   7.473   4.029   3.444  1.2659 -0.6431  0.1141
 8581TIP3   OH249937   2.633   0.174   2.033 -0.0158 -0.0617  0.0607
 8581TIP3    H149938   2.705   0.210   1.981 -0.3109 -0.0088 -0.3192
 8581TIP3    H249939   2.601   0.249   2.084 -0.2904  0.0952 -0.3380
 8582TIP3   OH249940   3.129   4.020   1.197 -0.4730  0.0568  0.1661
 8582TIP3    H149941   3.182   4.080   1.250 -1.0135 -1.0801  2.1108
 8582TIP3    H249942   3.170   4.021   1.111  3.4269 -1.5544  1.8062
 8583TIP3   OH249943   0.962   5.079   3.511 -0.2953 -0.4535  0.8723
 8583TIP3    H149944   0.958   5.105   3.419 -0.0624  0.0305  0.9983
 8583TIP3    H249945   1.052   5.099   3.538  0.1239 -2.0674  0.7760
 8584TIP3   OH249946   2.358   4.497   3.119 -0.2018 -0.1704  0.9333
 8584TIP3    H149947   2.449   4.502   3.148 -0.2977 -0.6185  1.3160
 8584TIP3    H249948   2.320   4.581   3.145  0.8291  1.2887 -1.8310
 8585TIP3   OH249949   1.601   5.044   2.351 -0.0468 -0.6475  0.1247
 8585TIP3    H149950   1.516   5.046   2.395  0.7253  0.7225  1.6777
 8585TIP3    H249951   1.661   5.005   2.415  1.0361  1.0745  0.2353
 8586TIP3   OH249952   4.100   2.804   0.945  0.4278 -0.0848  0.6649
 8586TIP3    H149953   4.168   2.871   0.930 -0.5830  0.4344 -2.1793
 8586TIP3    H249954   4.032   2.850   0.993  0.7078  0.2925  0.7101
 8587TIP3   OH249955   1.304   3.724   2.542 -0.3360  0.1320  0.6845
 8587TIP3    H149956   1.331   3.779   2.468  1.2333 -0.2412  0.9493
 8587TIP3    H249957   1.220   3.686   2.514  0.1839  0.0462 -0.8789
 8588TIP3   OH249958   6.368   5.763   0.583  0.1582 -0.2451 -0.2727
 8588TIP3    H149959   6.436   5.701   0.608  0.0334 -0.4243 -0.3765
 8588TIP3    H249960   6.391   5.843   0.630  0.9900 -0.0093 -1.0547
 8589TIP3   OH249961   2.765   2.396   1.266 -0.3072  0.5020  0.1881
 8589TIP3    H149962   2.789   2.314   1.224  1.3982  1.5867 -1.1321
 8589TIP3    H249963   2.751   2.457   1.194 -0.4578  1.6381  1.1401
 8590TIP3   OH249964   2.006   1.622   0.709  0.1399 -0.2800  0.1560
 8590TIP3    H149965   1.995   1.684   0.781 -0.2775 -0.2685  0.0814
 8590TIP3    H249966   2.078   1.565   0.738  0.1899 -0.0764  0.4394
 8591TIP3   OH249967   4.600   0.174   0.518 -0.1338 -0.1106 -0.3403
 8591TIP3    H149968   4.664   0.112   0.482  2.2598  1.8118  0.3151
 8591TIP3    H249969   4.608   0.163   0.613 -0.1389  0.7412 -0.2349
 8592TIP3   OH249970   7.098   1.297   1.033  0.5476  0.0805 -0.5407
 8592TIP3    H149971   7.003   1.289   1.043  0.6836 -1.2998 -0.0452
 8592TIP3    H249972   7.110   1.340   0.949 -0.5382 -2.3952 -2.0779
 8593TIP3   OH249973   2.795   3.244   0.457  0.5165  0.4669  0.2239
 8593TIP3    H149974   2.756   3.160   0.433 -1.5675  1.7157 -1.1040
 8593TIP3    H249975   2.880   3.246   0.414  0.4427 -0.8040  0.0048
 8594TIP3   OH249976   5.164   1.968   3.155 -0.1280 -0.1390  0.3171
 8594TIP3    H149977   5.140   1.972   3.063  0.9288 -1.4993 -0.0533
 8594TIP3    H249978   5.178   2.059   3.181 -0.4083  0.2477 -0.8673
 8595TIP3   OH249979   7.065   7.105   1.768 -0.6435 -0.3604  0.1971
 8595TIP3    H149980   7.116   7.143   1.696  1.8240 -1.1908  1.4088
 8595TIP3    H249981   6.979   7.087   1.729 -0.9412  3.3350 -1.3020
 8596TIP3   OH249982   7.410   3.667   2.173  0.2291 -0.4056 -0.0930
 8596TIP3    H149983   7.435   3.577   2.150  2.5339  0.2360 -0.2944
 8596TIP3    H249984   7.393   3.663   2.267  1.6799 -0.8158  0.1839
 8597TIP3   OH249985   7.107   3.301   0.887  0.2453  0.0290 -0.0081
 8597TIP3    H149986   7.151   3.225   0.848  0.7620  0.2776  0.0846
 8597TIP3    H249987   7.133   3.375   0.833 -1.2043 -0.0110 -0.8190
 8598TIP3   OH249988   3.823   7.531   0.926 -0.3514  0.2150 -0.8102
 8598TIP3    H149989   3.775   7.611   0.904 -0.8231  0.7592  1.8145
 8598TIP3    H249990   3.755   7.468   0.951  0.1263 -0.1452 -0.3947
 8599TIP3   OH249991   0.125   5.699   2.694  0.5758 -0.5085 -0.1691
 8599TIP3    H149992   0.061   5.766   2.719  0.2703 -1.3974  1.5635
 8599TIP3    H249993   0.131   5.641   2.770  2.1273 -1.4722 -0.9611
 8600TIP3   OH249994   5.546   7.371   0.568  0.3688 -0.3167 -0.4335
 8600TIP3    H149995   5.526   7.281   0.542 -1.6422 -0.0422  0.0143
 8600TIP3    H249996   5.626   7.363   0.620  1.3231 -1.5621 -1.9877
 8601TIP3   OH249997   1.907   5.838   1.002  0.2485 -0.1643  0.2702
 8601TIP3    H149998   1.999   5.863   1.010  0.6614 -1.3715 -0.4104
 8601TIP3    H249999   1.907   5.743   1.015 -0.6743 -0.4194 -1.3210
 8602TIP3   OH250000   5.967   1.906   1.797  0.0669 -0.4268 -0.3445
 8602TIP3    H150001   5.992   1.954   1.876  0.5641 -0.1248 -0.6827
 8602TIP3    H250002   6.029   1.833   1.792 -0.4703 -0.9177 -0.0220
 8603TIP3   OH250003   2.229   6.397   2.749 -0.1217 -0.2571  0.3398
 8603TIP3    H150004   2.302   6.443   2.707 -0.7252  2.0029  1.6168
 8603TIP3    H250005   2.265   6.365   2.832 -0.3080 -0.1097  0.4764
 8604TIP3   OH250006   3.092   1.286   1.533 -0.5862  0.2781 -0.1890
 8604TIP3    H150007   3.017   1.227   1.522 -0.1349 -0.2412 -0.5136
 8604TIP3    H250008   3.125   1.299   1.444  0.4088 -0.4208  0.0609
 8605TIP3   OH250009   4.948   6.394   1.136  0.1611  0.4189 -0.0905
 8605TIP3    H150010   4.872   6.374   1.081 -1.1586 -0.5892  2.0041
 8605TIP3    H250011   4.998   6.458   1.084 -2.2635  1.3848 -1.4211
 8606TIP3   OH250012   4.050   1.301   1.642 -0.3957  0.2715 -0.8165
 8606TIP3    H150013   4.103   1.381   1.635  0.2317  0.0581  1.0217
 8606TIP3    H250014   3.969   1.330   1.684  0.0709 -0.1324  0.3931
 8607TIP3   OH250015   5.634   2.708   2.033 -0.2970 -0.3756 -0.2113
 8607TIP3    H150016   5.676   2.727   2.117 -1.2159  0.8394 -0.0031
 8607TIP3    H250017   5.554   2.760   2.034 -0.9551 -1.3221 -1.3215
 8608TIP3   OH250018   7.570   1.236   2.628  0.2530  0.2615 -0.1155
 8608TIP3    H150019   7.577   1.321   2.673  0.1854  0.9447 -1.3433
 8608TIP3    H250020   7.661   1.209   2.614  0.3170  0.8825 -1.0373
 8609TIP3   OH250021   3.224   0.777   3.195 -0.4097  0.0107  0.0226
 8609TIP3    H150022   3.310   0.799   3.159 -0.9006 -1.3349 -2.0966
 8609TIP3    H250023   3.174   0.859   3.191  0.2738  0.4201 -0.1938
 8610TIP3   OH250024   0.011   2.788   1.675 -0.3861  0.0986 -0.5726
 8610TIP3    H150025   0.095   2.744   1.665  0.9133  1.5808  2.4872
 8610TIP3    H250026  -0.033   2.741   1.746 -0.4323  1.5679  0.4210
 8611TIP3   OH250027   6.514   3.688   1.504  0.1841 -0.3304 -0.5412
 8611TIP3    H150028   6.598   3.702   1.547  0.1415  0.8200 -0.8195
 8611TIP3    H250029   6.454   3.665   1.575 -0.1892  2.7659  0.2808
 8612TIP3   OH250030   3.616   6.594   3.833 -0.1713  0.1948 -0.5412
 8612TIP3    H150031   3.587   6.546   3.755  1.4280  0.9219 -1.6370
 8612TIP3    H250032   3.704   6.562   3.850 -0.3845  0.2767  0.7981
 8613TIP3   OH250033   6.741   0.184   2.462 -0.2637  0.3778 -0.3359
 8613TIP3    H150034   6.741   0.093   2.491 -0.1022  1.4131  3.5456
 8613TIP3    H250035   6.830   0.198   2.428 -0.1284 -0.7752 -0.4933
 8614TIP3   OH250036   5.330   2.905   1.807 -0.0707  0.3995 -0.1980
 8614TIP3    H150037   5.317   2.983   1.754 -1.7288 -1.2742 -2.4939
 8614TIP3    H250038   5.378   2.845   1.750  2.3931  0.1394  1.9853
 8615TIP3   OH250039   4.914   2.282   1.859 -0.2122 -0.5046 -0.3536
 8615TIP3    H150040   4.977   2.333   1.910 -1.1065 -0.6847  0.9703
 8615TIP3    H250041   4.851   2.251   1.923 -2.7398  1.2166 -1.8230
 8616TIP3   OH250042   2.061   7.513   0.705  0.2212  0.2037 -0.4012
 8616TIP3    H150043   2.046   7.582   0.641  0.1164  0.4186 -0.1474
 8616TIP3    H250044   1.995   7.528   0.773 -0.1006 -0.4149 -0.5584
 8617TIP3   OH250045   1.226   3.726   0.800 -0.3431  0.5539  0.3502
 8617TIP3    H150046   1.297   3.781   0.768 -0.4949  0.5620  0.0211
 8617TIP3    H250047   1.232   3.732   0.895 -0.7928  1.7212  0.3220
 8618TIP3   OH250048   0.584   5.375   2.666 -0.4436 -0.0639  0.1999
 8618TIP3    H150049   0.634   5.438   2.718  1.4452 -1.7164  0.5146
 8618TIP3    H250050   0.631   5.369   2.583 -1.0651 -0.4851 -0.1355
 8619TIP3   OH250051   0.025   2.143   2.950 -0.1771 -0.1640 -0.2485
 8619TIP3    H150052   0.021   2.048   2.961 -0.8047 -0.0870  0.2715
 8619TIP3    H250053   0.095   2.171   3.008 -0.4507 -0.2428  0.1248
 8620TIP3   OH250054   6.990   6.861   1.910 -0.0759 -0.3390  0.1032
 8620TIP3    H150055   7.011   6.941   1.862 -1.6445 -1.3875 -2.5047
 8620TIP3    H250056   6.904   6.879   1.949 -0.1057 -0.4968  0.1080
 8621TIP3   OH250057   5.252   2.055   1.145  0.1008 -0.5059  0.7205
 8621TIP3    H150058   5.313   2.042   1.072 -0.0984 -0.5758  0.5657
 8621TIP3    H250059   5.297   2.117   1.203 -0.9074  1.8596 -0.8698
 8622TIP3   OH250060   3.418   1.476   1.832 -0.2543  0.0797  0.1094
 8622TIP3    H150061   3.355   1.537   1.869 -0.3276  0.0243  0.0757
 8622TIP3    H250062   3.365   1.402   1.801 -0.1476 -0.0882  0.3254
 8623TIP3   OH250063   4.154   1.856   1.640  0.4722 -1.0646  0.3466
 8623TIP3    H150064   4.098   1.793   1.595  0.6699 -1.7147  0.9995
 8623TIP3    H250065   4.238   1.851   1.594  1.1212 -2.7665  1.6300
 8624TIP3   OH250066   2.274   0.659   0.871 -0.1205 -0.2383  0.1059
 8624TIP3    H150067   2.227   0.742   0.877 -1.6132 -1.0837  0.5516
 8624TIP3    H250068   2.225   0.600   0.928  0.4598 -1.6327 -0.8006
 8625TIP3   OH250069   0.319   4.317   2.518 -0.2388 -0.2507 -0.2058
 8625TIP3    H150070   0.381   4.285   2.584 -1.4770  0.5301  1.4107
 8625TIP3    H250071   0.275   4.390   2.561 -1.1215  0.2610 -1.9208
 8626TIP3   OH250072   2.817   6.994   1.112 -0.1391 -0.0736 -0.0383
 8626TIP3    H150073   2.806   7.079   1.068  0.9796 -0.4631 -1.1447
 8626TIP3    H250074   2.765   6.933   1.059  0.7731 -0.4450 -0.5333
 8627TIP3   OH250075   6.398   3.312   0.785 -0.3390 -0.5069  0.6759
 8627TIP3    H150076   6.374   3.308   0.692 -2.7954  0.6939  1.1838
 8627TIP3    H250077   6.447   3.394   0.793 -0.4323 -0.4355  0.5147
 8628TIP3   OH250078   6.577   1.457   0.605  0.2606  0.2266  0.3294
 8628TIP3    H150079   6.578   1.548   0.633  1.3035 -0.3773  2.4415
 8628TIP3    H250080   6.521   1.413   0.669 -2.0969 -0.2977 -1.9564
 8629TIP3   OH250081   1.371   4.840   2.063 -0.1597 -0.1490  0.2072
 8629TIP3    H150082   1.382   4.746   2.047 -0.7565 -0.1448 -0.2699
 8629TIP3    H250083   1.326   4.845   2.147 -1.1924 -0.3406 -0.3179
 8630TIP3   OH250084   7.601   0.901   2.035  0.2155 -0.3523  0.5649
 8630TIP3    H150085   7.599   0.823   2.090  1.7268 -1.1010 -0.3842
 8630TIP3    H250086   7.598   0.867   1.945 -0.9206  0.7802  0.1335
 8631TIP3   OH250087   1.023   3.816   2.193  0.1737  0.0486  0.1753
 8631TIP3    H150088   1.042   3.868   2.271  1.1561 -4.4428  3.3294
 8631TIP3    H250089   0.931   3.793   2.201  0.6466 -1.7141  1.0146
 8632TIP3   OH250090   3.433   0.126   1.186  0.1209  0.5916 -0.1228
 8632TIP3    H150091   3.402   0.186   1.253  3.3268  0.9840  1.1760
 8632TIP3    H250092   3.461   0.182   1.114 -2.1210  0.2296 -1.3862
 8633TIP3   OH250093   1.226   6.194   0.740 -0.2397 -0.2432 -0.4087
 8633TIP3    H150094   1.294   6.144   0.694  0.8135  1.9085 -1.3567
 8633TIP3    H250095   1.184   6.131   0.797  0.4430 -2.3694 -2.1323
 8634TIP3   OH250096   6.506   2.346   1.923  0.2141  0.2810 -0.0321
 8634TIP3    H150097   6.423   2.310   1.893  0.3239  1.1285 -1.4617
 8634TIP3    H250098   6.492   2.364   2.016 -0.7272 -0.8687  0.0683
 8635TIP3   OH250099   4.351   4.955   1.083 -0.0180  0.1378 -0.3639
 8635TIP3    H150100   4.409   4.998   1.020  1.8836 -0.9010  0.5788
 8635TIP3    H250101   4.387   4.867   1.093 -1.3219 -0.3072  0.8461
 8636TIP3   OH250102   6.809   4.033   1.440 -0.6111 -0.3188 -0.0602
 8636TIP3    H150103   6.789   3.941   1.428 -2.4108  0.0816 -0.4721
 8636TIP3    H250104   6.834   4.042   1.532 -0.6717 -1.1589  0.0381
 8637TIP3   OH250105   4.069   7.004   1.169  0.2087 -0.3604  0.0882
 8637TIP3    H150106   4.041   7.035   1.083  1.2736 -0.2706 -0.2374
 8637TIP3    H250107   4.138   6.940   1.151 -0.5928 -1.4735  0.8297
 8638TIP3   OH250108   2.199   3.323   3.574  0.3641  0.2730  0.0919
 8638TIP3    H150109   2.123   3.372   3.604 -0.0157 -1.2672  1.8479
 8638TIP3    H250110   2.171   3.285   3.491 -0.2973  0.8026  0.0649
 8639TIP3   OH250111   0.655   6.224   2.418 -0.0599  0.1847 -0.2754
 8639TIP3    H150112   0.611   6.256   2.340 -1.3490  2.5462  1.2943
 8639TIP3    H250113   0.585   6.184   2.470  0.5783 -0.4019  0.1467
 8640TIP3   OH250114   7.121   3.238   2.513  0.0111  0.1354 -0.3959
 8640TIP3    H150115   7.087   3.247   2.602  0.4571  1.2869 -0.3340
 8640TIP3    H250116   7.209   3.276   2.517 -0.3249  1.0815 -1.5492
 8641TIP3   OH250117   3.398   3.526   1.883  0.2487 -0.3472  0.3935
 8641TIP3    H150118   3.472   3.583   1.906 -0.6018  0.8878  0.2009
 8641TIP3    H250119   3.325   3.560   1.935 -0.8883  0.3652 -1.5579
 8642TIP3   OH250120   7.540   5.111   0.794 -0.3039 -0.3017  0.4829
 8642TIP3    H150121   7.479   5.173   0.756 -0.1297  0.4969  1.4663
 8642TIP3    H250122   7.593   5.163   0.854  0.2405 -1.2901  0.8830
 8643TIP3   OH250123   0.803   6.753   0.858  0.1935 -0.4687 -0.0798
 8643TIP3    H150124   0.737   6.704   0.809 -1.6378 -1.2119  2.8780
 8643TIP3    H250125   0.769   6.843   0.860  1.2360  0.0084 -1.6324
 8644TIP3   OH250126   6.345   0.799   1.653 -0.2660  0.0421  0.2237
 8644TIP3    H150127   6.278   0.847   1.604  1.2383  2.1881  0.1218
 8644TIP3    H250128   6.426   0.814   1.604  0.3862 -2.3209  0.4374
 8645TIP3   OH250129   6.094   2.311   1.106 -0.2861 -0.6311  0.1561
 8645TIP3    H150130   6.149   2.349   1.174  0.6158  1.7642 -1.7239
 8645TIP3    H250131   6.147   2.240   1.069  0.5642  0.0787 -0.0331
 8646TIP3   OH250132   7.438   5.553   2.508 -0.2557 -0.1195 -0.0328
 8646TIP3    H150133   7.463   5.596   2.590  0.7476 -1.7434  0.5600
 8646TIP3    H250134   7.391   5.475   2.536 -2.0635  0.5210 -1.0879
 8647TIP3   OH250135   2.690   6.612   3.124  0.0666 -0.2042 -0.4129
 8647TIP3    H150136   2.749   6.543   3.155 -0.2981 -0.2406  0.2279
 8647TIP3    H250137   2.692   6.604   3.029  1.2145 -0.0935 -0.4123
 8648TIP3   OH250138   4.483   1.568   1.552 -0.0340 -0.4639  0.3963
 8648TIP3    H150139   4.541   1.578   1.628 -0.1471 -0.3847  0.4730
 8648TIP3    H250140   4.542   1.548   1.480  0.1176 -0.0970  0.4164
 8649TIP3   OH250141   6.647   1.436   2.484 -0.7750 -0.4092  0.3724
 8649TIP3    H150142   6.585   1.478   2.543 -0.8953 -0.0221 -0.0184
 8649TIP3    H250143   6.715   1.401   2.541 -0.3849  0.8045  0.6786
 8650TIP3   OH250144   2.028   4.808   2.747 -0.3277  0.5966 -0.2370
 8650TIP3    H150145   1.975   4.878   2.709 -1.3749 -0.4942 -0.8464
 8650TIP3    H250146   1.981   4.782   2.827 -0.5772 -0.1804 -0.6257
 8651TIP3   OH250147   5.582   6.936   0.765 -0.4685 -0.2026 -0.7714
 8651TIP3    H150148   5.502   6.980   0.794 -0.2912 -0.5269  0.2551
 8651TIP3    H250149   5.649   7.004   0.766 -0.9787  0.4199 -3.0009
 8652TIP3   OH250150   3.414   3.686   2.247  0.2073 -0.7198 -0.1744
 8652TIP3    H150151   3.449   3.628   2.315  1.0809  0.8426  0.7721
 8652TIP3    H250152   3.456   3.656   2.166  1.3415 -0.8429  0.4374
 8653TIP3   OH250153   1.471   6.052   2.832  0.1753 -0.4254  0.0590
 8653TIP3    H150154   1.420   6.119   2.879  0.4217 -1.2057  1.4977
 8653TIP3    H250155   1.479   5.980   2.895  2.7375 -0.4863 -0.2495
 8654TIP3   OH250156   3.750   7.403   3.342 -0.3108  0.1560 -0.3500
 8654TIP3    H150157   3.815   7.428   3.408 -0.4807  0.2755 -0.2256
 8654TIP3    H250158   3.781   7.318   3.309  0.7729  0.9403 -1.4457
 8655TIP3   OH250159   3.434   5.743   2.912  0.1301 -0.4903 -0.1794
 8655TIP3    H150160   3.459   5.733   2.820 -0.7588 -0.5879 -0.4210
 8655TIP3    H250161   3.440   5.654   2.947  0.4044 -0.4644 -0.1577
 8656TIP3   OH250162   0.685   1.409   1.977 -0.1050 -0.3937  0.5521
 8656TIP3    H150163   0.673   1.358   1.897  1.9099  1.4260 -1.0471
 8656TIP3    H250164   0.777   1.395   2.001 -0.0435  0.9031  1.1922
 8657TIP3   OH250165   0.065   0.437   2.318  0.4401  0.8378 -0.1996
 8657TIP3    H150166   0.124   0.419   2.245 -0.4121 -2.2339 -0.2651
 8657TIP3    H250167   0.122   0.449   2.393  1.2530 -0.6127 -0.5450
 8658TIP3   OH250168   7.226   2.285   1.705  0.1664  0.2622  0.4679
 8658TIP3    H150169   7.237   2.300   1.799 -2.7377 -0.2140  0.9571
 8658TIP3    H250170   7.158   2.346   1.679  2.3384  1.8944 -1.8741
 8659TIP3   OH250171   1.931   3.517   1.092 -0.0776  0.3197  0.0396
 8659TIP3    H150172   1.922   3.605   1.054 -0.9161 -0.4836 -1.7405
 8659TIP3    H250173   2.022   3.514   1.123 -0.6895  2.6279  2.4601
 8660TIP3   OH250174   1.580   2.141   1.765 -0.2367  0.3528  0.4815
 8660TIP3    H150175   1.559   2.110   1.677 -1.6037 -0.2252  0.9755
 8660TIP3    H250176   1.657   2.089   1.791 -0.1020  0.2060 -0.1930
 8661TIP3   OH250177   6.556   5.561   0.688 -0.9607 -0.1983 -0.1662
 8661TIP3    H150178   6.570   5.467   0.674 -0.1002 -0.6503  2.9610
 8661TIP3    H250179   6.644   5.599   0.689 -1.2529  0.5161 -0.5067
 8662TIP3   OH250180   7.602   4.855   0.911  0.2258  0.1828  0.1704
 8662TIP3    H150181   7.610   4.934   0.858 -0.7282  0.9389  1.1115
 8662TIP3    H250182   7.519   4.816   0.883  0.3870 -0.1564  0.1559
 8663TIP3   OH250183   5.584   5.625   1.308  0.4596 -0.1949 -0.0608
 8663TIP3    H150184   5.671   5.638   1.347  0.4737 -1.2731  0.3111
 8663TIP3    H250185   5.559   5.537   1.336 -0.6253 -0.0124 -0.4230
 8664TIP3   OH250186   0.717   4.552   1.053  0.0984 -0.7315 -0.8709
 8664TIP3    H150187   0.725   4.479   1.115  0.7639  0.0099 -0.0492
 8664TIP3    H250188   0.769   4.526   0.977  0.9145 -0.8239 -0.2918
 8665TIP3   OH250189   7.540   6.505   1.992  0.2628 -0.1478  0.0393
 8665TIP3    H150190   7.596   6.452   2.049 -0.9134  0.0770  1.4638
 8665TIP3    H250191   7.534   6.455   1.910  0.7275 -1.2643  0.6682
 8666TIP3   OH250192   2.749   2.828   2.773 -0.0087 -0.5662  0.2865
 8666TIP3    H150193   2.833   2.806   2.732  0.0294  0.1926 -0.0745
 8666TIP3    H250194   2.772   2.895   2.838 -0.3339 -0.3782  0.2065
 8667TIP3   OH250195   0.447   3.802   1.435 -0.6969 -0.3943  0.3454
 8667TIP3    H150196   0.414   3.754   1.359 -0.7140  2.1347 -1.3475
 8667TIP3    H250197   0.382   3.870   1.451  0.3203  0.3816  1.3507
 8668TIP3   OH250198   2.944   6.522   0.563  0.1861 -0.2817 -0.3951
 8668TIP3    H150199   2.873   6.459   0.580  0.8655 -1.5924 -2.1002
 8668TIP3    H250200   3.016   6.469   0.529  2.1746  0.9613  1.5615
 8669TIP3   OH250201   3.673   5.395   2.151 -0.5562  0.2988 -0.1147
 8669TIP3    H150202   3.605   5.328   2.153 -1.1483  0.8995  0.1578
 8669TIP3    H250203   3.667   5.432   2.063 -1.3822  1.1441  0.2761
 8670TIP3   OH250204   0.022   1.702   1.220 -0.3896 -0.4111  0.2593
 8670TIP3    H150205  -0.059   1.673   1.178  0.4498  0.5022 -2.1717
 8670TIP3    H250206   0.015   1.797   1.222  0.6157 -0.3171 -0.0204
 8671TIP3   OH250207   5.944   5.292   0.708  0.6967 -0.0645 -0.5976
 8671TIP3    H150208   6.026   5.270   0.665  1.5033 -0.7609  1.2007
 8671TIP3    H250209   5.955   5.381   0.739  1.3602 -0.6079  0.8341
 8672TIP3   OH250210   1.108   5.610   0.495 -0.0533 -0.0025  0.0877
 8672TIP3    H150211   1.101   5.685   0.555  0.3674 -1.2476  1.7573
 8672TIP3    H250212   1.019   5.574   0.491 -0.2813  0.6180 -0.8089
 8673TIP3   OH250213   0.212   7.362   1.087  0.0005 -0.4015  0.3161
 8673TIP3    H150214   0.132   7.330   1.044 -0.6075  0.8485  0.4385
 8673TIP3    H250215   0.264   7.399   1.015  0.7430 -1.6851  0.1597
 8674TIP3   OH250216   3.295   0.076   2.190  0.0580  0.2834 -0.4567
 8674TIP3    H150217   3.322   0.053   2.279 -3.7252 -2.0061  0.3058
 8674TIP3    H250218   3.239   0.153   2.201  0.8966  1.0207 -1.1509
 8675TIP3   OH250219   4.256   3.658   2.050  0.1400  0.3022  0.2573
 8675TIP3    H150220   4.247   3.597   1.977  0.0943 -0.0838  0.5833
 8675TIP3    H250221   4.229   3.608   2.126 -1.1691  1.1179  0.3570
 8676TIP3   OH250222   7.059   4.003   0.708 -0.0101  0.2795 -0.2171
 8676TIP3    H150223   7.062   3.912   0.737 -0.0275  0.7585  1.4214
 8676TIP3    H250224   6.966   4.027   0.715  0.2523  0.9911  1.4152
 8677TIP3   OH250225   5.503   7.070   0.522  0.1303  0.1423 -0.1392
 8677TIP3    H150226   5.502   6.983   0.562 -4.7559 -0.0698 -0.0927
 8677TIP3    H250227   5.510   7.053   0.428  0.9668 -0.1142 -0.0418
 8678TIP3   OH250228   6.460   2.753   1.280  0.1442 -0.1988 -0.0428
 8678TIP3    H150229   6.453   2.701   1.200  2.7938  0.2062 -0.6208
 8678TIP3    H250230   6.520   2.703   1.336  0.0442  0.5853  0.7922
 8679TIP3   OH250231   6.087   6.749   0.937 -0.1659  0.3064  0.1115
 8679TIP3    H150232   6.163   6.717   0.985 -0.2992  0.9029  0.7389
 8679TIP3    H250233   6.090   6.845   0.947 -1.4594  0.2975  0.8966
 8680TIP3   OH250234   7.037   5.145   1.240  0.3293  0.1563  0.2425
 8680TIP3    H150235   7.116   5.091   1.252  0.3732 -0.2277 -1.4530
 8680TIP3    H250236   6.965   5.082   1.244  0.0213  0.5696  2.2572
 8681TIP3   OH250237   1.174   5.210   2.845  0.0738 -0.4458  0.0141
 8681TIP3    H150238   1.162   5.115   2.842 -0.1878 -0.4004 -0.6277
 8681TIP3    H250239   1.185   5.230   2.937 -0.1840 -1.0637  0.1849
 8682TIP3   OH250240   3.201   5.839   0.937 -0.0747 -0.1489 -0.5787
 8682TIP3    H150241   3.282   5.889   0.925 -0.7881  0.9890 -0.8826
 8682TIP3    H250242   3.201   5.776   0.865 -0.6360  1.5493 -2.1701
 8683TIP3   OH250243   5.444   4.253   1.848  0.3278 -0.6639 -0.1873
 8683TIP3    H150244   5.420   4.243   1.940  0.0789 -0.6162 -0.2475
 8683TIP3    H250245   5.436   4.347   1.831 -2.6033 -0.9856 -1.0642
 8684TIP3   OH250246   0.964   4.909   0.513  0.3255  0.4648  0.1723
 8684TIP3    H150247   0.941   4.816   0.518  0.1095  0.5860  2.1388
 8684TIP3    H250248   0.909   4.943   0.442  1.2342 -1.1046 -1.3546
 8685TIP3   OH250249   5.158   4.938   1.970  0.0912 -0.3234  0.1184
 8685TIP3    H150250   5.151   4.882   2.047  0.0448  0.4226  0.6601
 8685TIP3    H250251   5.072   4.933   1.929  0.1906 -0.9190 -0.0392
 8686TIP3   OH250252   0.472   6.804   1.102 -0.3806  0.1908 -0.2688
 8686TIP3    H150253   0.526   6.725   1.096 -0.8385 -0.1906  0.4947
 8686TIP3    H250254   0.519   6.869   1.049  0.7606 -0.1670  0.2650
 8687TIP3   OH250255   6.745   6.652   2.372  0.2418  0.5509  0.0170
 8687TIP3    H150256   6.767   6.596   2.298  1.4329  0.8940  0.0915
 8687TIP3    H250257   6.652   6.636   2.387 -0.0324  0.4904 -1.5552
 8688TIP3   OH250258   4.030   6.765   0.783  0.1974  0.1216 -0.1485
 8688TIP3    H150259   3.991   6.734   0.865 -1.2397 -1.3688 -1.3327
 8688TIP3    H250260   3.989   6.712   0.715  1.7564  0.9279 -1.8140
 8689TIP3   OH250261   1.728   5.904   1.986 -0.3902 -0.5155 -0.2277
 8689TIP3    H150262   1.716   5.934   1.896 -0.3501 -0.0831 -0.0899
 8689TIP3    H250263   1.671   5.960   2.039 -0.4337 -0.7825  0.0153
 8690TIP3   OH250264   2.427   5.004   2.334 -0.5027 -0.3987 -0.8670
 8690TIP3    H150265   2.371   5.046   2.269  0.2641 -0.0731 -1.3270
 8690TIP3    H250266   2.471   4.934   2.286  0.4081  0.1276 -0.8142
 8691TIP3   OH250267   0.348   2.085   2.512 -0.2087 -0.3265 -0.7113
 8691TIP3    H150268   0.411   2.042   2.454  0.9532 -2.3424  1.8151
 8691TIP3    H250269   0.263   2.051   2.485  0.0031  0.5624 -2.6329
 8692TIP3   OH250270   2.261   3.922   1.079  0.2021 -0.0099 -0.5667
 8692TIP3    H150271   2.181   3.973   1.085  0.0594 -0.1742 -1.0482
 8692TIP3    H250272   2.262   3.869   1.159 -0.3497 -0.2599 -0.7199
 8693TIP3   OH250273   2.720   2.886   1.881  0.0085 -0.0665 -0.4423
 8693TIP3    H150274   2.735   2.863   1.973 -0.9271 -0.4679 -0.3805
 8693TIP3    H250275   2.800   2.859   1.836  0.8453  0.9607  0.3889
 8694TIP3   OH250276   1.319   2.477   2.531  0.2252  0.0681 -0.2597
 8694TIP3    H150277   1.252   2.498   2.597  1.0389  1.8922  0.0532
 8694TIP3    H250278   1.374   2.411   2.573  0.5463  0.9708  0.7946
 8695TIP3   OH250279   7.259   1.762   2.585  0.0133 -0.7798  0.7876
 8695TIP3    H150280   7.287   1.719   2.666 -0.4343 -2.0117  0.3091
 8695TIP3    H250281   7.177   1.806   2.609  0.5510 -0.0433  1.3183
 8696TIP3   OH250282   6.569   0.623   0.713  0.3905  0.3383  0.1826
 8696TIP3    H150283   6.523   0.587   0.789 -0.5392 -0.1209 -0.5658
 8696TIP3    H250284   6.554   0.559   0.643  0.4088  1.2035 -0.6444
 8697TIP3   OH250285   0.713   4.865   1.030 -0.7122 -0.2080  0.4937
 8697TIP3    H150286   0.791   4.844   1.081 -0.0426 -0.6546 -0.6722
 8697TIP3    H250287   0.685   4.781   0.993 -1.3384  0.0586  0.3520
 8698TIP3   OH250288   0.544   1.315   0.689  0.6108  0.2618 -0.1504
 8698TIP3    H150289   0.461   1.268   0.682  1.9902 -2.2906 -0.6732
 8698TIP3    H250290   0.522   1.406   0.669 -1.8217 -0.5378 -1.5319
 8699TIP3   OH250291   3.026   7.374   2.604 -0.0758 -0.3266  0.0890
 8699TIP3    H150292   3.104   7.330   2.638  0.6856  0.4541 -0.6045
 8699TIP3    H250293   2.955   7.340   2.657  0.9532  0.2209  1.8862
 8700TIP3   OH250294   1.040   5.418   2.730 -0.7206  0.4027  0.0990
 8700TIP3    H150295   1.100   5.449   2.662 -0.7112 -0.4430 -0.2891
 8700TIP3    H250296   1.088   5.349   2.775 -1.2835 -0.0860 -0.0292
 8701TIP3   OH250297   6.694   6.130   0.773  0.6708  0.2344  0.1799
 8701TIP3    H150298   6.755   6.100   0.706  0.5598  0.9920 -0.2765
 8701TIP3    H250299   6.738   6.203   0.815 -0.1942  1.2577 -0.6428
 8702TIP3   OH250300   4.055   7.546   2.439  0.5012 -0.4645 -0.0785
 8702TIP3    H150301   4.087   7.543   2.349 -0.9466 -0.1389 -0.6364
 8702TIP3    H250302   3.980   7.486   2.440  0.5843 -0.5787  0.9570
 8703TIP3   OH250303   6.456   5.214   3.248 -0.7083 -1.0094 -0.3928
 8703TIP3    H150304   6.376   5.254   3.282 -0.8008 -0.7099 -0.9421
 8703TIP3    H250305   6.527   5.267   3.286 -0.8618  0.7185 -2.3025
 8704TIP3   OH250306   4.570   3.539   2.462 -1.1435 -0.4694 -0.7116
 8704TIP3    H150307   4.475   3.530   2.453 -1.1492 -1.1274 -0.0799
 8704TIP3    H250308   4.601   3.559   2.374 -1.7720 -1.2071 -1.1097
 8705TIP3   OH250309   3.224   7.083   2.417  0.0669  0.1973  0.3727
 8705TIP3    H150310   3.151   7.021   2.423  0.9693 -0.8635  0.6992
 8705TIP3    H250311   3.212   7.126   2.332  0.4248 -1.7548 -0.7278
 8706TIP3   OH250312   1.110   2.649   3.286  0.0671 -0.2012  0.0154
 8706TIP3    H150313   1.018   2.639   3.262 -0.2182 -1.1347  1.3582
 8706TIP3    H250314   1.131   2.740   3.266 -0.5117 -0.5116 -2.2867
 8707TIP3   OH250315   2.841   6.804   0.751 -0.1250 -0.1759  0.2645
 8707TIP3    H150316   2.936   6.799   0.741  0.0159 -0.6204  1.6220
 8707TIP3    H250317   2.807   6.729   0.702 -0.0255  1.4730 -2.5318
 8708TIP3   OH250318   5.488   5.342   0.806 -0.2352  0.0112 -0.2135
 8708TIP3    H150319   5.432   5.302   0.740 -1.0370 -0.8339  0.9197
 8708TIP3    H250320   5.436   5.416   0.839 -0.1220  0.0370 -0.0936
 8709TIP3   OH250321   4.029   4.023   1.438 -0.0976 -0.0798 -0.2097
 8709TIP3    H150322   4.014   4.039   1.345 -0.3151  2.0470  0.1414
 8709TIP3    H250323   4.123   4.036   1.449  0.1407 -1.5193 -0.3020
 8710TIP3   OH250324   6.971   1.710   0.412  0.3785 -0.3867  0.1294
 8710TIP3    H150325   7.049   1.654   0.407  0.8994  0.4047 -1.0889
 8710TIP3    H250326   6.904   1.662   0.364  0.6639 -0.2322 -0.4315
 8711TIP3   OH250327   1.775   4.590   1.491  0.1613 -0.0467  0.0060
 8711TIP3    H150328   1.854   4.615   1.443  0.6097 -1.7437 -0.1790
 8711TIP3    H250329   1.709   4.653   1.462  1.1321  0.6688 -0.7239
 8712TIP3   OH250330   3.607   4.433   3.050 -0.4653  0.2970  0.2943
 8712TIP3    H150331   3.565   4.349   3.066  0.4791 -0.3175 -0.3304
 8712TIP3    H250332   3.685   4.432   3.105 -0.6198  0.9092  0.5326
 8713TIP3   OH250333   2.860   2.886   2.458 -0.2197  0.3813  0.0487
 8713TIP3    H150334   2.939   2.884   2.404  1.0236  0.7193  1.7677
 8713TIP3    H250335   2.813   2.806   2.435  0.9782 -0.1870 -0.5121
 8714TIP3   OH250336   2.566   7.054   1.716  0.0753  0.0024  0.2044
 8714TIP3    H150337   2.556   7.054   1.621 -0.4615  1.6373  0.2317
 8714TIP3    H250338   2.661   7.061   1.730  0.1044  0.4845 -0.2197
 8715TIP3   OH250339   4.696   7.450   2.405 -0.4244 -0.2377  0.5126
 8715TIP3    H150340   4.667   7.386   2.340  2.3570 -0.2842 -0.8073
 8715TIP3    H250341   4.695   7.403   2.488  1.5471 -2.0581 -0.4316
 8716TIP3   OH250342   3.536   5.482   2.429 -0.0058 -0.1648  0.1383
 8716TIP3    H150343   3.614   5.494   2.374  0.0461 -1.9429 -0.2537
 8716TIP3    H250344   3.565   5.506   2.517  0.7639 -0.0747 -0.1312
 8717TIP3   OH250345   7.481   6.048   2.226 -0.5855  0.2304  0.0530
 8717TIP3    H150346   7.483   6.034   2.131  0.7169 -1.3930  0.2612
 8717TIP3    H250347   7.536   5.978   2.261 -0.5994  1.1246  1.9804
 8718TIP3   OH250348   3.704   6.769   1.605  0.0923 -0.0169 -0.3261
 8718TIP3    H150349   3.644   6.769   1.679 -3.2610 -1.6060 -2.7566
 8718TIP3    H250350   3.702   6.858   1.572 -1.6140 -0.1832 -0.7679
 8719TIP3   OH250351   2.329   5.697   0.469 -0.8967 -0.0321 -0.3175
 8719TIP3    H150352   2.266   5.751   0.422 -0.7248  0.9095  0.4963
 8719TIP3    H250353   2.296   5.608   0.460 -1.3244  0.2318 -1.4654
 8720TIP3   OH250354   0.293   2.269   2.732 -0.3524 -0.3877  0.4116
 8720TIP3    H150355   0.213   2.314   2.704 -1.0171 -1.0091  1.2369
 8720TIP3    H250356   0.325   2.225   2.653  0.5977  1.8629 -0.5416
 8721TIP3   OH250357   2.530   7.076   1.388 -0.9185 -0.0611  0.4080
 8721TIP3    H150358   2.507   7.150   1.331  0.0556 -0.0129  0.0537
 8721TIP3    H250359   2.604   7.035   1.344  0.1460  0.2464  1.8645
 8722TIP3   OH250360   2.789   3.239   0.733 -0.2255 -0.6505  0.4582
 8722TIP3    H150361   2.782   3.226   0.639  1.3644 -1.4168  0.4091
 8722TIP3    H250362   2.873   3.199   0.757 -0.5147 -0.3320  2.1735
 8723TIP3   OH250363   4.785   0.839   1.213  0.8480  0.4669 -0.1171
 8723TIP3    H150364   4.712   0.897   1.235 -0.4417 -0.9150 -0.5355
 8723TIP3    H250365   4.758   0.753   1.246  2.2765 -0.1059 -0.3376
 8724TIP3   OH250366   0.137   0.895   0.699 -0.0126 -0.2651 -0.3555
 8724TIP3    H150367   0.051   0.861   0.677 -0.1061 -0.0021 -0.3927
 8724TIP3    H250368   0.160   0.953   0.626 -0.0820  0.1691 -0.0327
 8725TIP3   OH250369   2.025   1.714   2.228 -0.1077 -0.5134  0.0431
 8725TIP3    H150370   1.982   1.698   2.144  2.3525 -2.6640 -0.9634
 8725TIP3    H250371   2.073   1.796   2.215  0.5383 -1.0114 -0.8222
 8726TIP3   OH250372   2.542   3.903   1.540 -0.2143  0.3382 -0.0183
 8726TIP3    H150373   2.579   3.830   1.492 -0.6329 -0.1093  0.3298
 8726TIP3    H250374   2.527   3.869   1.628 -2.3595  0.1659 -0.3877
 8727TIP3   OH250375   3.444   5.967   0.896 -0.5585  0.0769 -0.2254
 8727TIP3    H150376   3.520   5.974   0.954 -0.7252 -2.8650  0.5162
 8727TIP3    H250377   3.481   5.962   0.808 -0.1714  2.3380 -0.2345
 8728TIP3   OH250378   5.484   3.860   2.375 -0.1270  0.4251 -1.1817
 8728TIP3    H150379   5.562   3.813   2.406 -0.5024 -0.2233 -1.1981
 8728TIP3    H250380   5.415   3.832   2.436  0.4014  3.9490  1.3210
 8729TIP3   OH250381   3.708   3.885   1.284  0.2716 -0.1034 -0.4712
 8729TIP3    H150382   3.646   3.958   1.279 -0.9665 -1.1540 -0.9942
 8729TIP3    H250383   3.725   3.863   1.193  0.1629 -0.8476 -0.3157
 8730TIP3   OH250384   4.433   1.339   2.803 -0.7165 -0.2315 -0.1857
 8730TIP3    H150385   4.357   1.342   2.861 -1.8779  0.3176 -1.6814
 8730TIP3    H250386   4.422   1.258   2.754  0.4365 -0.8627  0.5508
 8731TIP3   OH250387   2.626   6.493   1.103  0.2853 -0.0434  0.3860
 8731TIP3    H150388   2.568   6.458   1.036  1.5804  1.6440 -1.7630
 8731TIP3    H250389   2.586   6.576   1.129 -0.6165 -1.0451  2.3639
 8732TIP3   OH250390   6.803   1.128   0.699 -0.1422 -0.9595 -0.3737
 8732TIP3    H150391   6.801   1.177   0.781  1.0743  0.1383 -0.9675
 8732TIP3    H250392   6.712   1.127   0.668 -0.2250  0.7578 -0.2440
 8733TIP3   OH250393   1.373   3.926   1.757 -0.4164 -0.2342  0.6779
 8733TIP3    H150394   1.386   3.833   1.772  0.5566  0.0202  1.5176
 8733TIP3    H250395   1.291   3.931   1.708  0.1571 -1.5982 -0.4975
 8734TIP3   OH250396   3.185   4.542   1.503 -0.2452  0.0171  0.4969
 8734TIP3    H150397   3.279   4.556   1.519 -0.2235  1.5357 -0.7308
 8734TIP3    H250398   3.181   4.454   1.466  0.7808  0.1262  0.0746
 8735TIP3   OH250399   3.756   3.859   1.908 -0.1845  0.4535 -0.1250
 8735TIP3    H150400   3.743   3.953   1.914  1.3421  0.6105  1.8257
 8735TIP3    H250401   3.843   3.844   1.947 -0.2131 -1.7127 -0.7284
 8736TIP3   OH250402   2.040   5.284   2.495 -0.2622 -0.1313 -0.0008
 8736TIP3    H150403   1.966   5.342   2.474  1.0636  1.2085 -1.1319
 8736TIP3    H250404   1.999   5.200   2.515 -2.2500  1.0967  1.4800
 8737TIP3   OH250405   2.354   1.464   1.016 -0.3323  0.2152 -0.2145
 8737TIP3    H150406   2.413   1.411   1.068  0.2111 -0.6425 -1.6530
 8737TIP3    H250407   2.269   1.455   1.059  0.3330  0.5851  1.2423
 8738TIP3   OH250408   4.352   2.943   1.165 -0.2095  0.0954  0.0612
 8738TIP3    H150409   4.442   2.912   1.159 -0.8296 -1.7075 -0.5938
 8738TIP3    H250410   4.328   2.964   1.075 -0.3956  0.7690  0.2586
 8739TIP3   OH250411   6.212   4.824   0.611 -0.8758  0.1052 -0.0878
 8739TIP3    H150412   6.127   4.796   0.644 -1.2593  1.7793  0.4070
 8739TIP3    H250413   6.193   4.859   0.524 -0.8756  1.3660  0.4004
 8740TIP3   OH250414   7.033   4.786   1.114 -0.1603  0.3061  0.2945
 8740TIP3    H150415   7.016   4.713   1.173  0.9358  1.1449  1.7244
 8740TIP3    H250416   7.127   4.781   1.095  0.0104  1.5085  0.6962
 8741TIP3   OH250417   5.128   0.433   3.001 -0.1286  0.1921 -0.0863
 8741TIP3    H150418   5.209   0.384   2.992  0.5942  1.4503 -0.7667
 8741TIP3    H250419   5.082   0.392   3.074  0.9516 -0.7706  0.0655
 8742TIP3   OH250420   4.428   6.033   2.569  0.1671  0.3046 -0.3233
 8742TIP3    H150421   4.514   6.071   2.553  0.2099  0.0893 -0.6064
 8742TIP3    H250422   4.437   5.942   2.540 -0.8448  0.8750 -2.5848
 8743TIP3   OH250423   0.499   6.188   0.668  0.4792 -0.0921 -0.0629
 8743TIP3    H150424   0.451   6.269   0.652  0.4761  0.1100  0.9121
 8743TIP3    H250425   0.575   6.215   0.719  1.0527 -0.5584 -0.6663
 8744TIP3   OH250426   1.365   5.574   2.971  0.5638  0.0752  0.6693
 8744TIP3    H150427   1.395   5.531   3.051 -0.3489  0.1971  1.0919
 8744TIP3    H250428   1.372   5.506   2.904  2.3958  0.2883  0.5777
 8745TIP3   OH250429   2.263   3.661   2.871 -0.3413 -0.0366  0.3263
 8745TIP3    H150430   2.332   3.607   2.833  0.1186 -0.1255  1.2517
 8745TIP3    H250431   2.304   3.702   2.948 -0.8090  1.2959 -0.1109
 8746TIP3   OH250432   7.311   6.906   2.519 -0.1609 -0.2950  0.3311
 8746TIP3    H150433   7.253   6.924   2.593 -1.1557 -0.5595 -0.3746
 8746TIP3    H250434   7.361   6.987   2.507 -0.0852 -0.2025  1.1999
 8747TIP3   OH250435   3.274   2.742   0.895  0.1292  0.1059 -0.2858
 8747TIP3    H150436   3.199   2.686   0.876  0.7202 -0.3984 -1.2464
 8747TIP3    H250437   3.286   2.735   0.990 -1.3357  0.6058 -0.0402
 8748TIP3   OH250438   6.260   5.428   1.102 -0.3879  0.0632  0.3399
 8748TIP3    H150439   6.267   5.333   1.092  0.0804  0.1965 -0.7430
 8748TIP3    H250440   6.181   5.441   1.154 -2.1237 -0.8153 -1.9150
 8749TIP3   OH250441   5.777   7.122   0.790 -0.3938  0.3162  0.1977
 8749TIP3    H150442   5.781   7.131   0.885 -2.1750  1.2916  0.2166
 8749TIP3    H250443   5.831   7.193   0.756 -0.5412  0.5558  0.4660
 8750TIP3   OH250444   3.990   5.671   2.538  0.5846  0.7477  0.1714
 8750TIP3    H150445   4.065   5.613   2.547  0.4328  0.8372  2.8537
 8750TIP3    H250446   3.921   5.615   2.500  1.3399  0.0387 -0.1777
 8751TIP3   OH250447   1.997   3.706   2.891  0.7717 -0.7305  0.0495
 8751TIP3    H150448   2.083   3.697   2.850  1.0871 -0.3277  0.6194
 8751TIP3    H250449   2.008   3.773   2.958 -0.3904  0.5341 -0.9568
 8752TIP3   OH250450   0.482   3.967   1.079 -0.2055 -0.0460  0.7588
 8752TIP3    H150451   0.557   3.939   1.132 -0.4198  1.0517  1.6736
 8752TIP3    H250452   0.426   4.016   1.140 -2.2471 -1.7842  0.3762
 8753TIP3   OH250453   0.725   5.679   0.660  0.1387 -0.4912  0.1485
 8753TIP3    H150454   0.685   5.740   0.598  1.1164  0.2942  0.2720
 8753TIP3    H250455   0.651   5.629   0.694 -0.6902  0.5826 -0.0057
 8754TIP3   OH250456   5.072   1.732   1.806  0.1568  0.1379 -0.4134
 8754TIP3    H150457   5.029   1.651   1.782  0.4666 -0.0197 -0.4474
 8754TIP3    H250458   5.164   1.718   1.783  0.1779  0.5738 -0.6160
 8755TIP3   OH250459   7.392   7.173   2.031 -0.3019  0.4155  0.4657
 8755TIP3    H150460   7.410   7.082   2.005  1.6086  0.9055 -0.1280
 8755TIP3    H250461   7.375   7.168   2.125 -1.8326 -0.7258  0.1638
 8756TIP3   OH250462   4.700   5.738   3.373 -0.3396 -0.2969 -0.4003
 8756TIP3    H150463   4.709   5.833   3.386  3.0412 -0.2178 -2.2473
 8756TIP3    H250464   4.616   5.716   3.415 -2.4988  3.8635 -1.9282
 8757TIP3   OH250465   5.764   1.791   2.038 -0.3535 -0.2064 -0.0219
 8757TIP3    H150466   5.706   1.817   2.110 -0.9747 -0.7431 -0.3166
 8757TIP3    H250467   5.796   1.874   2.002 -1.9285  0.1763 -0.6424
 8758TIP3   OH250468   3.980   3.854   2.407  0.3905 -0.2547 -0.3180
 8758TIP3    H150469   3.986   3.767   2.368  0.2042  0.1328 -1.2395
 8758TIP3    H250470   3.907   3.848   2.467  0.4866 -0.7857 -0.2487
 8759TIP3   OH250471   6.725   6.784   1.741  0.3179 -0.1498  0.3494
 8759TIP3    H150472   6.777   6.710   1.709 -1.2631 -0.2125 -2.4501
 8759TIP3    H250473   6.704   6.761   1.832  0.3172 -2.9162 -0.2457
 8760TIP3   OH250474   6.503   3.396   3.247  0.1972  0.3790  0.0631
 8760TIP3    H150475   6.417   3.433   3.268  0.2483  0.6612 -0.2145
 8760TIP3    H250476   6.485   3.305   3.223 -0.3481  1.0418 -2.3280
 8761TIP3   OH250477   0.540   4.952   2.270 -0.8628 -0.1216 -0.3085
 8761TIP3    H150478   0.590   4.910   2.340 -0.1552 -0.5846 -1.0841
 8761TIP3    H250479   0.562   5.045   2.277  0.2025 -0.3299 -0.7065
 8762TIP3   OH250480   6.564   1.696   1.719 -0.1853 -0.1760  0.2907
 8762TIP3    H150481   6.635   1.724   1.776 -1.0714  1.2213  0.7642
 8762TIP3    H250482   6.535   1.612   1.756 -0.2563  0.3460  1.4755
 8763TIP3   OH250483   5.506   1.853   2.429  0.1734  0.0688  0.3555
 8763TIP3    H150484   5.547   1.767   2.421 -0.9253 -0.6112  1.4814
 8763TIP3    H250485   5.422   1.844   2.385  0.2993  0.7645 -0.0450
 8764TIP3   OH250486   3.845   6.009   8.284 -0.1670 -0.0439 -0.6862
 8764TIP3    H150487   3.912   6.067   8.321 -2.3956  1.8563  0.7138
 8764TIP3    H250488   3.831   5.943   8.352 -1.3299  0.9894  0.1272
 8765TIP3   OH250489   3.849   0.272   3.105 -0.5497 -0.0313 -0.1567
 8765TIP3    H150490   3.786   0.221   3.055  0.0766 -0.1547 -0.8384
 8765TIP3    H250491   3.895   0.208   3.159 -1.5807  0.1644  1.0040
 8766TIP3   OH250492   5.787   2.125   2.766  0.3923  0.4919 -0.6176
 8766TIP3    H150493   5.700   2.088   2.782  1.2961 -1.5004 -0.0205
 8766TIP3    H250494   5.807   2.173   2.847 -0.3742  1.4941 -0.9998
 8767TIP3   OH250495   1.435   1.975   1.531 -0.2326  0.0240 -0.5355
 8767TIP3    H150496   1.452   1.955   1.624  0.9734  0.1397 -0.7165
 8767TIP3    H250497   1.440   1.890   1.488  1.4991  0.2215 -0.8056
 8768TIP3   OH250498   0.972   1.199   1.644  0.5386 -0.1111 -0.2160
 8768TIP3    H150499   0.995   1.116   1.603  0.0318  0.0193 -0.7701
 8768TIP3    H250500   0.877   1.198   1.649  0.4478  0.9391 -1.3116
 8769TIP3   OH250501   3.020   0.218   2.136 -0.4341  0.1989 -0.3661
 8769TIP3    H150502   3.019   0.193   2.229  0.3776 -1.1880 -0.7076
 8769TIP3    H250503   2.932   0.252   2.119 -0.4487  0.9325  1.0209
 8770TIP3   OH250504   3.259   3.342   0.658  0.0235  0.1366  0.5031
 8770TIP3    H150505   3.348   3.379   0.659 -0.2148  0.7177  1.4220
 8770TIP3    H250506   3.203   3.415   0.684 -0.7078 -0.2779  0.0919
 8771TIP3   OH250507   6.010   6.732   2.440 -0.0475 -0.1439 -0.2763
 8771TIP3    H150508   6.040   6.663   2.380 -0.8228 -0.0887 -0.7378
 8771TIP3    H250509   6.080   6.797   2.439  0.2179 -0.4305 -0.6540
 8772TIP3   OH250510   6.681   0.229   1.048  0.2501 -0.3462  0.7331
 8772TIP3    H150511   6.588   0.223   1.068  0.0404 -0.6869 -0.2506
 8772TIP3    H250512   6.698   0.152   0.992  0.5313  1.0377 -1.1874
 8773TIP3   OH250513   1.330   3.341   2.113 -0.1511 -0.1165  0.0996
 8773TIP3    H150514   1.416   3.383   2.110 -0.5508  0.6616 -0.7386
 8773TIP3    H250515   1.275   3.401   2.162  0.1394 -1.3570  2.0860
 8774TIP3   OH250516   3.567   2.203   2.272  0.2330 -0.3574 -0.5110
 8774TIP3    H150517   3.578   2.280   2.328  2.0506 -1.5503  0.9044
 8774TIP3    H250518   3.499   2.151   2.315 -0.5409  0.1262 -1.1206
 8775TIP3   OH250519   0.340   6.369   2.001  0.7168  0.5888 -0.1986
 8775TIP3    H150520   0.416   6.368   2.059  1.0514  2.0862 -0.5463
 8775TIP3    H250521   0.361   6.436   1.936 -0.9018  1.0453 -0.3067
 8776TIP3   OH250522   7.614   5.965   8.422 -0.6405 -0.1625 -0.1184
 8776TIP3    H150523   7.592   6.056   8.443  0.7957  0.4115 -0.9703
 8776TIP3    H250524   7.564   5.946   8.343 -0.9502 -0.1221  0.0678
 8777TIP3   OH250525   1.483   0.418   0.663 -0.6064  0.4616 -1.3617
 8777TIP3    H150526   1.436   0.454   0.738  1.6467  1.6210 -0.3988
 8777TIP3    H250527   1.552   0.364   0.701  0.1426  0.4934 -2.6044
 8778TIP3   OH250528   6.656   7.678   0.903 -0.1853  0.1282 -0.0864
 8778TIP3    H150529   6.645   7.620   0.979  0.0015  0.8722  0.5216
 8778TIP3    H250530   6.626   7.626   0.828 -0.4810 -0.5763  0.5115
 8779TIP3   OH250531   5.687   1.197   0.489 -0.4250  0.1621 -0.1896
 8779TIP3    H150532   5.661   1.105   0.479  1.4809 -0.6877  1.8326
 8779TIP3    H250533   5.606   1.246   0.475 -1.5463 -1.8109 -1.1375
 8780TIP3   OH250534   7.519   2.529   2.460  0.3798 -0.2703  0.1853
 8780TIP3    H150535   7.462   2.466   2.504  0.6968 -1.8781 -1.5773
 8780TIP3    H250536   7.462   2.602   2.437 -0.8441 -1.5454 -0.9541
 8781TIP3   OH250537   1.871   5.224   3.402 -0.0296 -0.1398 -0.8717
 8781TIP3    H150538   1.872   5.320   3.395 -0.9123  0.0142  0.7323
 8781TIP3    H250539   1.851   5.207   3.494 -1.8704 -1.8688 -1.5348
 8782TIP3   OH250540   6.934   5.683   3.133  0.0869 -0.0495 -0.3948
 8782TIP3    H150541   7.025   5.712   3.136  0.1018 -0.1398  0.1082
 8782TIP3    H250542   6.918   5.664   3.041  0.5952 -0.0813 -0.4788
 8783TIP3   OH250543   4.298   0.631   1.504  0.1949 -0.3761 -0.0262
 8783TIP3    H150544   4.215   0.659   1.543  0.2090 -1.2399  0.6711
 8783TIP3    H250545   4.272   0.576   1.430  0.1415 -0.3609 -0.0189
 8784TIP3   OH250546   4.841   2.353   0.690 -0.8729  0.7961 -0.0837
 8784TIP3    H150547   4.811   2.435   0.650 -1.7000  1.3766  1.6220
 8784TIP3    H250548   4.825   2.365   0.784  1.3881 -0.3147  0.5223
 8785TIP3   OH250549   6.744   7.229   1.737  0.4180  0.5052 -0.0138
 8785TIP3    H150550   6.753   7.311   1.688 -1.0212  0.8181  0.1945
 8785TIP3    H250551   6.787   7.164   1.682 -1.4504  0.7810 -1.9302
 8786TIP3   OH250552   1.822   1.479   1.276  0.2263  0.5747 -0.5263
 8786TIP3    H150553   1.774   1.453   1.354  0.3889  0.2132 -0.5463
 8786TIP3    H250554   1.903   1.517   1.309  0.5038 -0.0060 -0.5299
 8787TIP3   OH250555   6.554   5.760   1.373  0.1241  0.0280  0.5211
 8787TIP3    H150556   6.602   5.816   1.312  0.6114  1.8882  2.4519
 8787TIP3    H250557   6.545   5.676   1.328  2.4838  0.5730 -1.1321
 8788TIP3   OH250558   6.995   5.946   0.916 -0.2391  0.6260 -0.0063
 8788TIP3    H150559   6.985   5.920   1.007  1.9210 -2.9445 -0.5593
 8788TIP3    H250560   6.934   5.889   0.868  1.6113 -0.6271 -1.0110
 8789TIP3   OH250561   5.773   4.624   1.028 -0.1706  0.5453 -0.5864
 8789TIP3    H150562   5.711   4.566   0.983 -0.4234  0.9674 -0.7920
 8789TIP3    H250563   5.721   4.702   1.050 -0.1377  0.2177  0.7483
 8790TIP3   OH250564   3.246   0.343   2.574 -0.0184 -0.7397  0.2061
 8790TIP3    H150565   3.192   0.274   2.535  1.7762 -2.2663  0.2398
 8790TIP3    H250566   3.263   0.312   2.663  2.0162 -1.0717 -0.2373
 8791TIP3   OH250567   5.917   6.848   1.217 -0.0709 -0.9157 -0.6940
 8791TIP3    H150568   6.012   6.863   1.220 -0.0998 -0.8205 -0.2164
 8791TIP3    H250569   5.887   6.903   1.145  0.0865 -0.0830 -0.1395
 8792TIP3   OH250570   5.107   3.006   0.866 -0.2635  0.3652 -0.3276
 8792TIP3    H150571   5.193   3.004   0.825  0.1063  1.5969  0.3175
 8792TIP3    H250572   5.102   2.926   0.918  1.4182  1.2945  1.3742
 8793TIP3   OH250573   0.997   5.961   0.377 -0.2212 -0.4244  0.0795
 8793TIP3    H150574   1.008   6.044   0.423  0.0401 -0.5606  0.2622
 8793TIP3    H250575   1.019   5.894   0.441  0.7476 -0.5975 -0.4132
 8794TIP3   OH250576   7.496   6.132   2.499 -0.3979  0.0081 -0.4546
 8794TIP3    H150577   7.564   6.184   2.543  0.0299 -0.5335 -0.4579
 8794TIP3    H250578   7.503   6.157   2.407 -0.8525  0.6603 -0.3207
 8795TIP3   OH250579   1.579   0.248   0.867  0.1228  0.4960 -0.0623
 8795TIP3    H150580   1.535   0.163   0.870  1.3614 -0.1403  0.6732
 8795TIP3    H250581   1.608   0.263   0.957  1.5161  0.8390 -0.5557
 8796TIP3   OH250582   5.431   7.005   3.038  0.4975  0.3742  0.1662
 8796TIP3    H150583   5.424   6.975   2.947  0.7499 -0.1626  0.3223
 8796TIP3    H250584   5.416   7.099   3.033 -1.2095  0.1096 -0.2235
 8797TIP3   OH250585   3.799   5.576   2.314  0.3606  0.1000  0.3503
 8797TIP3    H150586   3.774   5.509   2.250 -0.1006 -0.7900  1.4346
 8797TIP3    H250587   3.769   5.658   2.275 -0.9976 -0.5500 -0.0555
 8798TIP3   OH250588   5.361   6.283   2.417 -0.3938  0.0482  0.0875
 8798TIP3    H150589   5.341   6.263   2.509  0.0162  0.8333  0.3516
 8798TIP3    H250590   5.353   6.378   2.410  3.5945  0.5783  0.3602
 8799TIP3   OH250591   7.443   1.011   2.565  0.2092 -0.0209 -0.1854
 8799TIP3    H150592   7.482   1.092   2.598 -1.3440  0.7532 -0.1785
 8799TIP3    H250593   7.390   0.978   2.637 -1.1798  0.3298 -1.0138
 8800TIP3   OH250594   1.915   2.506   1.475  0.2357 -0.5089 -0.4919
 8800TIP3    H150595   1.892   2.513   1.382 -0.5939 -0.4603 -0.2863
 8800TIP3    H250596   1.954   2.590   1.496 -0.9694  0.0541 -0.4274
 8801TIP3   OH250597   3.427   4.200   3.083  0.3374 -0.0222  0.1207
 8801TIP3    H150598   3.441   4.135   3.151  1.6821 -0.3262 -0.4221
 8801TIP3    H250599   3.425   4.150   3.001 -1.0767  0.3557 -0.0999
 8802TIP3   OH250600   6.030   6.255   2.382 -0.1399 -0.1651  0.1506
 8802TIP3    H150601   6.079   6.312   2.441 -0.8339 -0.8339  1.4128
 8802TIP3    H250602   5.938   6.272   2.403 -0.4554  0.3986 -1.5387
 8803TIP3   OH250603   3.370   6.801   2.128 -0.0315 -0.2225 -0.1316
 8803TIP3    H150604   3.399   6.711   2.113  0.3941 -0.1620  0.3052
 8803TIP3    H250605   3.276   6.799   2.110 -0.0098 -0.7329 -0.2131
 8804TIP3   OH250606   5.165   5.204   1.357  0.1845 -0.1567 -0.2274
 8804TIP3    H150607   5.125   5.181   1.273 -1.9132  0.3007  0.5794
 8804TIP3    H250608   5.259   5.196   1.342 -0.1791 -4.3483 -1.3973
 8805TIP3   OH250609   1.198   3.186   1.574  0.0993  0.0063  0.2935
 8805TIP3    H150610   1.202   3.219   1.664 -0.8943 -0.0037  0.3524
 8805TIP3    H250611   1.208   3.091   1.584  0.2072  0.0257  0.3736
 8806TIP3   OH250612   6.439   5.209   1.718 -0.2034 -0.4360  0.0533
 8806TIP3    H150613   6.392   5.170   1.792  0.2231 -0.2210  0.4442
 8806TIP3    H250614   6.421   5.151   1.644  0.0529 -1.1214  0.5215
 8807TIP3   OH250615   4.121   0.509   1.219  0.0315 -0.2030  0.3097
 8807TIP3    H150616   4.068   0.452   1.274 -0.1649 -1.3633 -1.0161
 8807TIP3    H250617   4.194   0.453   1.190  0.5622  0.6103  0.0306
 8808TIP3   OH250618   1.594   6.310   1.969 -1.0751  0.1974  0.3405
 8808TIP3    H150619   1.581   6.299   1.875 -0.3551 -1.6477  0.4199
 8808TIP3    H250620   1.575   6.403   1.985 -0.3360  0.7605 -1.7497
 8809TIP3   OH250621   1.912   1.077   2.875 -0.2462 -0.0705  0.3556
 8809TIP3    H150622   1.991   1.025   2.855 -0.8880 -0.9142 -0.0583
 8809TIP3    H250623   1.879   1.039   2.956  0.3277  0.9711  1.1106
 8810TIP3   OH250624   0.801   0.020   0.647  0.1088  0.0368  0.2851
 8810TIP3    H150625   0.705   0.022   0.651  0.0694 -1.7218  0.6950
 8810TIP3    H250626   0.829   0.010   0.738  0.6520 -0.2693  0.0871
 8811TIP3   OH250627   5.891   1.846   2.799  0.0786  0.3781  0.1534
 8811TIP3    H150628   5.944   1.874   2.873  1.1462  0.8745 -0.7527
 8811TIP3    H250629   5.843   1.925   2.773  1.3753  0.8223 -1.0091
 8812TIP3   OH250630   5.164   1.383   0.508  0.5284  0.0201  0.0299
 8812TIP3    H150631   5.072   1.366   0.491 -0.1067  1.0896  2.0122
 8812TIP3    H250632   5.166   1.474   0.539  2.4134  0.4006 -1.0635
 8813TIP3   OH250633   2.650   0.038   2.277 -0.3660  0.8966 -0.1603
 8813TIP3    H150634   2.645  -0.029   2.208 -0.8590 -0.0375  0.7506
 8813TIP3    H250635   2.651   0.121   2.230 -1.0676  0.2949 -1.2759
 8814TIP3   OH250636   7.174   4.571   1.521  0.4936  1.0194 -0.0942
 8814TIP3    H150637   7.122   4.573   1.602  1.2319  1.1691  0.3845
 8814TIP3    H250638   7.144   4.492   1.476 -2.9540  3.0184 -1.7311
 8815TIP3   OH250639   4.249   2.616   1.082  0.3033  0.0860  0.1960
 8815TIP3    H150640   4.214   2.670   1.011 -0.2364  0.1880  0.5324
 8815TIP3    H250641   4.180   2.617   1.149  0.3158 -0.9569  0.2416
 8816TIP3   OH250642   2.805   1.674   1.128  0.2088 -0.2581  0.0205
 8816TIP3    H150643   2.847   1.759   1.113  0.3248 -0.3456 -0.1549
 8816TIP3    H250644   2.839   1.645   1.212  3.9123 -2.3040 -1.9043
 8817TIP3   OH250645   0.154   7.000   0.557 -0.8109  0.1626 -0.4156
 8817TIP3    H150646   0.095   7.069   0.586  0.5385  0.8864  0.7661
 8817TIP3    H250647   0.097   6.926   0.536 -2.2665  1.4768 -1.3241
 8818TIP3   OH250648   5.494   2.258   2.281 -0.1208 -0.2297  0.1744
 8818TIP3    H150649   5.526   2.210   2.204 -1.0405  0.9116 -0.9578
 8818TIP3    H250650   5.544   2.222   2.354  0.0160 -2.1175 -0.7854
 8819TIP3   OH250651   4.579   3.095   1.404 -0.3654  0.0603  0.3372
 8819TIP3    H150652   4.591   3.074   1.311 -0.2250  0.2171  0.3201
 8819TIP3    H250653   4.489   3.068   1.423 -0.0949 -0.8311  0.3946
 8820TIP3   OH250654   2.899   0.522   3.003  0.0053 -0.2505 -0.0944
 8820TIP3    H150655   2.915   0.529   3.097 -0.4486 -0.0126 -0.0336
 8820TIP3    H250656   2.914   0.610   2.970 -1.9262  0.1801  0.0849
 8821TIP3   OH250657   5.236   2.999   1.166  0.9330 -0.1247 -0.5105
 8821TIP3    H150658   5.270   3.020   1.253 -0.5510 -0.4042  0.1624
 8821TIP3    H250659   5.272   2.912   1.146  2.3284  0.4800 -0.7720
 8822TIP3   OH250660   2.553   1.104   1.735  0.3722  0.0074  0.3304
 8822TIP3    H150661   2.538   1.060   1.819  0.5235  0.3076  0.5171
 8822TIP3    H250662   2.580   1.034   1.676  0.4874 -0.1725  0.5914
 8823TIP3   OH250663   3.248   5.159   2.268 -0.1516  0.1960 -1.0518
 8823TIP3    H150664   3.176   5.223   2.268 -0.8005 -0.4669  0.6380
 8823TIP3    H250665   3.211   5.082   2.225 -0.1006  0.2276 -1.1510
 8824TIP3   OH250666   7.588   0.267   1.318  0.0868 -0.1036  0.8974
 8824TIP3    H150667   7.674   0.282   1.356 -0.3858 -1.7817  2.7659
 8824TIP3    H250668   7.599   0.191   1.261 -0.0195  0.1705  0.4988
 8825TIP3   OH250669   5.120   3.896   1.223 -0.1232  0.6293  0.5160
 8825TIP3    H150670   5.112   3.801   1.211  0.0882  0.5694  0.8428
 8825TIP3    H250671   5.132   3.907   1.317  0.0601  0.9635  0.4537
 8826TIP3   OH250672   2.257   0.335   1.155  0.2293  0.3954 -0.3283
 8826TIP3    H150673   2.190   0.282   1.112  0.7698 -0.4430 -0.1692
 8826TIP3    H250674   2.237   0.425   1.129 -1.1551  0.2070 -0.0068
 8827TIP3   OH250675   2.305   0.890   1.412  0.3507 -0.2335  0.3586
 8827TIP3    H150676   2.221   0.927   1.437  0.2780 -0.9139  1.1568
 8827TIP3    H250677   2.326   0.932   1.329 -0.0468  1.0919  0.9019
 8828TIP3   OH250678   1.659   1.666   1.161  0.2098 -0.0913  0.4575
 8828TIP3    H150679   1.719   1.606   1.205  0.5851 -0.9755 -1.1739
 8828TIP3    H250680   1.573   1.647   1.198  0.6265 -0.2688  1.3380
 8829TIP3   OH250681   1.488   1.977   2.706 -0.0483  0.5268  0.2395
 8829TIP3    H150682   1.544   1.909   2.744 -1.1157  0.0004  0.8934
 8829TIP3    H250683   1.433   2.006   2.778 -1.8064 -0.1728 -0.7656
 8830TIP3   OH250684   2.279   1.615   3.064  0.0361  0.0577 -0.9499
 8830TIP3    H150685   2.345   1.680   3.039 -0.6283  0.9272 -0.4658
 8830TIP3    H250686   2.311   1.533   3.026  0.6336  0.7513 -1.9795
 8831TIP3   OH250687   4.032   7.248   2.236  0.1122  0.0392 -0.3504
 8831TIP3    H150688   4.120   7.266   2.269 -0.2747  0.3165  0.5627
 8831TIP3    H250689   4.046   7.205   2.151  1.1311 -0.4974  0.0741
 8832TIP3   OH250690   4.433   5.699   3.152  0.1725 -0.1555  0.1852
 8832TIP3    H150691   4.490   5.771   3.179  1.2506 -1.7605  2.4756
 8832TIP3    H250692   4.352   5.713   3.201 -0.0502  0.0998 -0.2480
 8833TIP3   OH250693   5.893   4.808   1.238  0.2131  0.2853 -0.3167
 8833TIP3    H150694   5.914   4.788   1.147 -2.0236 -0.8261 -0.6455
 8833TIP3    H250695   5.878   4.723   1.279  1.3538  0.7558  1.1784
 8834TIP3   OH250696   3.593   2.475   1.865 -0.1576 -0.0672 -0.5463
 8834TIP3    H150697   3.638   2.393   1.884  0.8807  0.4362 -0.7630
 8834TIP3    H250698   3.500   2.456   1.881  0.0402 -1.3323 -0.7961
 8835TIP3   OH250699   2.507   6.500   2.213 -0.1057  0.0650  0.3438
 8835TIP3    H150700   2.589   6.508   2.164 -0.8940  0.8442 -0.8726
 8835TIP3    H250701   2.508   6.575   2.273  0.9133 -0.9548  1.6701
 8836TIP3   OH250702   7.205   3.823   2.087  0.1681  0.3301 -0.0299
 8836TIP3    H150703   7.272   3.759   2.063 -0.3883  0.8480 -3.4408
 8836TIP3    H250704   7.248   3.908   2.077 -0.6098  0.6272 -0.9683
 8837TIP3   OH250705   3.749   3.231   1.977 -0.3660  0.0020  0.0894
 8837TIP3    H150706   3.826   3.215   1.922  0.6206 -3.2387  2.1245
 8837TIP3    H250707   3.677   3.190   1.930  0.0286 -0.7198  0.0900
 8838TIP3   OH250708   4.042   0.423   1.827 -0.1143  0.2654  0.2406
 8838TIP3    H150709   4.040   0.493   1.762  2.2963 -0.7684 -1.0882
 8838TIP3    H250710   4.103   0.454   1.894  0.7009 -0.3822 -0.1846
 8839TIP3   OH250711   0.928   5.742   1.603 -0.6486  0.1542 -0.0104
 8839TIP3    H150712   0.874   5.734   1.682 -0.5405  0.8670  0.1412
 8839TIP3    H250713   0.882   5.806   1.549 -0.2244  0.3763 -0.1086
 8840TIP3   OH250714   2.276   5.915   2.871  0.1223  0.0189 -0.1691
 8840TIP3    H150715   2.247   5.902   2.781 -0.3753 -0.7804  0.0940
 8840TIP3    H250716   2.261   6.008   2.887  1.8624  0.5766 -1.4512
 8841TIP3   OH250717   3.651   0.718   1.566 -0.6944  0.2842  0.5581
 8841TIP3    H150718   3.713   0.790   1.572 -1.8664  1.4542 -0.8192
 8841TIP3    H250719   3.590   0.732   1.639  0.1670 -0.4150  1.4307
 8842TIP3   OH250720   1.426   3.670   1.660 -0.2243 -0.0816  0.3061
 8842TIP3    H150721   1.475   3.734   1.607 -0.2584 -0.2289  0.0940
 8842TIP3    H250722   1.376   3.619   1.596  0.3593 -0.8011  0.4106
 8843TIP3   OH250723   6.151   4.754   2.632 -0.3541  0.5893 -0.8793
 8843TIP3    H150724   6.193   4.826   2.586  0.3273  0.5480 -0.3378
 8843TIP3    H250725   6.143   4.785   2.723 -1.6994  0.6851 -1.0008
 8844TIP3   OH250726   3.766   0.813   0.977  0.6450  0.7620  0.5221
 8844TIP3    H150727   3.687   0.839   0.930  0.9862  0.5764 -0.1723
 8844TIP3    H250728   3.751   0.842   1.067 -0.1846  0.7752  0.3875
 8845TIP3   OH250729   0.398   6.952   1.843 -0.5706  0.1399 -0.3122
 8845TIP3    H150730   0.412   6.868   1.799  0.5212 -0.3764  0.9564
 8845TIP3    H250731   0.336   6.933   1.913 -2.1038  0.9077 -1.3876
 8846TIP3   OH250732   1.762   1.588   0.538  0.0726 -0.3275 -0.4286
 8846TIP3    H150733   1.829   1.598   0.606  0.8349  0.4957 -1.2643
 8846TIP3    H250734   1.804   1.621   0.459 -1.3852  0.3784 -0.9463
 8847TIP3   OH250735   2.325   6.713   2.565  0.6168  0.1925 -0.1190
 8847TIP3    H150736   2.288   6.641   2.514 -0.8623  1.4645 -0.9408
 8847TIP3    H250737   2.331   6.786   2.503  0.7596  1.1810  1.0095
 8848TIP3   OH250738   3.248   3.388   1.726  0.0682 -0.3820  0.2940
 8848TIP3    H150739   3.309   3.441   1.778  1.2012  0.8662 -2.1542
 8848TIP3    H250740   3.162   3.422   1.749  0.6218  1.0080  0.4416
 8849TIP3   OH250741   5.593   1.371   3.360  0.4316 -0.0101  0.0827
 8849TIP3    H150742   5.664   1.309   3.344  2.9345  2.0337  2.2941
 8849TIP3    H250743   5.556   1.344   3.444  0.6223  0.6691  0.3886
 8850TIP3   OH250744   6.012   2.714   1.184  0.4928 -0.0261 -0.3876
 8850TIP3    H150745   6.018   2.809   1.195  2.7088  0.0756 -1.8303
 8850TIP3    H250746   6.071   2.678   1.250 -0.1092 -0.4166 -0.0453
 8851TIP3   OH250747   6.202   0.136   1.591 -0.4816 -0.7760 -0.4270
 8851TIP3    H150748   6.146   0.166   1.663 -1.2187 -0.8913 -0.9356
 8851TIP3    H250749   6.290   0.133   1.628 -0.7164  0.0047  0.2202
 8852TIP3   OH250750   3.040   6.584   2.957 -0.4575 -0.2799  0.5573
 8852TIP3    H150751   3.015   6.643   2.886  0.3400  0.0596  0.5486
 8852TIP3    H250752   3.120   6.541   2.925  0.4090  0.5160  1.5862
 8853TIP3   OH250753   3.204   1.508   0.960 -0.3037  0.1535 -0.0395
 8853TIP3    H150754   3.116   1.494   0.925 -0.7726  0.7792  0.8426
 8853TIP3    H250755   3.258   1.529   0.884 -0.4251 -2.2953 -0.8833
 8854TIP3   OH250756   1.240   5.032   1.097 -0.3279  0.1702 -0.1107
 8854TIP3    H150757   1.303   4.992   1.037 -1.6641 -0.3708 -1.2089
 8854TIP3    H250758   1.266   5.123   1.103  2.4553 -0.6241  1.9922
 8855TIP3   OH250759   3.616   3.042   2.462  0.5823  0.3147 -0.0587
 8855TIP3    H150760   3.555   3.114   2.451 -0.9244 -0.6298  1.6486
 8855TIP3    H250761   3.612   2.994   2.379 -0.7193  0.4800 -0.1055
 8856TIP3   OH250762   5.912   4.082   0.835  0.2007  0.2160 -0.2898
 8856TIP3    H150763   5.994   4.037   0.858  0.0036  0.9249  2.1083
 8856TIP3    H250764   5.935   4.175   0.833 -0.2250  0.3105 -1.2240
 8857TIP3   OH250765   7.637   0.040   0.529 -0.2037  0.1589  0.2470
 8857TIP3    H150766   7.675   0.099   0.595 -1.8952 -0.0084  1.4328
 8857TIP3    H250767   7.575   0.094   0.481 -1.4010 -0.4938  1.0095
 8858TIP3   OH250768   6.387   3.165   3.142  0.1355  0.4455 -0.0637
 8858TIP3    H150769   6.336   3.226   3.089 -0.7629 -0.2739 -0.0563
 8858TIP3    H250770   6.423   3.102   3.078 -1.6632 -0.9380  0.2086
 8859TIP3   OH250771   5.212   7.545   0.757 -0.0812  0.1010 -0.1478
 8859TIP3    H150772   5.273   7.552   0.684  1.0451  2.0197  0.8951
 8859TIP3    H250773   5.268   7.534   0.834 -1.1988 -1.0077  0.5457
 8860TIP3   OH250774   1.785   2.739   0.938  0.1716  0.3566  0.6741
 8860TIP3    H150775   1.742   2.659   0.911  0.4956 -0.0925  1.4534
 8860TIP3    H250776   1.790   2.792   0.858 -0.4254 -0.2161  0.2506
 8861TIP3   OH250777   7.019   2.996   1.282  0.7749  0.3304  0.1544
 8861TIP3    H150778   7.060   3.069   1.328  0.2087 -0.3306  1.7752
 8861TIP3    H250779   6.926   3.006   1.300  0.7213 -0.9680  0.6805
 8862TIP3   OH250780   0.161   6.056   1.395  0.5603 -0.0677 -0.8105
 8862TIP3    H150781   0.229   6.089   1.455  0.3211  0.6201 -0.9067
 8862TIP3    H250782   0.154   5.963   1.415  1.2872 -0.0779 -0.5552
 8863TIP3   OH250783   7.348   0.551   2.285  0.3592  0.3524 -0.3880
 8863TIP3    H150784   7.401   0.553   2.205  1.1351 -1.5525  0.0158
 8863TIP3    H250785   7.386   0.618   2.341 -0.3892  1.9214 -1.7010
 8864TIP3   OH250786   3.011   2.497   2.090  0.1442 -0.1099 -0.0165
 8864TIP3    H150787   3.042   2.421   2.140  0.4440 -1.1012 -1.6258
 8864TIP3    H250788   3.090   2.547   2.071  0.1367 -0.1254 -0.0919
 8865TIP3   OH250789   3.871   5.190   1.769 -0.6585 -0.1123 -0.2108
 8865TIP3    H150790   3.860   5.242   1.848  1.6794 -0.7763  0.6180
 8865TIP3    H250791   3.783   5.157   1.750 -1.1293 -0.9315  2.8415
 8866TIP3   OH250792   5.498   3.423   1.568  0.0440 -0.3897  0.1551
 8866TIP3    H150793   5.589   3.437   1.596  0.8486 -1.1898 -1.8367
 8866TIP3    H250794   5.505   3.363   1.493 -2.0198  0.5849 -0.9094
 8867TIP3   OH250795   2.826   3.461   1.377  0.1246 -0.2592 -0.7440
 8867TIP3    H150796   2.840   3.367   1.368  1.2846 -0.1655 -0.1106
 8867TIP3    H250797   2.844   3.497   1.290  4.2842 -0.1423 -0.0048
 8868TIP3   OH250798   3.601   3.568   2.945  0.2908  0.5888 -0.5619
 8868TIP3    H150799   3.633   3.568   2.855 -0.7383  0.4710 -0.9399
 8868TIP3    H250800   3.598   3.476   2.970  1.2840  0.6546 -0.1259
 8869TIP3   OH250801   6.687   2.155   2.223  0.2545  0.0390  0.3561
 8869TIP3    H150802   6.757   2.221   2.220  0.4497 -0.1805 -0.2151
 8869TIP3    H250803   6.684   2.126   2.314 -0.3351  1.3618  0.7729
 8870TIP3   OH250804   5.917   2.429   1.353 -0.0969 -0.7522  0.3989
 8870TIP3    H150805   5.938   2.388   1.270 -3.1248 -1.8730  0.0706
 8870TIP3    H250806   5.961   2.375   1.419  1.8467 -0.1853 -0.3741
 8871TIP3   OH250807   6.774   4.109   0.694  0.0923  0.0060 -0.5511
 8871TIP3    H150808   6.736   4.065   0.771  0.9211 -0.0299 -0.1504
 8871TIP3    H250809   6.701   4.116   0.633 -1.2799  2.2780  1.1739
 8872TIP3   OH250810   6.201   2.972   2.052  0.4894  0.1649  0.3016
 8872TIP3    H150811   6.198   2.957   1.957 -0.5993  0.2370  0.3106
 8872TIP3    H250812   6.128   3.030   2.069  0.5573 -0.0064  1.2230
 8873TIP3   OH250813   5.744   6.405   1.118  0.2780 -0.3794 -0.1671
 8873TIP3    H150814   5.787   6.346   1.056  2.4458  1.8907 -0.9968
 8873TIP3    H250815   5.665   6.434   1.074  1.5961  0.9022 -1.8292
 8874TIP3   OH250816   4.420   5.576   2.897  0.3117 -0.0572  0.2049
 8874TIP3    H150817   4.396   5.628   2.974  1.8949  1.5579 -0.3099
 8874TIP3    H250818   4.504   5.536   2.920  1.2118  1.0911 -0.9086
 8875TIP3   OH250819   6.847   3.198   1.617 -0.2652 -0.3217  0.4343
 8875TIP3    H150820   6.885   3.111   1.632 -1.8306 -1.3814 -1.2570
 8875TIP3    H250821   6.895   3.231   1.541 -1.5969 -1.0212 -0.7631
 8876TIP3   OH250822   5.756   7.214   1.834  0.7961 -0.2543 -0.2309
 8876TIP3    H150823   5.673   7.175   1.806  0.8854 -1.5893  1.2498
 8876TIP3    H250824   5.735   7.306   1.849  0.3009  0.0987 -2.6885
 8877TIP3   OH250825   6.783   7.254   1.198  0.1182 -0.2394  0.2069
 8877TIP3    H150826   6.730   7.232   1.274  0.1263 -0.1045  0.2515
 8877TIP3    H250827   6.831   7.173   1.178  1.3627  0.1813  1.3504
 8878TIP3   OH250828   2.717   3.113   2.546  0.4217 -0.6197  0.5176
 8878TIP3    H150829   2.748   3.038   2.495  0.6468 -0.3863  0.3088
 8878TIP3    H250830   2.784   3.127   2.613  0.6474 -0.2752  0.2250
 8879TIP3   OH250831   0.568   3.317   1.321  0.2000  0.6052 -0.1607
 8879TIP3    H150832   0.573   3.397   1.373 -0.3166  0.3052  0.3552
 8879TIP3    H250833   0.588   3.247   1.383 -1.0958  0.1859 -0.1903
 8880TIP3   OH250834   1.415   3.679   1.326  0.4060 -0.1755 -0.4757
 8880TIP3    H150835   1.371   3.604   1.365 -1.7386  1.1371 -0.2238
 8880TIP3    H250836   1.473   3.641   1.259 -1.7587 -1.9896 -1.4256
 8881TIP3   OH250837   2.758   5.699   2.305 -0.2000 -0.1765  0.3210
 8881TIP3    H150838   2.723   5.782   2.274 -0.4597 -0.3779  0.0729
 8881TIP3    H250839   2.755   5.706   2.401 -0.8148 -0.1460  0.3034
 8882TIP3   OH250840   5.031   5.856   2.837  0.8554 -0.1739 -0.0297
 8882TIP3    H150841   5.019   5.776   2.786  0.1620 -0.4225  0.5025
 8882TIP3    H250842   4.965   5.916   2.803 -0.6521 -0.8500  1.5424
 8883TIP3   OH250843   1.043   7.534   1.280  0.3438 -0.1771  0.3924
 8883TIP3    H150844   0.977   7.603   1.288 -0.4501 -0.7973 -0.5703
 8883TIP3    H250845   0.993   7.455   1.262  1.3657 -0.5833 -0.8187
 8884TIP3   OH250846   1.900   6.741   2.648 -0.2843  0.3391  0.1044
 8884TIP3    H150847   1.821   6.695   2.619 -1.0315  2.1747 -0.9042
 8884TIP3    H250848   1.928   6.792   2.572  1.0247  0.8712  0.9057
 8885TIP3   OH250849   5.298   2.549   1.648  0.3875  0.1512  0.2490
 8885TIP3    H150850   5.265   2.542   1.737 -1.9485 -0.8773 -0.5985
 8885TIP3    H250851   5.376   2.495   1.646  0.2981 -0.0460  1.6061
 8886TIP3   OH250852   1.104   7.410   2.498 -0.0603 -0.1768 -0.0901
 8886TIP3    H150853   1.065   7.414   2.410 -0.6280  0.6274  0.1884
 8886TIP3    H250854   1.049   7.467   2.551  1.3917  0.8626  0.3632
 8887TIP3   OH250855   2.842   7.244   2.777 -0.3722  0.3375 -0.3788
 8887TIP3    H150856   2.791   7.178   2.823 -1.0360  0.7150 -0.5608
 8887TIP3    H250857   2.890   7.290   2.847 -1.1969  0.7583 -0.0805
 8888TIP3   OH250858   6.325   3.482   1.634  0.0549 -0.0820 -0.1419
 8888TIP3    H150859   6.336   3.400   1.683 -3.2052 -0.5388  0.0651
 8888TIP3    H250860   6.312   3.454   1.543 -1.5758  0.0989  0.0061
 8889TIP3   OH250861   0.028   6.340   0.612 -0.2934  0.0008  0.0065
 8889TIP3    H150862  -0.041   6.337   0.679 -2.7138  1.5906 -2.2173
 8889TIP3    H250863   0.039   6.250   0.584 -2.7485 -0.1564 -0.7017
 8890TIP3   OH250864   0.382   5.336   1.285 -0.2122 -0.5470  0.4564
 8890TIP3    H150865   0.317   5.343   1.355 -0.7896 -0.2855 -0.0847
 8890TIP3    H250866   0.431   5.257   1.306 -1.1855 -1.1633  0.5118
 8891TIP3   OH250867   5.081   7.411   1.646  0.1441 -0.0821 -0.4183
 8891TIP3    H150868   5.098   7.368   1.730  1.0179  1.0432  0.0123
 8891TIP3    H250869   5.067   7.340   1.584  1.9308 -1.0076  0.1819
 8892TIP3   OH250870   3.370   7.098   3.293  0.0901 -0.0380 -0.4600
 8892TIP3    H150871   3.384   7.054   3.377  1.8063  1.4134  0.0693
 8892TIP3    H250872   3.280   7.076   3.269 -0.3488 -0.7127  1.6214
 8893TIP3   OH250873   5.218   1.311   0.785 -0.2496 -0.1513  0.0190
 8893TIP3    H150874   5.126   1.336   0.778 -1.0801 -2.4959  1.6129
 8893TIP3    H250875   5.230   1.245   0.716  0.3600  0.3400 -0.3658
 8894TIP3   OH250876   0.171   0.289   2.760 -0.1659 -0.1374  0.6475
 8894TIP3    H150877   0.188   0.198   2.735 -1.0214 -0.4205  1.0564
 8894TIP3    H250878   0.075   0.296   2.759 -0.0969  0.8643  0.2475
 8895TIP3   OH250879   5.144   1.852   0.503  0.1447  0.1469  0.4547
 8895TIP3    H150880   5.093   1.915   0.452  1.1308  1.1715  0.7000
 8895TIP3    H250881   5.171   1.900   0.581 -1.0646 -1.2925  1.8289
 8896TIP3   OH250882   7.632   0.014   1.481  0.5511  0.0843  0.0957
 8896TIP3    H150883   7.642  -0.041   1.403 -0.0512 -1.5618  1.1433
 8896TIP3    H250884   7.554   0.067   1.463  0.7176  0.0887 -0.6298
 8897TIP3   OH250885   7.670   3.964   1.099  0.3706 -0.2853  0.5476
 8897TIP3    H150886   7.672   3.915   1.017 -3.2823 -0.7367  0.5532
 8897TIP3    H250887   7.725   4.041   1.083  1.4873 -1.4281 -1.5153
 8898TIP3   OH250888   4.006   4.952   2.356 -0.1967  0.0578 -0.4723
 8898TIP3    H150889   3.989   4.998   2.273 -0.5822 -0.0728 -0.4691
 8898TIP3    H250890   4.045   4.868   2.329  1.1981  0.6758 -0.4465
 8899TIP3   OH250891   2.603   5.327   0.531 -0.6256 -0.1091  0.2768
 8899TIP3    H150892   2.670   5.298   0.469 -1.7774 -0.9338 -0.6271
 8899TIP3    H250893   2.575   5.412   0.497 -0.1788  0.1669  0.5719
 8900TIP3   OH250894   3.355   5.247   1.130  0.1626  0.7941 -0.0523
 8900TIP3    H150895   3.352   5.161   1.173 -1.2028  0.3049 -1.0320
 8900TIP3    H250896   3.358   5.310   1.201 -1.6676  0.0106  0.7802
 8901TIP3   OH250897   2.363   6.347   2.398  0.1067  0.3239 -0.3509
 8901TIP3    H150898   2.406   6.407   2.336 -2.5732  2.8484 -0.0021
 8901TIP3    H250899   2.417   6.352   2.477  0.5844  1.4007 -0.7196
 8902TIP3   OH250900   7.369   3.621   1.423 -0.0257 -0.0524 -0.5749
 8902TIP3    H150901   7.324   3.603   1.340  1.4357  0.0084 -1.4113
 8902TIP3    H250902   7.383   3.715   1.423 -0.9751  0.0931  0.2575
 8903TIP3   OH250903   0.921   1.613   2.361  0.1376 -0.9204 -0.2521
 8903TIP3    H150904   0.902   1.558   2.437  1.1213 -0.7328  0.1482
 8903TIP3    H250905   0.990   1.566   2.314 -0.2075 -0.8551 -0.8397
 8904TIP3   OH250906   3.736   0.378   1.261  0.1761 -0.4996  0.2484
 8904TIP3    H150907   3.668   0.352   1.324  0.5009  0.8220  1.1877
 8904TIP3    H250908   3.817   0.340   1.296  0.3314  0.1076  0.5698
 8905TIP3   OH250909   0.222   3.714   1.594  0.9276 -0.1526  0.2885
 8905TIP3    H150910   0.141   3.734   1.547 -0.1318 -1.8531  1.2865
 8905TIP3    H250911   0.286   3.694   1.526  0.2093  0.1346 -0.4815
 8906TIP3   OH250912   2.873   2.768   0.842  0.5405  0.0465 -0.6988
 8906TIP3    H150913   2.856   2.846   0.789 -0.7568  1.5630  1.7560
 8906TIP3    H250914   2.787   2.732   0.861  0.7900  0.5288  1.6627
 8907TIP3   OH250915   2.651   6.079   1.715  0.3960 -0.3156 -0.4471
 8907TIP3    H150916   2.630   6.111   1.803 -6.4528 -0.6806 -1.3730
 8907TIP3    H250917   2.639   5.984   1.720  0.1543 -0.3653 -1.7223
 8908TIP3   OH250918   5.708   3.843   1.135 -0.4703 -0.4988 -0.0058
 8908TIP3    H150919   5.749   3.835   1.050  1.4675 -0.0969  0.8380
 8908TIP3    H250920   5.698   3.753   1.166  1.1247 -0.5755  0.3565
 8909TIP3   OH250921   1.738   7.538   0.510 -0.3848 -0.2148 -0.4752
 8909TIP3    H150922   1.813   7.594   0.493 -0.4450 -0.1677 -0.5829
 8909TIP3    H250923   1.680   7.590   0.566  0.5323 -0.9227  1.2042
 8910TIP3   OH250924   3.231   5.839   1.317 -0.2488  0.0294  0.1054
 8910TIP3    H150925   3.287   5.898   1.266 -0.7349  1.2171  0.8935
 8910TIP3    H250926   3.142   5.865   1.295 -0.4732 -0.5176  0.3510
 8911TIP3   OH250927   3.646   3.093   0.609  0.4703 -0.2977  0.1554
 8911TIP3    H150928   3.631   3.006   0.572 -0.1318 -0.4906  0.8357
 8911TIP3    H250929   3.727   3.084   0.659 -0.0374 -0.7018  0.9205
 8912TIP3   OH250930   3.420   4.498   1.959  0.0129  0.0602 -0.3448
 8912TIP3    H150931   3.385   4.446   1.886  1.9989  1.6558 -2.5986
 8912TIP3    H250932   3.443   4.582   1.919  2.6861  0.4477  1.7592
 8913TIP3   OH250933   5.994   3.319   2.491 -0.1062  0.3663  0.4913
 8913TIP3    H150934   5.916   3.324   2.436 -0.5480 -2.4821  0.7099
 8913TIP3    H250935   6.021   3.411   2.504 -2.5887  1.3420 -0.7125
 8914TIP3   OH250936   4.478   2.377   2.228 -0.5599  0.3776 -0.3930
 8914TIP3    H150937   4.392   2.334   2.221 -1.4639  1.6515  1.8848
 8914TIP3    H250938   4.457   2.469   2.243  1.3150  1.4003 -3.2075
 8915TIP3   OH250939   5.810   0.306   1.049 -0.3602 -0.7224  0.1986
 8915TIP3    H150940   5.899   0.339   1.035 -0.4125 -0.6460  0.0333
 8915TIP3    H250941   5.758   0.352   0.983 -0.3748 -1.4055 -0.2695
 8916TIP3   OH250942   6.490   7.323   3.229  0.1078  0.2195  0.1026
 8916TIP3    H150943   6.529   7.395   3.179 -1.9032  1.7220  0.5544
 8916TIP3    H250944   6.412   7.362   3.268  0.2497 -1.5935  2.3444
 8917TIP3   OH250945   7.379   1.942   2.990 -0.4580 -0.0761 -0.3261
 8917TIP3    H150946   7.384   1.959   2.896 -1.0035 -0.0606 -0.3584
 8917TIP3    H250947   7.470   1.933   3.019 -0.3039 -0.4195 -0.9167
 8918TIP3   OH250948   1.534   4.687   2.853 -0.2933  0.0042  0.2435
 8918TIP3    H150949   1.622   4.655   2.836  0.1475  1.7239 -0.9966
 8918TIP3    H250950   1.481   4.652   2.781 -0.7611 -1.3712  1.2106
 8919TIP3   OH250951   2.221   3.300   1.922  0.3985  0.3447  0.2563
 8919TIP3    H150952   2.227   3.217   1.969 -2.3710  0.1808  0.4649
 8919TIP3    H250953   2.254   3.280   1.834  0.1747 -0.8757  0.4330
 8920TIP3   OH250954   2.655   0.130   1.145  0.4213  0.7096 -0.1662
 8920TIP3    H150955   2.609   0.051   1.176  0.4693  0.8662  0.3123
 8920TIP3    H250956   2.740   0.126   1.188  0.2969  1.2029  0.1352
 8921TIP3   OH250957   1.623   6.103   1.484 -0.8465  0.3765  0.3479
 8921TIP3    H150958   1.587   6.017   1.464  1.1109 -0.6646  1.0534
 8921TIP3    H250959   1.570   6.164   1.432 -0.5496 -1.5016 -2.3981
 8922TIP3   OH250960   0.612   4.682   0.374 -0.2310  0.3953 -0.2935
 8922TIP3    H150961   0.562   4.602   0.360  0.2972  0.1061 -0.5540
 8922TIP3    H250962   0.548   4.745   0.406 -0.9774  0.3401 -1.5965
 8923TIP3   OH250963   4.677   3.369   1.492  0.2136 -0.4923  0.2317
 8923TIP3    H150964   4.647   3.280   1.475 -2.5727  0.4847 -0.4999
 8923TIP3    H250965   4.708   3.401   1.407 -0.3173 -0.2377  0.1330
 8924TIP3   OH250966   6.654   5.099   2.361  0.0051 -0.3704  0.1488
 8924TIP3    H150967   6.617   5.154   2.292 -0.3064 -0.2057  0.4510
 8924TIP3    H250968   6.746   5.126   2.367  0.2342 -0.8994 -0.7222
 8925TIP3   OH250969   4.719   4.973   1.517 -0.7655 -0.0881  0.0002
 8925TIP3    H150970   4.714   4.880   1.495  0.6403 -0.1965  0.0496
 8925TIP3    H250971   4.742   5.015   1.434 -3.1433  0.4620 -0.4392
 8926TIP3   OH250972   7.533   4.567   2.133 -0.1874 -0.0719 -0.4843
 8926TIP3    H150973   7.513   4.512   2.058  0.2890 -0.5310 -0.2819
 8926TIP3    H250974   7.579   4.643   2.097  3.4551 -2.0026 -0.3670
 8927TIP3   OH250975   1.482   2.369   1.952 -0.1101 -0.6550  0.0818
 8927TIP3    H150976   1.463   2.299   1.889  1.0728 -2.2053  1.3320
 8927TIP3    H250977   1.439   2.446   1.917 -2.6785 -2.3138 -0.6998
 8928TIP3   OH250978   3.264   4.501   0.809  0.2050 -0.3453  0.0685
 8928TIP3    H150979   3.259   4.453   0.891 -0.2634 -1.3507 -0.5241
 8928TIP3    H250980   3.180   4.483   0.766  1.3596 -1.9244 -1.7319
 8929TIP3   OH250981   4.092   4.868   1.006 -0.1530  0.2236 -0.8129
 8929TIP3    H150982   4.104   4.774   1.022  0.0853  0.6216  1.8348
 8929TIP3    H250983   4.181   4.902   0.997 -0.2329  0.2326 -1.6053
 8930TIP3   OH250984   4.074   5.771   0.586 -0.3108 -0.5717  0.5456
 8930TIP3    H150985   4.036   5.702   0.532  2.2369 -1.7876  0.1425
 8930TIP3    H250986   4.116   5.725   0.659  0.6018  0.5998  0.7962
 8931TIP3   OH250987   4.121   3.216   1.093 -0.1592  0.5215  0.6385
 8931TIP3    H150988   4.104   3.141   1.150 -1.0423  0.6276  0.5193
 8931TIP3    H250989   4.038   3.264   1.090 -0.2876  0.2555 -1.1328
 8932TIP3   OH250990   1.400   5.394   3.213 -0.3626 -0.2198 -0.3177
 8932TIP3    H150991   1.375   5.333   3.282 -0.7747  0.6322  0.3004
 8932TIP3    H250992   1.490   5.419   3.234 -0.4850  0.0326 -0.0932
 8933TIP3   OH250993   3.524   5.692   2.625 -0.5679  0.0631 -0.6085
 8933TIP3    H150994   3.430   5.701   2.605 -0.5691 -0.7009 -0.9897
 8933TIP3    H250995   3.565   5.764   2.577 -0.7318 -0.9261 -2.3573
 8934TIP3   OH250996   6.765   1.173   2.889 -0.2955  0.7534  0.4940
 8934TIP3    H150997   6.777   1.081   2.908  2.3683  0.8274 -0.3390
 8934TIP3    H250998   6.781   1.218   2.972 -0.8785  0.5111  0.7390
 8935TIP3   OH250999   3.822   4.954   0.659 -0.2636  0.0736  0.4390
 8935TIP3    H151000   3.743   5.005   0.676 -1.1007 -1.2418  0.6476
 8935TIP3    H251001   3.894   5.009   0.690 -1.0957  1.2627  0.3137
 8936TIP3   OH251002   4.859   6.553   1.871 -0.5483 -0.1581 -0.2323
 8936TIP3    H151003   4.793   6.581   1.935 -1.4681 -2.3294 -0.1543
 8936TIP3    H251004   4.911   6.488   1.917  2.1825  1.9555 -0.0811
 8937TIP3   OH251005   2.088   1.195   0.814 -0.3206 -0.7976  0.6732
 8937TIP3    H151006   2.002   1.153   0.810 -0.5888 -0.3216  1.3997
 8937TIP3    H251007   2.083   1.255   0.888  0.6545 -0.7909  0.7497
 8938TIP3   OH251008   0.927   4.247   2.565 -0.0037  0.1716  0.0055
 8938TIP3    H151009   0.888   4.182   2.622 -0.6646 -0.2583 -0.9056
 8938TIP3    H251010   0.857   4.312   2.552  0.6259  1.0498  0.8582
 8939TIP3   OH251011   2.439   3.070   2.553  0.2541 -0.2536  0.0536
 8939TIP3    H151012   2.435   3.044   2.461  1.4362  2.8788 -1.0160
 8939TIP3    H251013   2.532   3.072   2.573  0.0850  0.7260  0.7791
 8940TIP3   OH251014   2.856   0.695   0.972 -0.2324  0.2418  0.6072
 8940TIP3    H151015   2.785   0.659   1.024 -0.8205 -0.2709 -0.5335
 8940TIP3    H251016   2.841   0.663   0.884  2.5663 -1.6166  0.6812
 8941TIP3   OH251017   6.912   1.824   1.290 -0.1493  0.1771  0.4144
 8941TIP3    H151018   6.825   1.794   1.263 -0.2594  1.2674 -0.5411
 8941TIP3    H251019   6.897   1.866   1.375 -0.5260  0.1430  0.3673
 8942TIP3   OH251020   1.696   4.522   1.761  0.3475 -0.8979  0.4003
 8942TIP3    H151021   1.684   4.584   1.689  0.7598  0.5110  1.4953
 8942TIP3    H251022   1.785   4.488   1.749  0.4860 -0.5208  0.3597
 8943TIP3   OH251023   6.981   5.918   0.370 -0.1466  0.1341 -0.5768
 8943TIP3    H151024   7.066   5.958   0.355 -0.6996  1.5122 -0.2500
 8943TIP3    H251025   6.964   5.867   0.291  1.0412 -0.2969 -0.5694
 8944TIP3   OH251026   0.348   6.438   0.657  0.1002  0.0584  0.7252
 8944TIP3    H151027   0.290   6.452   0.582 -3.1028 -0.6187  2.9068
 8944TIP3    H251028   0.323   6.504   0.721 -1.7282 -3.0841  3.5638
 8945TIP3   OH251029   1.984   4.280   3.676  0.4586 -0.2172  0.1354
 8945TIP3    H151030   1.972   4.188   3.651 -0.2337 -0.8301  2.5148
 8945TIP3    H251031   1.916   4.327   3.626 -0.5020 -1.3022  0.3822
 8946TIP3   OH251032   6.673   1.103   2.639  0.1764  0.7265 -0.0895
 8946TIP3    H151033   6.750   1.135   2.592  0.2427  0.3454 -0.2431
 8946TIP3    H251034   6.690   1.127   2.730 -1.1733  3.8982 -0.5379
 8947TIP3   OH251035   7.530   3.940   2.288 -0.2469  0.1633  0.3305
 8947TIP3    H151036   7.487   3.863   2.251 -1.3505  0.2716  1.2946
 8947TIP3    H251037   7.481   4.014   2.252  0.6875  0.4170 -0.4454
 8948TIP3   OH251038   7.555   6.041   1.455 -0.4915  0.5498  0.1288
 8948TIP3    H151039   7.513   5.962   1.422 -1.3937  1.0548  0.0259
 8948TIP3    H251040   7.633   6.051   1.401  0.2103 -0.8434  0.8456
 8949TIP3   OH251041   7.358   0.868   1.783 -0.0289  0.1653  0.4809
 8949TIP3    H151042   7.311   0.891   1.863 -1.3791  1.1047 -0.5196
 8949TIP3    H251043   7.398   0.950   1.754 -0.8353  0.2068 -0.5867
 8950TIP3   OH251044   5.387   6.878   2.774 -0.3213  0.1556 -0.0614
 8950TIP3    H151045   5.303   6.922   2.788 -1.6356 -2.4488  0.9268
 8950TIP3    H251046   5.373   6.826   2.695  1.1953  1.4387 -1.2239
 8951TIP3   OH251047   5.746   2.055   1.408  0.3023 -0.0847  0.2039
 8951TIP3    H151048   5.710   2.064   1.496 -0.6500 -0.2381 -0.1568
 8951TIP3    H251049   5.841   2.067   1.419  0.1256  0.5235  1.1478
 8952TIP3   OH251050   7.526   5.082   2.051  0.4146 -0.3275  0.0416
 8952TIP3    H151051   7.501   5.096   1.959 -1.8434  0.0646  0.6608
 8952TIP3    H251052   7.452   5.034   2.089  0.3977  1.2002  2.1070
 8953TIP3   OH251053   0.318   2.677   1.856  0.3273  0.4334  0.2479
 8953TIP3    H151054   0.298   2.635   1.940  3.2793 -2.1353 -0.1426
 8953TIP3    H251055   0.399   2.725   1.872  0.3375  0.8248 -0.8914
 8954TIP3   OH251056   2.410   7.424   1.909 -0.2762 -0.3712 -0.6150
 8954TIP3    H151057   2.365   7.340   1.909  0.2935 -0.6769 -0.2213
 8954TIP3    H251058   2.503   7.403   1.903 -0.1371  0.2393 -0.7534
 8955TIP3   OH251059   7.065   3.664   1.333 -0.0797  0.6346 -0.1163
 8955TIP3    H151060   7.076   3.571   1.354 -0.6959  0.6772  0.4146
 8955TIP3    H251061   7.124   3.679   1.258  0.9572  0.1130  0.5762
 8956TIP3   OH251062   0.465   3.442   2.744  0.4208 -0.3376 -0.6484
 8956TIP3    H151063   0.549   3.405   2.714  0.0870 -1.2976 -0.4188
 8956TIP3    H251064   0.416   3.457   2.663  0.7529  0.0908 -0.7753
 8957TIP3   OH251065   1.496   2.350   2.220  0.2612  0.1581 -0.0985
 8957TIP3    H151066   1.521   2.374   2.131 -0.6827  1.3344 -0.0791
 8957TIP3    H251067   1.514   2.256   2.226  1.8296  0.3643 -0.9970
 8958TIP3   OH251068   4.104   1.464   1.211  0.3493  0.3004  0.1350
 8958TIP3    H151069   4.173   1.477   1.277  0.6191  0.4051 -0.1635
 8958TIP3    H251070   4.022   1.472   1.260  0.5282  1.5381  0.2581
 8959TIP3   OH251071   3.316   3.707   1.378 -0.4263 -0.1882 -0.1672
 8959TIP3    H151072   3.370   3.770   1.425 -1.1251  0.5942 -0.3757
 8959TIP3    H251073   3.231   3.709   1.423 -0.6201 -0.5834 -0.5008
 8960TIP3   OH251074   4.193   4.799   1.996  0.2472  0.1826 -0.1938
 8960TIP3    H151075   4.116   4.771   1.948 -0.6817  0.4081  1.1037
 8960TIP3    H251076   4.256   4.825   1.928 -1.6106  2.1428 -1.2995
 8961TIP3   OH251077   1.628   7.247   1.289  0.2713  0.1639 -0.0044
 8961TIP3    H151078   1.669   7.258   1.374  0.9248 -1.5725 -0.0400
 8961TIP3    H251079   1.674   7.172   1.250 -2.9109 -1.9587 -0.0359
 8962TIP3   OH251080   2.502   3.127   1.586 -0.0463  0.7000 -0.2379
 8962TIP3    H151081   2.545   3.213   1.587  0.0819  0.6583 -1.0115
 8962TIP3    H251082   2.518   3.094   1.497  0.8635 -0.6101  0.3877
 8963TIP3   OH251083   5.797   4.595   0.613  0.2689  0.4958  0.4480
 8963TIP3    H151084   5.728   4.643   0.567 -0.9568  0.1643  1.8455
 8963TIP3    H251085   5.830   4.657   0.678  0.8981  0.4605  0.1679
 8964TIP3   OH251086   1.583   3.497   2.177  0.0238 -0.3739 -0.4978
 8964TIP3    H151087   1.574   3.566   2.243  1.1526 -1.1494  0.4961
 8964TIP3    H251088   1.658   3.524   2.124  1.3671 -1.4803  0.7609
 8965TIP3   OH251089   2.238   2.246   3.259  0.0749  0.2892 -0.1115
 8965TIP3    H151090   2.203   2.194   3.331  2.4133 -1.4754 -0.1301
 8965TIP3    H251091   2.215   2.196   3.180 -0.9458  1.2972 -0.4713
 8966TIP3   OH251092   6.850   2.573   1.738 -0.2867 -0.5403 -0.5024
 8966TIP3    H151093   6.761   2.543   1.718 -1.3012  2.1078 -0.3701
 8966TIP3    H251094   6.890   2.499   1.784 -3.3543 -0.8853  1.9271
 8967TIP3   OH251095   2.362   5.887   1.554 -0.6629  0.3390  0.1755
 8967TIP3    H151096   2.318   5.806   1.529 -1.6240  0.3037  1.8717
 8967TIP3    H251097   2.449   5.859   1.584 -0.0061  0.2467 -1.6710
 8968TIP3   OH251098   4.284   6.198   2.392  0.0994  0.6710 -0.6500
 8968TIP3    H151099   4.324   6.136   2.453 -0.7518  0.6349 -0.0996
 8968TIP3    H251100   4.268   6.147   2.312 -0.9532  0.0415 -0.0668
 8969TIP3   OH251101   5.140   5.547   1.304 -0.9427  0.1186  0.3228
 8969TIP3    H151102   5.069   5.490   1.274 -0.2066 -1.2099  1.0187
 8969TIP3    H251103   5.124   5.630   1.259 -3.1582  0.0093  0.7634
 8970TIP3   OH251104   3.267   6.134   2.779 -0.2693  0.3532 -0.0313
 8970TIP3    H151105   3.336   6.092   2.832 -0.4984 -0.2735 -0.2235
 8970TIP3    H251106   3.301   6.131   2.690 -0.7176 -0.3234 -0.1841
 8971TIP3   OH251107   1.549   5.914   0.849 -0.1054  0.4764  0.1203
 8971TIP3    H151108   1.515   5.890   0.936 -1.9081  0.4724 -0.5371
 8971TIP3    H251109   1.509   5.850   0.790  0.7721  0.7401 -0.7750
 8972TIP3   OH251110   7.584   6.343   0.885  0.4485 -0.5430  0.1018
 8972TIP3    H151111   7.627   6.259   0.868  0.7437 -0.5020  0.6037
 8972TIP3    H251112   7.616   6.368   0.972 -1.0396 -0.7930  0.7510
 8973TIP3   OH251113   0.192   1.491   1.895 -0.6174  0.3566  0.3251
 8973TIP3    H151114   0.131   1.557   1.929  0.0288  0.9844  0.3041
 8973TIP3    H251115   0.254   1.477   1.966 -1.5778 -1.3296  0.8760
 8974TIP3   OH251116   0.789   7.316   0.941  0.4186  0.1836 -0.3220
 8974TIP3    H151117   0.857   7.326   0.874  0.1144  0.0572 -0.6508
 8974TIP3    H251118   0.728   7.252   0.905 -1.0641  1.8928 -0.9917
 8975TIP3   OH251119   4.444   0.393   1.318 -0.5870 -0.5117 -0.0861
 8975TIP3    H151120   4.408   0.323   1.264  1.4010 -1.4777 -0.2456
 8975TIP3    H251121   4.517   0.352   1.365 -0.7598  0.9068  1.5142
 8976TIP3   OH251122   7.362   1.343   2.465 -0.0104 -0.5172 -0.3204
 8976TIP3    H151123   7.377   1.436   2.449 -0.6606 -0.1816  0.9065
 8976TIP3    H251124   7.424   1.320   2.535 -0.8615 -0.6315  0.4151
 8977TIP3   OH251125   2.452   0.012   2.740 -0.0202  0.7212  0.7657
 8977TIP3    H151126   2.378   0.073   2.729 -0.9008 -0.2124  1.3676
 8977TIP3    H251127   2.421  -0.051   2.805  0.5908 -0.8040 -0.3700
 8978TIP3   OH251128   0.235   2.954   0.768  0.0577  0.2826  0.3179
 8978TIP3    H151129   0.245   3.049   0.768 -1.4882  0.4830 -1.2848
 8978TIP3    H251130   0.222   2.932   0.860  2.3776  1.3376  0.9869
 8979TIP3   OH251131   0.058   5.219   1.263 -0.7025 -0.3847  0.0762
 8979TIP3    H151132   0.109   5.158   1.210 -0.7548 -1.5876  1.3420
 8979TIP3    H251133   0.069   5.188   1.353 -1.4931  0.9385  0.6709
 8980TIP3   OH251134   0.958   0.274   1.475  0.1980 -0.2659  0.5085
 8980TIP3    H151135   0.867   0.246   1.489 -0.6767  1.1014 -1.7797
 8980TIP3    H251136   1.011   0.201   1.508 -1.6730 -0.8593  2.4444
 8981TIP3   OH251137   1.031   5.905   1.078 -0.1092 -0.2550  0.1470
 8981TIP3    H151138   0.941   5.933   1.097  0.0709  0.6384 -0.2877
 8981TIP3    H251139   1.053   5.847   1.152 -0.8704 -0.1126  0.5036
 8982TIP3   OH251140   0.929   6.311   0.970  0.3223 -0.1787 -0.7783
 8982TIP3    H151141   0.872   6.299   1.045 -0.2212  0.8610 -1.0000
 8982TIP3    H251142   0.994   6.376   0.998  0.6250 -0.4073 -0.9372
 8983TIP3   OH251143   3.449   3.269   2.580  0.8790  0.0842  0.2482
 8983TIP3    H151144   3.399   3.197   2.619  2.7465 -1.3436  0.1153
 8983TIP3    H251145   3.525   3.279   2.637  2.2586 -0.1977 -1.4535
 8984TIP3   OH251146   1.969   2.321   1.657 -0.3934 -0.0378  0.1643
 8984TIP3    H151147   1.896   2.365   1.614 -1.7369  1.0040  3.2080
 8984TIP3    H251148   2.039   2.386   1.658 -0.0136 -0.4051 -1.1975
 8985TIP3   OH251149   4.524   2.740   2.005  0.0934 -0.1920  0.1488
 8985TIP3    H151150   4.608   2.696   1.988  1.1728  2.1431 -1.1138
 8985TIP3    H251151   4.537   2.784   2.089 -0.0098 -0.1821  0.1590
 8986TIP3   OH251152   7.503   7.660   2.454 -0.3976  0.3501 -0.2028
 8986TIP3    H151153   7.585   7.612   2.443 -0.1160  1.1413 -1.8451
 8986TIP3    H251154   7.529   7.752   2.459 -1.1839  0.6340 -1.0351
 8987TIP3   OH251155   2.242   7.015   3.019 -0.0451  0.0878  0.0550
 8987TIP3    H151156   2.316   6.958   3.041 -0.5017  0.3235  2.4547
 8987TIP3    H251157   2.176   6.995   3.085 -1.4042  1.2513 -0.8854
 8988TIP3   OH251158   2.626   7.397   1.519  0.3694 -0.2807 -0.2362
 8988TIP3    H151159   2.660   7.374   1.433  0.4873 -1.1244  0.0342
 8988TIP3    H251160   2.540   7.435   1.500  1.0264  1.0047 -0.8409
 8989TIP3   OH251161   5.692   7.430   1.457  0.1623 -0.1235  0.3218
 8989TIP3    H151162   5.624   7.413   1.522  1.6978  1.0926  2.3731
 8989TIP3    H251163   5.775   7.417   1.504  1.3450  1.8445 -1.0548
 8990TIP3   OH251164   0.697   2.295   0.675  0.3722  0.1168  0.1282
 8990TIP3    H151165   0.697   2.388   0.698 -1.1707  0.2041 -0.0926
 8990TIP3    H251166   0.604   2.272   0.670  0.7042 -1.8497  1.7716
 8991TIP3   OH251167   6.255   6.829   2.154 -0.0244  0.2828  0.1422
 8991TIP3    H151168   6.310   6.887   2.101  1.7295  0.0120  1.5693
 8991TIP3    H251169   6.277   6.741   2.125 -1.2056  0.2212 -0.6357
 8992TIP3   OH251170   5.758   0.926   1.319 -0.1484  0.0176  0.3955
 8992TIP3    H151171   5.736   0.986   1.248  0.2935 -0.3292 -0.0419
 8992TIP3    H251172   5.679   0.923   1.373  0.0979  1.6232  0.8820
 8993TIP3   OH251173   7.056   2.522   1.553  0.2894  0.5080  0.6602
 8993TIP3    H151174   7.069   2.593   1.490  0.3595 -1.6343 -1.9230
 8993TIP3    H251175   6.985   2.552   1.609 -0.8702  1.9615 -1.4512
 8994TIP3   OH251176   0.505   3.577   0.662  0.0585  0.1700  0.6350
 8994TIP3    H151177   0.435   3.638   0.640  0.3764 -0.3608 -2.3463
 8994TIP3    H251178   0.586   3.626   0.647  0.3283 -0.0391  1.3701
 8995TIP3   OH251179   1.244   3.154   3.094  0.1624 -0.2414 -0.4113
 8995TIP3    H151180   1.168   3.191   3.048  0.5685  0.7326 -0.3047
 8995TIP3    H251181   1.283   3.228   3.140  1.4907 -0.6251 -0.8772
 8996TIP3   OH251182   1.119   1.483   1.508  0.0573 -0.2770 -0.3624
 8996TIP3    H151183   1.044   1.486   1.568  1.5113  0.7816  1.5228
 8996TIP3    H251184   1.140   1.574   1.491  2.6939 -0.3780  1.6179
 8997TIP3   OH251185   4.763   4.132   1.683 -0.6058 -0.5371 -0.5537
 8997TIP3    H151186   4.838   4.075   1.667  0.9109  0.8682  1.1585
 8997TIP3    H251187   4.689   4.072   1.688  0.6127 -2.1378 -0.8180
 8998TIP3   OH251188   5.112   5.951   1.700  0.0478  0.1116  0.3548
 8998TIP3    H151189   5.086   5.889   1.631 -1.1653 -0.1907  1.0637
 8998TIP3    H251190   5.203   5.972   1.679 -0.5506  0.7775 -1.9067
 8999TIP3   OH251191   6.005   1.017   0.880 -0.3549  0.0924 -0.1806
 8999TIP3    H151192   5.943   1.033   0.809 -2.5358 -0.1158  1.5769
 8999TIP3    H251193   6.061   1.095   0.880 -1.6681  1.0909 -0.7971
 9000TIP3   OH251194   2.820   1.262   0.747  0.2642 -0.3557  0.1967
 9000TIP3    H151195   2.878   1.259   0.671 -0.5170  1.8933 -0.5571
 9000TIP3    H251196   2.734   1.284   0.711 -0.3124 -0.1457  1.6354
 9001TIP3   OH251197   1.947   7.221   1.649  0.0823  0.0086  0.2796
 9001TIP3    H151198   2.038   7.251   1.651  0.3503 -0.7114 -0.3813
 9001TIP3    H251199   1.945   7.154   1.580 -0.2779 -2.0812  2.1972
 9002TIP3   OH251200   0.010   1.293   1.833 -0.2130  0.0073  0.2920
 9002TIP3    H151201  -0.026   1.260   1.915  0.9232  1.3702  1.3913
 9002TIP3    H251202   0.065   1.367   1.859 -0.6274  1.1268 -1.8022
 9003TIP3   OH251203   6.377   7.531   3.029 -0.6411 -0.1993 -0.9049
 9003TIP3    H151204   6.345   7.600   3.087 -1.2592  0.0148 -1.4928
 9003TIP3    H251205   6.472   7.541   3.030 -0.6463 -0.1017 -0.0524
 9004TIP3   OH251206   5.192   4.309   1.626  0.1799 -0.3791 -0.5234
 9004TIP3    H151207   5.269   4.366   1.635  0.2331 -0.5693  0.2749
 9004TIP3    H251208   5.162   4.325   1.536  1.1331 -0.2862 -0.8422
 9005TIP3   OH251209   0.677   2.365   2.063  0.0115 -0.1244 -0.1731
 9005TIP3    H151210   0.767   2.378   2.035 -0.3121  0.4280 -0.9790
 9005TIP3    H251211   0.637   2.452   2.059 -0.2372 -0.1215  1.3858
 9006TIP3   OH251212   0.740   3.422   0.623  0.2510 -0.7485  0.1291
 9006TIP3    H151213   0.646   3.437   0.636  0.3739 -0.8148  1.1431
 9006TIP3    H251214   0.747   3.393   0.532 -0.6005  0.1814 -0.2528
 9007TIP3   OH251215   3.005   5.602   2.386  0.3548 -0.7751 -0.5448
 9007TIP3    H151216   2.919   5.626   2.350  0.8872 -1.3629 -2.3302
 9007TIP3    H251217   3.068   5.642   2.325  1.3916  0.1681  1.0764
 9008TIP3   OH251218   7.294   1.858   3.287  0.8078 -0.0111 -0.5347
 9008TIP3    H151219   7.387   1.874   3.306  0.7725  0.3047 -0.6239
 9008TIP3    H251220   7.287   1.871   3.192  0.8960 -1.1455 -0.7075
 9009TIP3   OH251221   2.966   1.818   2.459 -0.4962 -0.0440  0.4217
 9009TIP3    H151222   2.889   1.763   2.447 -0.6774  0.2216  0.3688
 9009TIP3    H251223   2.940   1.880   2.527 -0.4939  0.3504  0.0659
 9010TIP3   OH251224   5.188   4.359   3.109 -0.2381 -0.3912 -0.6380
 9010TIP3    H151225   5.122   4.408   3.158  0.4759 -0.7724  0.7616
 9010TIP3    H251226   5.214   4.417   3.038 -0.8596  0.4313 -0.2017
 9011TIP3   OH251227   6.845   1.910   1.533 -0.0660  0.8306 -0.3217
 9011TIP3    H151228   6.911   1.961   1.579  0.3389  2.3179 -2.3773
 9011TIP3    H251229   6.763   1.927   1.580  0.8190 -0.4501  1.8181
 9012TIP3   OH251230   3.163   1.285   1.281  0.2617 -0.0055 -0.2699
 9012TIP3    H151231   3.232   1.349   1.268  1.2356 -0.9104  0.3429
 9012TIP3    H251232   3.117   1.282   1.197  1.1568  0.3665 -0.7824
 9013TIP3   OH251233   4.636   5.810   1.477 -0.7570 -0.1449  0.3161
 9013TIP3    H151234   4.710   5.756   1.504 -0.5584  0.8926  1.9934
 9013TIP3    H251235   4.561   5.749   1.474  0.3716 -1.6249 -3.2249
 9014TIP3   OH251236   6.574   0.960   1.912  0.6901 -0.1400 -0.1812
 9014TIP3    H151237   6.487   0.985   1.944  0.8483 -0.1872  0.2897
 9014TIP3    H251238   6.635   1.006   1.970  1.0033  1.3905 -1.6349
 9015TIP3   OH251239   7.513   2.592   1.859 -0.1035  0.0717 -0.2104
 9015TIP3    H151240   7.531   2.499   1.869  0.0500  0.1296  0.0470
 9015TIP3    H251241   7.417   2.598   1.861 -0.1009  0.1675  2.0785
 9016TIP3   OH251242   5.493   2.998   0.620 -0.7099 -0.3694 -0.0160
 9016TIP3    H151243   5.466   2.955   0.538 -1.3048 -0.6316  0.3088
 9016TIP3    H251244   5.416   3.048   0.647  0.5218  2.4718 -1.3504
 9017TIP3   OH251245   6.503   3.427   2.863  0.3718 -0.3119  0.5725
 9017TIP3    H151246   6.521   3.333   2.872 -0.4643 -0.4707  0.6335
 9017TIP3    H251247   6.434   3.445   2.926  1.0155  0.4996  1.0579
 9018TIP3   OH251248   3.559   0.015   2.069 -0.8806  0.1323  0.1504
 9018TIP3    H151249   3.508  -0.008   1.991 -1.1068 -1.2843  0.7044
 9018TIP3    H251250   3.496   0.053   2.129 -0.4944  2.4404 -0.7914
 9019TIP3   OH251251   4.325   2.129   1.546 -0.1416 -0.2970 -1.0287
 9019TIP3    H151252   4.339   2.224   1.542  1.3355 -0.4543 -0.4482
 9019TIP3    H251253   4.406   2.095   1.586 -1.1976 -1.6705  0.0318
 9020TIP3   OH251254   6.889   4.302   1.164 -0.2343 -0.2298  0.0367
 9020TIP3    H151255   6.926   4.349   1.090 -1.7465 -0.2406 -0.7496
 9020TIP3    H251256   6.852   4.370   1.220 -2.8565 -0.3993 -1.3382
 9021TIP3   OH251257   2.492   2.265   1.432  0.1254  0.5994  0.4031
 9021TIP3    H151258   2.528   2.180   1.407  3.1233  2.1342 -0.9948
 9021TIP3    H251259   2.445   2.295   1.354 -2.7206 -0.5161  1.5600
 9022TIP3   OH251260   6.214   2.439   0.881  0.2902 -0.1480  0.1852
 9022TIP3    H151261   6.157   2.381   0.932 -0.5161  1.8353  1.6808
 9022TIP3    H251262   6.158   2.471   0.810  0.9432 -1.6750 -1.0679
 9023TIP3   OH251263   0.405   4.251   2.776  0.0925  0.0193  0.6155
 9023TIP3    H151264   0.440   4.280   2.860  1.7859  1.3467 -0.4880
 9023TIP3    H251265   0.447   4.166   2.761 -0.0167 -0.1022  0.9868
 9024TIP3   OH251266   0.272   1.358   2.699  0.4782 -0.1748  0.2216
 9024TIP3    H151267   0.234   1.291   2.642  2.4566 -2.4014  1.3297
 9024TIP3    H251268   0.330   1.408   2.642 -0.6306  0.3254 -0.5121
 9025TIP3   OH251269   5.787   5.562   2.063 -0.0230 -0.0925 -0.3798
 9025TIP3    H151270   5.862   5.531   2.013  0.3272  1.0653 -0.5959
 9025TIP3    H251271   5.806   5.653   2.082 -1.2027  0.1222 -0.1103
 9026TIP3   OH251272   3.019   4.933   1.833  0.0533 -0.3408  0.8356
 9026TIP3    H151273   2.937   4.936   1.784  0.2073 -0.1108  0.5968
 9026TIP3    H251274   3.032   5.021   1.866  0.6311 -0.1650  0.1749
 9027TIP3   OH251275   4.338   7.638   2.354  0.2633  0.0404  0.0934
 9027TIP3    H151276   4.329   7.623   2.448 -0.1886  0.8233  0.1848
 9027TIP3    H251277   4.309   7.556   2.314  1.3404 -0.6348  0.6462
 9028TIP3   OH251278   3.873   2.574   0.583 -0.0226  0.7556 -0.0529
 9028TIP3    H151279   3.958   2.561   0.624 -0.2984 -1.1897  0.0311
 9028TIP3    H251280   3.886   2.644   0.520  2.0432 -0.4704 -1.0886
 9029TIP3   OH251281   2.128   7.495   1.989  0.2968 -0.4718  0.4749
 9029TIP3    H151282   2.213   7.452   1.981  0.3387 -0.2690 -0.2498
 9029TIP3    H251283   2.105   7.485   2.081  1.8136  0.8085  1.0433
 9030TIP3   OH251284   3.108   3.422   0.319 -1.1022 -0.1060  0.3299
 9030TIP3    H151285   3.192   3.453   0.353 -0.4774 -1.0786 -0.2645
 9030TIP3    H251286   3.069   3.499   0.278  0.0378  0.1143 -0.4110
 9031TIP3   OH251287   7.551   4.053   1.930  0.1213  0.4729  0.0548
 9031TIP3    H151288   7.602   3.982   1.891  3.2084  2.7735 -0.4765
 9031TIP3    H251289   7.495   4.083   1.859  1.2835  0.7115 -0.7955
 9032TIP3   OH251290   3.502   3.330   2.110  0.1532  0.2965 -0.3595
 9032TIP3    H151291   3.476   3.417   2.079  0.3157  0.1997 -0.7860
 9032TIP3    H251292   3.578   3.309   2.056 -1.5103 -1.2835 -2.2605
 9033TIP3   OH251293   2.477   2.922   1.953  0.1133 -0.0401 -0.0068
 9033TIP3    H151294   2.565   2.907   1.920 -0.7792 -0.5438 -2.3240
 9033TIP3    H251295   2.424   2.937   1.875 -1.9243 -0.0308  1.3029
 9034TIP3   OH251296   6.534   3.623   1.046 -0.0387  0.0857  0.2452
 9034TIP3    H151297   6.492   3.547   1.087 -0.3367  0.7451  1.1882
 9034TIP3    H251298   6.530   3.691   1.113 -0.7920  1.2789 -0.9754
 9035TIP3   OH251299   5.134   0.448   1.412  0.1812  0.2917 -0.4370
 9035TIP3    H151300   5.115   0.369   1.361  0.8471 -0.3058  0.2122
 9035TIP3    H251301   5.106   0.520   1.356  0.3678 -0.3691 -1.4128
 9036TIP3   OH251302   1.987   5.421   0.663 -0.1177 -0.1758  0.3776
 9036TIP3    H151303   2.023   5.470   0.737 -1.0767  0.1239  0.6563
 9036TIP3    H251304   1.979   5.331   0.695 -0.7326 -0.0037  0.7163
 9037TIP3   OH251305   5.194   7.429   2.181 -0.4580  0.2568  0.2733
 9037TIP3    H151306   5.117   7.391   2.137 -0.4422 -0.0232  0.4885
 9037TIP3    H251307   5.208   7.374   2.258  0.4588 -0.1912 -0.1996
 9038TIP3   OH251308   3.185   6.481   1.414 -0.1837 -0.2507  0.5529
 9038TIP3    H151309   3.273   6.518   1.422 -1.0821  1.9230  1.2223
 9038TIP3    H251310   3.194   6.390   1.443  1.6607  0.2022  1.5266
 9039TIP3   OH251311   0.188   7.434   2.022  0.0894  0.5622 -0.3983
 9039TIP3    H151312   0.209   7.340   2.027 -0.2578  0.5399  2.1056
 9039TIP3    H251313   0.093   7.438   2.035  0.2966  1.2907  1.1695
 9040TIP3   OH251314   0.597   5.308   0.988 -0.8127  0.0323  0.1758
 9040TIP3    H151315   0.581   5.284   1.079 -0.5814  0.3451  0.3003
 9040TIP3    H251316   0.665   5.246   0.959  0.2887  0.9549  0.7058
 9041TIP3   OH251317   1.389   3.322   3.296 -0.5840  0.3230 -0.1926
 9041TIP3    H151318   1.443   3.277   3.230 -0.4945 -0.2065  0.2305
 9041TIP3    H251319   1.444   3.396   3.324 -0.2071 -0.0271  0.0054
 9042TIP3   OH251320   6.858   4.307   0.443  0.2220 -0.3760  0.2676
 9042TIP3    H151321   6.943   4.312   0.399 -0.3869  0.5843 -0.8866
 9042TIP3    H251322   6.854   4.219   0.479  1.9598 -0.2368  0.9055
 9043TIP3   OH251323   4.134   6.117   1.795 -0.1010 -0.1433  0.2683
 9043TIP3    H151324   4.077   6.157   1.729  0.7089  0.8617  0.1601
 9043TIP3    H251325   4.214   6.170   1.793 -0.4600  0.5819  2.8238
 9044TIP3   OH251326   5.146   6.674   0.655 -0.0021 -0.4322 -0.2147
 9044TIP3    H151327   5.113   6.740   0.715  0.8377  3.5299 -3.6141
 9044TIP3    H251328   5.071   6.619   0.635 -1.4649  1.0821  0.8948
 9045TIP3   OH251329   5.415   4.202   2.336  0.5423 -0.4150 -0.3407
 9045TIP3    H151330   5.367   4.228   2.414 -0.2846 -1.3629 -0.5120
 9045TIP3    H251331   5.480   4.139   2.367 -0.4730 -1.5928 -0.5304
 9046TIP3   OH251332   3.434   2.139   2.859 -0.0933  0.7813  0.2247
 9046TIP3    H151333   3.386   2.221   2.852  0.0737  0.7693 -1.5096
 9046TIP3    H251334   3.504   2.146   2.794  0.2353 -0.5307  0.3927
 9047TIP3   OH251335   4.978   1.085   0.651 -0.0523  0.6930  0.3461
 9047TIP3    H151336   4.946   1.159   0.599 -0.1174 -1.6527 -3.3364
 9047TIP3    H251337   4.913   1.016   0.635  1.4291 -0.9836  1.3397
 9048TIP3   OH251338   4.125   6.420   2.341 -0.0095 -0.0734  0.1460
 9048TIP3    H151339   4.037   6.450   2.320  0.2833  0.5182 -0.2488
 9048TIP3    H251340   4.149   6.362   2.269 -0.8112 -1.8209  1.2023
 9049TIP3   OH251341   0.786   3.459   1.148 -0.3501 -0.1039 -0.4305
 9049TIP3    H151342   0.699   3.426   1.170  0.3978 -1.0783  1.2065
 9049TIP3    H251343   0.832   3.382   1.113 -0.1570  0.4373 -1.4117
 9050TIP3   OH251344   7.438   6.963   1.735  0.4171 -0.4346  0.5654
 9050TIP3    H151345   7.437   6.938   1.827  1.7366 -0.6082  0.5541
 9050TIP3    H251346   7.463   7.056   1.735 -0.0432 -0.3041  0.3929
 9051TIP3   OH251347   3.066   0.833   1.916 -0.6752  0.6427  0.2786
 9051TIP3    H151348   3.047   0.797   1.830 -1.2409 -1.9240  1.3809
 9051TIP3    H251349   2.985   0.877   1.942 -1.8717 -1.7353  0.9023
 9052TIP3   OH251350   6.711   2.984   1.324 -0.4028 -0.3855  0.1876
 9052TIP3    H151351   6.661   2.957   1.247  0.4743 -0.2741 -0.4439
 9052TIP3    H251352   6.699   3.078   1.329 -1.3434 -0.5371  0.8370
 9053TIP3   OH251353   2.903   3.620   2.371 -0.4496 -0.2402  0.1417
 9053TIP3    H151354   2.985   3.599   2.416  0.5998 -0.7147 -1.8651
 9053TIP3    H251355   2.873   3.700   2.414  1.6279  0.5422  0.2962
 9054TIP3   OH251356   4.052   0.154   0.972 -0.6000  0.2831 -0.1659
 9054TIP3    H151357   4.104   0.116   0.902 -0.3663  0.1941  0.0534
 9054TIP3    H251358   4.040   0.245   0.946  0.7468  0.6440  0.3829
 9055TIP3   OH251359   6.586   7.403   1.505 -0.4930  0.5099 -0.1649
 9055TIP3    H151360   6.626   7.490   1.495 -0.1364  0.2441 -1.0709
 9055TIP3    H251361   6.570   7.373   1.416 -0.9230 -0.2248  0.1502
 9056TIP3   OH251362   5.787   1.366   2.301  0.5327  0.4190 -0.8893
 9056TIP3    H151363   5.740   1.345   2.382 -1.8244 -0.7426 -2.4360
 9056TIP3    H251364   5.805   1.459   2.307 -0.6174  0.5859  0.4848
 9057TIP3   OH251365   2.419   4.726   0.700  0.0039  0.5852  0.1778
 9057TIP3    H151366   2.397   4.803   0.648 -0.3229  0.4191  0.0675
 9057TIP3    H251367   2.512   4.736   0.719  0.2283  0.4304 -0.8063
 9058TIP3   OH251368   3.317   0.824   1.550  0.0754  0.1496  0.2721
 9058TIP3    H151369   3.276   0.876   1.481  0.8323  1.3265  0.6781
 9058TIP3    H251370   3.244   0.796   1.605 -0.6357 -1.4845 -1.3931
 9059TIP3   OH251371   3.468   6.125   3.471 -0.2053 -0.2254 -0.3068
 9059TIP3    H151372   3.406   6.186   3.511  1.5076  1.7936 -0.5405
 9059TIP3    H251373   3.533   6.108   3.539 -0.2782 -1.2419 -0.4777
 9060TIP3   OH251374   6.569   4.600   2.118 -0.5089  0.7077  0.9063
 9060TIP3    H151375   6.598   4.690   2.105 -0.9968  0.7491  0.0901
 9060TIP3    H251376   6.502   4.586   2.051 -0.6311 -0.1735  1.2037
 9061TIP3   OH251377   4.327   0.272   1.100 -0.4731  0.4511  0.1613
 9061TIP3    H151378   4.239   0.241   1.079  0.0445 -0.2406 -1.0336
 9061TIP3    H251379   4.382   0.194   1.097 -0.4817 -0.1248  5.5236
 9062TIP3   OH251380   3.624   2.311   1.318  0.3187 -0.4697  0.3278
 9062TIP3    H151381   3.665   2.362   1.388 -0.6740  1.0038 -0.1167
 9062TIP3    H251382   3.530   2.323   1.332  0.0866  0.4407 -1.6297
 9063TIP3   OH251383   4.257   2.396   0.784 -0.2484 -0.0086 -0.2358
 9063TIP3    H151384   4.225   2.384   0.873  0.4370  1.8498  0.3187
 9063TIP3    H251385   4.181   2.431   0.736 -0.1437  0.7240  0.1077
 9064TIP3   OH251386   1.387   4.418   0.582 -0.7534  0.3536 -0.2086
 9064TIP3    H151387   1.438   4.500   0.580  0.7232 -0.5377 -1.4593
 9064TIP3    H251388   1.418   4.373   0.660 -3.3988  1.9982  1.9676
 9065TIP3   OH251389   4.948   6.794   1.770 -0.2913 -0.0401  0.0688
 9065TIP3    H151390   4.864   6.750   1.784 -0.2071 -0.1552  0.2237
 9065TIP3    H251391   5.013   6.728   1.793 -0.1141 -0.5755 -1.8390
 9066TIP3   OH251392   3.225   4.186   2.653  0.6422 -0.1399 -0.6824
 9066TIP3    H151393   3.174   4.267   2.650  1.1140  0.1572 -2.8827
 9066TIP3    H251394   3.285   4.194   2.578  0.7785 -2.4864 -0.8765
 9067TIP3   OH251395   1.292   0.304   1.898 -0.2683  0.0512 -0.1957
 9067TIP3    H151396   1.307   0.223   1.947 -0.9564  0.1732  0.2368
 9067TIP3    H251397   1.200   0.298   1.870 -0.2878  0.6235 -0.2682
 9068TIP3   OH251398   2.907   5.275   1.617 -0.4499  0.4930  0.4747
 9068TIP3    H151399   2.859   5.261   1.535 -1.1666  1.7403  0.6527
 9068TIP3    H251400   2.878   5.203   1.673 -1.0407  0.4306  0.1066
 9069TIP3   OH251401   0.389   4.847   0.509 -0.0584 -0.0400  0.0274
 9069TIP3    H151402   0.465   4.823   0.561 -1.3550 -0.1807  1.9485
 9069TIP3    H251403   0.352   4.764   0.480 -0.2707 -0.0416  0.2969
 9070TIP3   OH251404   3.252   2.662   1.925 -0.1633 -0.0335 -0.7251
 9070TIP3    H151405   3.279   2.571   1.910 -0.5345 -0.4162  0.6961
 9070TIP3    H251406   3.310   2.692   1.995  1.5767  1.6636 -2.7605
 9071TIP3   OH251407   2.143   7.494   0.977  0.1590 -0.3674 -0.3544
 9071TIP3    H151408   2.209   7.542   0.926  0.9810 -0.5222  0.5384
 9071TIP3    H251409   2.189   7.416   1.008 -1.0528 -1.5783 -1.4831
 9072TIP3   OH251410   5.575   4.450   0.945 -0.1329  0.2537 -0.0280
 9072TIP3    H151411   5.577   4.409   1.031  0.2794 -1.6398 -0.8967
 9072TIP3    H251412   5.482   4.453   0.922 -0.1088 -1.0470 -0.3290
 9073TIP3   OH251413   3.697   3.176   1.496 -0.4608 -0.9686 -0.1652
 9073TIP3    H151414   3.780   3.221   1.508 -1.8879  1.0682  3.5009
 9073TIP3    H251415   3.653   3.226   1.427 -0.2424  0.5717  0.7629
 9074TIP3   OH251416   2.797   3.278   3.256 -0.5788 -0.3288 -1.0327
 9074TIP3    H151417   2.838   3.324   3.183  0.0852  0.1984 -0.3378
 9074TIP3    H251418   2.705   3.306   3.253 -0.5715 -0.3694 -1.7061
 9075TIP3   OH251419   5.749   6.248   2.492 -0.4397 -0.0039 -0.1485
 9075TIP3    H151420   5.723   6.319   2.551 -0.3565 -0.2672  0.2017
 9075TIP3    H251421   5.700   6.266   2.411  0.3749  1.0470 -0.4273
 9076TIP3   OH251422   2.791   4.930   0.606  0.2277  0.1670  0.4465
 9076TIP3    H151423   2.852   4.856   0.606  0.8114  0.5295 -2.2411
 9076TIP3    H251424   2.828   4.992   0.668  1.1683 -0.7267  0.8012
 9077TIP3   OH251425   4.437   3.032   2.664  0.1957 -0.7773 -0.3212
 9077TIP3    H151426   4.435   3.127   2.672 -1.0742 -0.8662  0.7307
 9077TIP3    H251427   4.528   3.012   2.642  0.4461  0.6835 -0.7044
 9078TIP3   OH251428   4.880   7.348   1.021  0.1324 -0.9536 -0.1378
 9078TIP3    H151429   4.916   7.354   1.109  1.4917 -1.0976 -0.6588
 9078TIP3    H251430   4.785   7.349   1.034  0.3044  0.0832  1.2393
 9079TIP3   OH251431   3.869   5.508   1.854  0.4295 -0.3559 -0.3077
 9079TIP3    H151432   3.775   5.491   1.848 -0.1928  2.1371  0.9694
 9079TIP3    H251433   3.887   5.574   1.787  0.9222  0.3431  0.4875
 9080TIP3   OH251434   1.357   3.060   2.121 -0.5444  0.1599 -0.1943
 9080TIP3    H151435   1.345   3.154   2.106 -0.1933  0.3587  0.7229
 9080TIP3    H251436   1.426   3.055   2.188 -0.8540 -0.7416  0.0668
 9081TIP3   OH251437   7.433   0.666   2.892  0.0313 -0.0183  0.0171
 9081TIP3    H151438   7.494   0.593   2.902 -0.7692 -0.7975 -0.5963
 9081TIP3    H251439   7.436   0.710   2.977  0.0456 -1.1621  0.6438
 9082TIP3   OH251440   5.786   5.213   0.916  0.4733 -0.0866 -0.9384
 9082TIP3    H151441   5.781   5.282   0.983 -1.5796 -1.3117  0.2742
 9082TIP3    H251442   5.819   5.258   0.839  0.3224  2.0135  0.1254
 9083TIP3   OH251443   4.912   2.845   1.772 -0.1719 -0.3001 -0.5216
 9083TIP3    H151444   4.843   2.909   1.755 -0.4027 -0.1861  0.7175
 9083TIP3    H251445   4.973   2.854   1.699 -0.3471  1.1397 -0.5126
 9084TIP3   OH251446   3.488   7.308   3.189 -0.1928 -0.0630 -0.5933
 9084TIP3    H151447   3.450   7.233   3.234 -0.1211  1.5718  2.5124
 9084TIP3    H251448   3.573   7.321   3.231  0.2259  1.1322 -1.7450
 9085TIP3   OH251449   2.204   6.581   2.358  0.0495  0.5392  0.0788
 9085TIP3    H151450   2.237   6.493   2.336 -0.8627  0.0809  0.4731
 9085TIP3    H251451   2.162   6.612   2.277 -0.7649  0.0579  0.3011
 9086TIP3   OH251452   1.042   5.277   0.600  0.1373 -0.2454  0.1180
 9086TIP3    H151453   0.978   5.226   0.550  0.2050  0.4120 -0.6646
 9086TIP3    H251454   0.990   5.341   0.648  0.2413  1.0083 -1.3620
 9087TIP3   OH251455   2.841   3.497   0.881 -0.2667  0.0527  0.1003
 9087TIP3    H151456   2.793   3.415   0.866  1.3993 -0.5569 -2.5523
 9087TIP3    H251457   2.804   3.558   0.817 -0.2333  0.8162  0.7985
 9088TIP3   OH251458   4.061   6.062   0.925  0.7548  0.5084  0.1444
 9088TIP3    H151459   4.019   5.987   0.882  0.0168  0.6849  0.5406
 9088TIP3    H251460   4.149   6.063   0.889  0.6461 -0.3017 -0.1804
 9089TIP3   OH251461   4.945   5.449   1.169  0.5663  0.1344  0.1910
 9089TIP3    H151462   4.921   5.486   1.084 -1.8254 -0.4324  0.5756
 9089TIP3    H251463   4.872   5.393   1.194  1.6339 -0.4826  2.2025
 9090TIP3   OH251464   3.475   0.683   1.056  0.2908 -0.2066  0.3539
 9090TIP3    H151465   3.397   0.701   1.108  1.2753 -1.7611  2.5245
 9090TIP3    H251466   3.548   0.695   1.117  1.6227 -0.4939 -1.1217
 9091TIP3   OH251467   1.280   5.247   2.520 -0.1021  0.1143  0.4419
 9091TIP3    H151468   1.287   5.175   2.583 -0.5165 -0.2994  0.0259
 9091TIP3    H251469   1.190   5.242   2.488 -0.6277  1.7663  1.5205
 9092TIP3   OH251470   2.729   6.209   2.340  0.2258  0.0422 -0.0809
 9092TIP3    H151471   2.647   6.175   2.376 -0.5160  1.4894 -0.3258
 9092TIP3    H251472   2.753   6.280   2.400  0.1782  0.9939 -1.1657
 9093TIP3   OH251473   7.319   7.538   0.747 -0.4171  0.7516  0.2661
 9093TIP3    H151474   7.230   7.513   0.773 -1.1914  2.3073 -0.7134
 9093TIP3    H251475   7.307   7.580   0.662  1.4963 -0.5642 -0.7302
 9094TIP3   OH251476   3.754   6.183   0.568 -0.2163 -0.1942 -0.8525
 9094TIP3    H151477   3.826   6.122   0.548  0.3584  0.5809 -1.2143
 9094TIP3    H251478   3.798   6.257   0.610 -1.2383 -1.3239  2.5845
 9095TIP3   OH251479   4.280   5.572   2.673  0.2187  0.2619 -0.9134
 9095TIP3    H151480   4.319   5.569   2.760 -0.1123 -0.9193 -0.7885
 9095TIP3    H251481   4.205   5.514   2.678 -0.3410  0.8861 -1.7392
 9096TIP3   OH251482   0.799   2.397   2.351  0.6227 -0.9609 -0.3925
 9096TIP3    H151483   0.759   2.365   2.270  1.1881 -0.5232 -0.8467
 9096TIP3    H251484   0.880   2.347   2.359  1.3870  0.1525 -0.9724
 9097TIP3   OH251485   6.533   5.361   1.926  0.3999 -0.0533  0.3170
 9097TIP3    H151486   6.534   5.451   1.894  1.5067  0.4396  1.6185
 9097TIP3    H251487   6.484   5.312   1.860  0.3942  1.3631 -0.7729
 9098TIP3   OH251488   4.766   0.988   1.493 -0.0965 -0.4355  0.2604
 9098TIP3    H151489   4.714   1.068   1.486  0.0108 -0.3820  0.0695
 9098TIP3    H251490   4.850   1.010   1.453 -0.1313 -0.7008  0.0410
 9099TIP3   OH251491   3.372   5.455   1.999 -0.4043 -0.0193 -0.7008
 9099TIP3    H151492   3.365   5.505   2.080 -0.4297 -1.5468  0.2654
 9099TIP3    H251493   3.283   5.452   1.965 -0.4866  0.1525 -0.5011
 9100TIP3   OH251494   6.763   3.802   1.170 -0.2424 -0.1079  0.3512
 9100TIP3    H151495   6.794   3.818   1.260  0.2422  3.8124 -0.3237
 9100TIP3    H251496   6.671   3.827   1.172 -0.1934  0.1205 -0.2524
 9101TIP3   OH251497   7.280   2.343   2.573 -0.3310 -0.3584 -0.2017
 9101TIP3    H151498   7.289   2.269   2.634  0.3160  0.2769  0.4916
 9101TIP3    H251499   7.247   2.415   2.627  2.1079  0.7945 -0.1199
 9102TIP3   OH251500   2.299   3.717   0.602 -0.7204 -0.0551 -0.2053
 9102TIP3    H151501   2.269   3.808   0.616  0.4858  0.3441 -0.1131
 9102TIP3    H251502   2.291   3.677   0.688  1.7644  0.9121  0.5535
 9103TIP3   OH251503   2.822   3.130   1.527  0.1757  0.0896 -0.1998
 9103TIP3    H151504   2.835   3.171   1.441  0.8708  0.4325  0.0576
 9103TIP3    H251505   2.794   3.041   1.508  0.0502  0.2506 -0.7809
 9104TIP3   OH251506   3.586   0.456   1.612 -0.2827  0.8902 -0.1278
 9104TIP3    H151507   3.566   0.458   1.705 -0.1805  2.1201 -0.1191
 9104TIP3    H251508   3.641   0.533   1.597  2.1003 -0.7972 -0.6865
 9105TIP3   OH251509   3.833   4.276   2.179 -0.0319  0.0136  0.4322
 9105TIP3    H151510   3.867   4.187   2.174 -0.5543 -0.1782  0.2397
 9105TIP3    H251511   3.754   4.269   2.232 -1.3793 -0.0549 -1.4876
 9106TIP3   OH251512   6.331   4.087   2.152  0.0568  0.1130  0.4659
 9106TIP3    H151513   6.363   4.148   2.086 -1.4720  0.7817  0.2819
 9106TIP3    H251514   6.409   4.055   2.196  1.1126 -0.2202 -1.5503
 9107TIP3   OH251515   3.123   4.252   3.261  0.1233  0.3025  0.2074
 9107TIP3    H151516   3.129   4.256   3.166  0.0604  0.1905  0.1991
 9107TIP3    H251517   3.168   4.171   3.285 -0.3859  0.0176  0.2278
 9108TIP3   OH251518   7.021   5.724   1.900 -0.3239 -0.4784  0.2332
 9108TIP3    H151519   7.084   5.752   1.834 -0.9060  0.0057 -0.1201
 9108TIP3    H251520   7.075   5.701   1.976  0.3137 -0.6098 -0.2521
 9109TIP3   OH251521   4.683   0.666   0.920 -0.0511 -0.1273 -0.4789
 9109TIP3    H151522   4.770   0.701   0.942 -0.5651  0.8034  0.0965
 9109TIP3    H251523   4.635   0.668   1.002 -0.3874 -1.3842 -0.6227
 9110TIP3   OH251524   0.168   7.242   3.183  0.0605  0.0272 -0.2893
 9110TIP3    H151525   0.096   7.196   3.228 -0.1697  0.2394 -0.4375
 9110TIP3    H251526   0.244   7.186   3.198  0.0650  0.2664  0.6594
 9111TIP3   OH251527   3.149   2.114   1.876  0.2047 -0.6075  0.3835
 9111TIP3    H151528   3.075   2.070   1.835 -2.0290 -0.0019  3.3899
 9111TIP3    H251529   3.178   2.054   1.945  0.8037  0.2426  0.9044
 9112TIP3   OH251530   3.990   0.313   1.375 -0.2015 -0.8236  0.0192
 9112TIP3    H151531   3.972   0.287   1.465 -1.2972 -1.6491 -0.4099
 9112TIP3    H251532   4.025   0.234   1.334  0.7189 -0.3276 -0.1877
 9113TIP3   OH251533   2.727   2.584   1.651  0.1354  0.0542  0.0692
 9113TIP3    H151534   2.810   2.588   1.604  0.0512 -1.3366 -0.2388
 9113TIP3    H251535   2.660   2.583   1.582 -0.1146  0.5919  0.2983
 9114TIP3   OH251536   1.518   4.326   0.808 -0.1800  0.5967  0.0073
 9114TIP3    H151537   1.610   4.352   0.807 -0.2985  1.0204 -0.6574
 9114TIP3    H251538   1.482   4.368   0.886 -0.0838  1.4443 -0.3921
 9115TIP3   OH251539   6.707   3.843   2.362 -0.0726  0.4409  0.0722
 9115TIP3    H151540   6.634   3.896   2.330 -0.9663 -0.8865 -0.1608
 9115TIP3    H251541   6.732   3.885   2.445 -0.3064  1.6018 -0.4220
 9116TIP3   OH251542   5.781   1.675   1.772  0.1826 -0.0445 -0.1670
 9116TIP3    H151543   5.776   1.725   1.853  0.0717  0.0272 -0.2179
 9116TIP3    H251544   5.865   1.701   1.733  1.6362 -2.2010  1.3091
 9117TIP3   OH251545   2.037   5.184   0.789 -0.0270 -0.4902  0.5903
 9117TIP3    H151546   2.002   5.166   0.876 -2.9739  0.0601 -0.3542
 9117TIP3    H251547   2.017   5.106   0.738 -0.5237  0.1165 -0.1666
 9118TIP3   OH251548   7.158   0.963   2.381 -0.4729  0.0922  0.3460
 9118TIP3    H151549   7.230   1.019   2.354 -0.5339 -0.7735 -1.7683
 9118TIP3    H251550   7.200   0.883   2.413 -0.4773  0.2226  0.6913
 9119TIP3   OH251551   2.229   2.566   3.213 -0.2972 -0.2236  0.3948
 9119TIP3    H151552   2.203   2.474   3.213 -2.1495  0.2545 -0.5200
 9119TIP3    H251553   2.324   2.563   3.198 -0.3120 -1.9670  0.3630
 9120TIP3   OH251554   6.501   1.748   0.644  0.5023  0.2244  0.1642
 9120TIP3    H151555   6.452   1.821   0.682  3.1254  1.7148  0.9578
 9120TIP3    H251556   6.521   1.776   0.555  0.9019  0.1716  0.2329
 9121TIP3   OH251557   6.225   7.327   1.244 -0.0727  0.6573 -0.4210
 9121TIP3    H151558   6.197   7.236   1.244 -0.7953  0.8697  0.3801
 9121TIP3    H251559   6.190   7.364   1.325  2.0104  1.1116  0.3238
 9122TIP3   OH251560   6.200   0.497   2.258 -0.4221 -0.2179 -0.1235
 9122TIP3    H151561   6.283   0.451   2.268 -0.9368 -1.7654 -2.1996
 9122TIP3    H251562   6.160   0.457   2.180 -1.7083  2.5991 -1.0420
 9123TIP3   OH251563   1.040   3.476   1.898 -0.3866 -0.1889  0.2594
 9123TIP3    H151564   1.068   3.390   1.869 -0.5656 -0.5717  1.1832
 9123TIP3    H251565   0.972   3.502   1.836  0.2026 -0.3789 -0.4658
 9124TIP3   OH251566   1.798   7.677   0.890 -0.3410 -0.7566  0.0576
 9124TIP3    H151567   1.806   7.769   0.916 -0.8400 -0.2689 -1.4316
 9124TIP3    H251568   1.774   7.680   0.797  0.6246 -2.4097 -0.2805
 9125TIP3   OH251569   4.810   1.536   2.064 -0.1173  0.4222 -0.2113
 9125TIP3    H151570   4.861   1.538   1.983  0.7358  4.1235  0.2265
 9125TIP3    H251571   4.720   1.553   2.037 -0.1506 -0.2290 -0.5178
 9126TIP3   OH251572   4.199   3.419   1.945  0.0244  0.2627 -0.2723
 9126TIP3    H151573   4.142   3.379   1.879 -0.5941 -0.6081  0.7607
 9126TIP3    H251574   4.163   3.390   2.028  1.1024  0.9278  0.4463
 9127TIP3   OH251575   7.575   4.484   0.828 -0.2270 -0.5254 -0.1329
 9127TIP3    H151576   7.506   4.548   0.812 -1.0467 -1.4202 -0.3164
 9127TIP3    H251577   7.642   4.532   0.877 -0.7360  0.5024 -0.4107
 9128TIP3   OH251578   5.719   1.172   1.089  0.1520  0.0144  0.6682
 9128TIP3    H151579   5.630   1.187   1.123 -0.7330 -1.3845 -0.8985
 9128TIP3    H251580   5.714   1.194   0.996  1.0787 -1.3285  0.2648
 9129TIP3   OH251581   3.692   1.838   2.408 -0.1652 -0.4500 -0.3908
 9129TIP3    H151582   3.708   1.806   2.319 -1.2828 -0.9243 -0.4420
 9129TIP3    H251583   3.609   1.797   2.433 -1.0627  1.4847 -0.0217
 9130TIP3   OH251584   2.563   1.399   2.598 -0.4107 -0.1889 -0.1337
 9130TIP3    H151585   2.635   1.461   2.607 -1.5562  1.4547 -1.5798
 9130TIP3    H251586   2.578   1.334   2.666  1.2329  1.3038  1.0036
 9131TIP3   OH251587   1.517   0.512   1.028 -0.0110  0.2615 -0.2363
 9131TIP3    H151588   1.423   0.521   1.043 -0.0011  1.6341 -0.8291
 9131TIP3    H251589   1.532   0.552   0.942  1.1047  0.0484 -0.1625
 9132TIP3   OH251590   7.459   4.570   1.527 -0.7533 -0.4169  0.2262
 9132TIP3    H151591   7.364   4.571   1.521 -0.9418  2.5569  1.7421
 9132TIP3    H251592   7.487   4.641   1.468  0.0957  1.6599  2.9055
 9133TIP3   OH251593   6.960   6.829   0.898  0.4715 -0.2876  0.0513
 9133TIP3    H151594   6.981   6.893   0.966 -1.0357  0.8919 -0.5404
 9133TIP3    H251595   6.936   6.750   0.947  2.3879 -0.4664  0.7856
 9134TIP3   OH251596   6.644   6.233   2.245  0.2559  0.3883  0.1453
 9134TIP3    H151597   6.559   6.258   2.281 -0.6558  0.3260 -1.8395
 9134TIP3    H251598   6.704   6.239   2.319 -1.2558  1.5293  1.3407
 9135TIP3   OH251599   0.775   6.700   1.714  0.1787 -0.1411 -0.0413
 9135TIP3    H151600   0.838   6.644   1.761  0.6702  0.1652 -0.3266
 9135TIP3    H251601   0.797   6.789   1.742 -0.8391 -0.1013  0.6981
 9136TIP3   OH251602   3.299   4.075   0.979  0.0744 -0.1015 -0.6040
 9136TIP3    H151603   3.385   4.115   0.989 -0.3427  0.9020 -0.8581
 9136TIP3    H251604   3.272   4.099   0.891  0.3874 -2.1590 -1.3095
 9137TIP3   OH251605   0.773   1.829   2.270 -0.7725 -0.1721 -0.1628
 9137TIP3    H151606   0.843   1.767   2.289 -1.0626 -0.0617  1.4242
 9137TIP3    H251607   0.714   1.782   2.211 -0.1780 -0.8357 -0.2422
 9138TIP3   OH251608   6.553   0.073   3.192  0.2505  0.3973 -0.0261
 9138TIP3    H151609   6.576   0.012   3.122  0.7011  1.4606 -0.8355
 9138TIP3    H251610   6.496   0.138   3.150  0.6706  1.1556  0.5517
 9139TIP3   OH251611   0.240   2.201   3.167 -0.1662 -0.1555 -0.4223
 9139TIP3    H151612   0.316   2.241   3.210 -0.0236 -1.0398  0.1703
 9139TIP3    H251613   0.171   2.266   3.174 -0.5708 -0.7745  2.4107
 9140TIP3   OH251614   3.780   0.429   1.006  0.5252  0.3746 -0.3922
 9140TIP3    H151615   3.808   0.344   0.972 -0.8962 -0.2173 -0.1700
 9140TIP3    H251616   3.774   0.416   1.101 -2.0530 -0.0796 -0.5433
 9141TIP3   OH251617   6.583   0.241   1.368 -0.5860 -0.1425  0.4891
 9141TIP3    H151618   6.547   0.156   1.343  1.7978 -1.5245  1.3371
 9141TIP3    H251619   6.570   0.297   1.292 -2.2686 -1.2356 -0.0674
 9142TIP3   OH251620   1.797   0.234   2.055  0.0721  0.0909 -0.1347
 9142TIP3    H151621   1.892   0.225   2.045  0.1567  0.3439  0.4062
 9142TIP3    H251622   1.775   0.317   2.013  0.0617 -0.0464 -0.4058
 9143TIP3   OH251623   1.773   6.422   0.904 -0.2508  0.4786 -0.0213
 9143TIP3    H151624   1.709   6.396   0.838 -1.5674  0.5083  1.1699
 9143TIP3    H251625   1.721   6.431   0.984  0.7494  3.2299  0.4290
 9144TIP3   OH251626   0.516   1.932   2.343  0.4019  0.0328  0.1617
 9144TIP3    H151627   0.500   1.925   2.249 -0.4844 -1.7838  0.4061
 9144TIP3    H251628   0.604   1.896   2.355  0.2545 -0.3468  0.1039
 9145TIP3   OH251629   0.427   2.890   1.647  0.1448 -0.4820 -0.0647
 9145TIP3    H151630   0.340   2.851   1.644  0.1907 -0.9095  2.2549
 9145TIP3    H251631   0.412   2.984   1.642 -0.3058 -0.5909 -1.1206
 9146TIP3   OH251632   2.138   0.419   1.425  0.1415  0.0830 -0.1438
 9146TIP3    H151633   2.149   0.363   1.502 -0.2250 -0.9916 -0.8545
 9146TIP3    H251634   2.179   0.369   1.353  1.2264  1.4296 -0.5086
 9147TIP3   OH251635   4.072   7.069   2.026  0.0670 -0.1847 -0.0959
 9147TIP3    H151636   4.012   7.041   1.958  0.2009 -0.2933 -0.1701
 9147TIP3    H251637   4.154   7.024   2.006  0.3807  0.5154 -0.4088
 9148TIP3   OH251638   1.128   0.199   0.467  0.3838  0.6850  0.1151
 9148TIP3    H151639   1.053   0.197   0.407  1.4899  0.1893 -1.2896
 9148TIP3    H251640   1.089   0.220   0.552 -1.5467 -0.9820 -0.2758
 9149TIP3   OH251641   3.453   5.019   1.247  0.1425  0.3672 -0.0180
 9149TIP3    H151642   3.460   4.953   1.315  1.6466  1.8831  1.4038
 9149TIP3    H251643   3.524   4.999   1.186  1.6562  1.5196  1.2770
 9150TIP3   OH251644   7.643   4.938   1.163 -0.1084  0.2082 -0.1912
 9150TIP3    H151645   7.605   4.924   1.077 -0.0160 -2.8059  0.1487
 9150TIP3    H251646   7.737   4.951   1.146 -0.3302  1.4058 -0.6096
 9151TIP3   OH251647   2.590   3.369   2.482 -0.2754 -0.1719  0.3149
 9151TIP3    H151648   2.626   3.281   2.493  1.3844  0.6563  2.0224
 9151TIP3    H251649   2.631   3.402   2.402 -0.4787 -0.7368 -0.0239
 9152TIP3   OH251650   3.556   1.641   3.054  0.1812  0.4117  0.6549
 9152TIP3    H151651   3.543   1.735   3.043  0.7202  0.4536  0.3556
 9152TIP3    H251652   3.468   1.604   3.045 -0.3232  1.0455  2.5873
 9153TIP3   OH251653   0.682   7.372   1.591 -0.0024 -0.4211  0.0678
 9153TIP3    H151654   0.703   7.337   1.678 -1.8220 -0.7551  0.4206
 9153TIP3    H251655   0.587   7.361   1.584 -0.3047  2.1594 -0.8322
 9154TIP3   OH251656   2.300   4.328   2.475 -0.0470  0.2021 -0.1362
 9154TIP3    H151657   2.358   4.396   2.509  0.2145  0.2136 -0.5868
 9154TIP3    H251658   2.212   4.356   2.500  0.2570 -0.9758  2.6049
 9155TIP3   OH251659   5.091   4.307   2.245  0.5575 -0.9668 -0.2117
 9155TIP3    H151660   5.095   4.221   2.287  0.4962 -0.3277  1.1728
 9155TIP3    H251661   5.145   4.363   2.301 -0.3411  0.1574 -0.4343
 9156TIP3   OH251662   0.764   5.104   0.911  0.3350 -0.0819  0.4518
 9156TIP3    H151663   0.719   5.027   0.947  0.4180 -0.2781  0.1364
 9156TIP3    H251664   0.838   5.068   0.863  0.3798  0.1976  0.3096
 9157TIP3   OH251665   5.549   0.812   0.745 -0.7129  0.0434 -0.0893
 9157TIP3    H151666   5.469   0.761   0.731  0.5748 -1.9348 -0.6050
 9157TIP3    H251667   5.566   0.804   0.839 -0.3295 -0.8091 -0.2221
 9158TIP3   OH251668   4.992   5.629   2.707  0.0657  0.1431 -0.0482
 9158TIP3    H151669   5.051   5.556   2.687 -2.2096 -1.1232 -2.8786
 9158TIP3    H251670   5.009   5.693   2.638 -1.4097 -0.0150 -0.6023
 9159TIP3   OH251671   4.418   6.428   2.309 -0.2273  0.4543 -0.1635
 9159TIP3    H151672   4.498   6.417   2.360  0.1918 -0.7321 -1.0534
 9159TIP3    H251673   4.353   6.374   2.354  0.2087 -0.7985 -0.9862
 9160TIP3   OH251674   5.100   1.009   0.894 -0.2524 -1.2135 -0.6048
 9160TIP3    H151675   5.167   0.941   0.894  1.0899  0.0706 -1.1446
 9160TIP3    H251676   5.091   1.033   0.802  0.6231  0.5763 -0.2656
 9161TIP3   OH251677   6.411   7.034   2.621 -0.0904  0.1275  0.5034
 9161TIP3    H151678   6.481   7.027   2.556 -0.9587 -1.0968 -0.3581
 9161TIP3    H251679   6.444   6.987   2.697  0.9025  1.4903  0.9302
 9162TIP3   OH251680   0.286   1.157   2.124 -0.2631  0.7768  0.1252
 9162TIP3    H151681   0.250   1.106   2.051 -0.4850  1.4127 -0.2179
 9162TIP3    H251682   0.381   1.155   2.110  0.1708 -2.8323  2.2805
 9163TIP3   OH251683   6.177   0.927   1.492 -0.2832  0.3312 -0.0090
 9163TIP3    H151684   6.088   0.950   1.518 -0.5868 -0.9982  0.1891
 9163TIP3    H251685   6.181   0.952   1.399 -1.1304 -0.2963 -0.2352
 9164TIP3   OH251686   0.674   6.131   1.540  0.2049  0.0833  0.1504
 9164TIP3    H151687   0.676   6.226   1.525  0.2475  0.1187  0.3783
 9164TIP3    H251688   0.665   6.122   1.635  2.3086 -0.1342  0.3836
 9165TIP3   OH251689   5.420   4.483   2.991 -0.5310 -0.7595 -0.1726
 9165TIP3    H151690   5.429   4.414   3.056  0.2077 -1.5462 -1.0804
 9165TIP3    H251691   5.426   4.564   3.041 -0.5146 -1.3498  0.7992
 9166TIP3   OH251692   3.012   1.749   2.095 -0.0395 -0.0697  0.1623
 9166TIP3    H151693   3.070   1.739   2.170  0.7440 -0.3355 -0.4693
 9166TIP3    H251694   3.010   1.663   2.054 -0.9561 -0.0880  0.2222
 9167TIP3   OH251695   4.101   2.806   1.700 -0.4806  0.0247  0.1474
 9167TIP3    H151696   4.067   2.721   1.671  0.2539  0.1340 -1.1194
 9167TIP3    H251697   4.196   2.798   1.689 -0.4510  1.2280 -0.6313
 9168TIP3   OH251698   3.322   6.576   2.552  0.0194  0.5238 -0.0258
 9168TIP3    H151699   3.367   6.657   2.528 -0.5343  0.7502 -0.3071
 9168TIP3    H251700   3.383   6.531   2.611 -0.3208  1.8751  1.4133
 9169TIP3   OH251701   7.447   5.579   1.601  0.7986 -0.1198  0.5980
 9169TIP3    H151702   7.438   5.616   1.513  0.7029 -0.8050  0.3120
 9169TIP3    H251703   7.496   5.645   1.650  0.6715  0.3615  0.0899
 9170TIP3   OH251704   5.942   3.389   1.416  0.1771 -0.7434 -0.1855
 9170TIP3    H151705   5.958   3.479   1.444 -3.4544  0.4007 -1.3022
 9170TIP3    H251706   6.015   3.370   1.357  1.4549  1.1531  0.6752
 9171TIP3   OH251707   6.882   5.983   0.633 -0.0463  0.6028  0.3399
 9171TIP3    H151708   6.960   5.933   0.658 -0.7259 -0.5910  0.1365
 9171TIP3    H251709   6.894   6.002   0.540  0.0324  0.4778  0.3243
 9172TIP3   OH251710   6.879   4.468   1.650 -0.3141  0.2120  0.0825
 9172TIP3    H151711   6.785   4.470   1.666 -0.4437 -0.5984 -0.5181
 9172TIP3    H251712   6.912   4.402   1.710 -0.1694  0.2977  0.0979
 9173TIP3   OH251713   6.419   6.605   2.163 -0.5727  0.1715 -0.4964
 9173TIP3    H151714   6.490   6.642   2.111 -1.5859  1.3644 -1.0901
 9173TIP3    H251715   6.412   6.514   2.133 -0.2845  0.4699 -1.5161
 9174TIP3   OH251716   1.069   4.156   1.813 -0.1499 -0.5491  0.0313
 9174TIP3    H151717   1.041   4.067   1.836 -0.4667 -0.4622 -0.0192
 9174TIP3    H251718   1.163   4.157   1.834 -0.4814 -0.3699  1.6119
 9175TIP3   OH251719   4.428   5.457   2.422  0.2534 -0.1973 -0.1601
 9175TIP3    H151720   4.455   5.371   2.456 -0.9363 -0.5537 -0.0760
 9175TIP3    H251721   4.390   5.502   2.497  1.0637  0.5017 -0.1531
 9176TIP3   OH251722   5.963   6.443   1.686  0.7827  0.0548 -0.2043
 9176TIP3    H151723   5.959   6.394   1.768 -0.6751  0.6729  0.1162
 9176TIP3    H251724   6.055   6.472   1.680  0.6631  1.0403  1.8405
 9177TIP3   OH251725   0.097   7.111   2.516 -0.1996  0.5701  0.5597
 9177TIP3    H151726   0.061   7.145   2.598  0.1673 -0.4224  1.1486
 9177TIP3    H251727   0.133   7.025   2.539 -1.4906 -0.4392 -0.9447
 9178TIP3   OH251728   5.186   6.331   1.223 -0.9753 -0.1092 -0.2561
 9178TIP3    H151729   5.093   6.330   1.199 -0.9799  0.7043 -0.2845
 9178TIP3    H251730   5.220   6.412   1.185 -0.1846 -0.5425 -0.4836
 9179TIP3   OH251731   7.066   7.160   2.053 -0.6858 -0.1600 -0.3595
 9179TIP3    H151732   6.971   7.169   2.054 -1.0942 -3.3459  0.0928
 9179TIP3    H251733   7.088   7.141   1.961 -1.1908 -3.7936  0.1010
 9180TIP3   OH251734   1.612   0.692   0.835  0.5021 -0.0555  0.0209
 9180TIP3    H151735   1.617   0.707   0.741 -0.3493  0.4821  0.0538
 9180TIP3    H251736   1.578   0.773   0.871 -1.0992 -0.9171  0.5571
 9181TIP3   OH251737   2.603   2.368   2.457  0.1407 -0.1232 -0.1570
 9181TIP3    H151738   2.687   2.330   2.433 -0.2037 -0.3057 -1.1241
 9181TIP3    H251739   2.625   2.450   2.501  0.8511  1.6691 -3.5229
 9182TIP3   OH251740   4.546   0.376   2.585  0.1675  0.5222  0.1195
 9182TIP3    H151741   4.599   0.318   2.641 -1.2013  0.3370  1.2775
 9182TIP3    H251742   4.489   0.316   2.537 -0.1620  0.8205  0.1423
 9183TIP3   OH251743   1.444   6.543   1.928 -0.0364  0.4619  0.2548
 9183TIP3    H151744   1.479   6.625   1.894 -0.5786  0.2592 -0.8604
 9183TIP3    H251745   1.365   6.528   1.876 -0.8557  0.0611  1.5548
 9184TIP3   OH251746   5.774   2.924   0.973  0.2494  0.3391 -0.4775
 9184TIP3    H151747   5.793   2.895   0.884  2.6843  1.4492 -0.4011
 9184TIP3    H251748   5.768   2.844   1.024 -2.1561 -0.3796 -1.7336
 9185TIP3   OH251749   0.288   3.600   2.608  0.0211 -0.3251 -0.0357
 9185TIP3    H151750   0.236   3.584   2.687  0.2325 -1.6186 -0.1382
 9185TIP3    H251751   0.319   3.690   2.617 -0.3755 -0.2897  1.0997
 9186TIP3   OH251752   7.641   2.827   2.003  0.1991 -0.3042 -0.0873
 9186TIP3    H151753   7.583   2.755   1.979  0.1244 -0.3134  0.1148
 9186TIP3    H251754   7.643   2.825   2.099 -0.4661  0.4795 -0.0455
 9187TIP3   OH251755   2.449   7.659   3.060 -0.1444 -0.2902  0.5341
 9187TIP3    H151756   2.405   7.598   3.001 -1.0731 -0.3513  1.2864
 9187TIP3    H251757   2.496   7.603   3.122 -0.6101 -0.2424  0.9333
 9188TIP3   OH251758   7.086   4.280   2.424 -0.0518 -0.1050 -0.2914
 9188TIP3    H151759   7.020   4.279   2.493  0.8299 -1.2303  0.5703
 9188TIP3    H251760   7.089   4.189   2.391 -0.5210  0.4199 -1.8908
 9189TIP3   OH251761   3.400   0.983   1.040  0.0653 -0.5053 -0.1334
 9189TIP3    H151762   3.467   0.923   1.072  0.9887  0.2423 -0.6150
 9189TIP3    H251763   3.376   1.036   1.116  1.9815  1.0142 -0.5059
 9190TIP3   OH251764   4.978   2.133   0.970  0.1265  0.5050  0.1931
 9190TIP3    H151765   4.904   2.073   0.960 -0.3804  1.2429 -0.6433
 9190TIP3    H251766   4.953   2.210   0.918  2.3786 -0.0498 -1.9124
 9191TIP3   OH251767   3.482   3.095   0.904 -0.0312  0.3147 -0.3357
 9191TIP3    H151768   3.534   3.035   0.852 -1.2251  0.5840 -1.9123
 9191TIP3    H251769   3.481   3.057   0.992  1.6990 -0.3564 -0.5757
 9192TIP3   OH251770   2.791   4.279   2.940  0.3733  0.3287  0.0420
 9192TIP3    H151771   2.804   4.211   2.873 -0.8638  0.5077 -0.4022
 9192TIP3    H251772   2.848   4.350   2.913  1.7541 -0.5484  0.5575
 9193TIP3   OH251773   6.235   6.908   2.465 -0.1261 -0.5207 -0.3991
 9193TIP3    H151774   6.284   6.968   2.522  0.1623 -0.5283 -0.6334
 9193TIP3    H251775   6.204   6.964   2.394  0.1867 -0.6526 -0.6455
 9194TIP3   OH251776   2.088   5.625   2.415  0.6773 -0.6562 -0.1041
 9194TIP3    H151777   2.143   5.689   2.460 -0.0261  0.8241 -1.2785
 9194TIP3    H251778   2.148   5.554   2.393  1.5890 -0.1900  0.7857
 9195TIP3   OH251779   6.753   4.394   0.715  0.2194  0.3550  0.1829
 9195TIP3    H151780   6.791   4.428   0.635 -0.8906  0.2956 -0.3915
 9195TIP3    H251781   6.757   4.298   0.704 -0.1086  0.3492  0.1105
 9196TIP3   OH251782   4.655   6.890   1.356  0.3718  0.0826 -0.4785
 9196TIP3    H151783   4.667   6.973   1.401 -1.2019 -0.2327  0.6354
 9196TIP3    H251784   4.617   6.913   1.271 -0.6334  0.5031  0.0664
 9197TIP3   OH251785   5.541   6.926   2.240  0.0915  0.3379  0.6749
 9197TIP3    H151786   5.468   6.985   2.225  0.4656  0.9148  1.0877
 9197TIP3    H251787   5.610   6.957   2.181 -0.1113 -0.4280  0.0194
 9198TIP3   OH251788   4.477   5.077   1.848 -0.2544 -0.0173  0.1042
 9198TIP3    H151789   4.559   5.108   1.809  0.0482  1.1166  1.5620
 9198TIP3    H251790   4.464   4.990   1.810  0.3554  0.7405 -1.9615
 9199TIP3   OH251791   1.854   4.862   3.191 -0.2206  0.3034  1.0018
 9199TIP3    H151792   1.802   4.790   3.155  0.5675  0.4176 -0.4686
 9199TIP3    H251793   1.937   4.822   3.216  0.0059  0.5921  0.7281
 9200TIP3   OH251794   6.513   3.100   0.919 -0.1464 -0.0994 -0.3386
 9200TIP3    H151795   6.440   3.056   0.964 -1.4726  2.0893 -0.1796
 9200TIP3    H251796   6.475   3.183   0.889  1.5827 -0.0956 -2.7210
 9201TIP3   OH251797   0.784   7.361   2.841 -0.6418  0.5431  0.6318
 9201TIP3    H151798   0.814   7.335   2.929  1.4834  1.2238  0.1712
 9201TIP3    H251799   0.703   7.313   2.829 -0.1841 -0.8030  2.3599
 9202TIP3   OH251800   1.262   4.070   1.031 -0.0895  0.0479  0.3097
 9202TIP3    H151801   1.174   4.080   0.993 -0.9859  0.8106  2.4082
 9202TIP3    H251802   1.260   3.983   1.072 -0.0545  0.2433  0.7377
 9203TIP3   OH251803   6.902   1.179   2.483  0.4590  0.6014  0.1933
 9203TIP3    H151804   6.919   1.228   2.403  1.9702  1.0310  0.7502
 9203TIP3    H251805   6.902   1.088   2.456 -2.3031  0.8050 -0.8466
 9204TIP3   OH251806   7.102   7.337   2.611 -0.1336  0.2739  0.5495
 9204TIP3    H151807   7.158   7.380   2.547  0.2428 -1.0770 -0.0705
 9204TIP3    H251808   7.149   7.345   2.694  0.5188 -0.0220  0.2095
 9205TIP3   OH251809   6.188   7.021   1.814  0.2822  0.3040 -0.3784
 9205TIP3    H151810   6.102   6.983   1.799  0.5777 -0.3525 -0.4452
 9205TIP3    H251811   6.188   7.102   1.763 -0.9021  1.2018  0.9540
 9206TIP3   OH251812   5.874   3.224   0.959 -0.6837  0.0994  0.2839
 9206TIP3    H151813   5.970   3.223   0.959 -0.6635 -0.4453 -1.0389
 9206TIP3    H251814   5.850   3.135   0.983 -0.8106 -0.3689 -1.4968
 9207TIP3   OH251815   3.260   3.123   1.321  0.0232 -0.3691 -0.0404
 9207TIP3    H151816   3.296   3.191   1.378  1.1429 -1.3774  0.5206
 9207TIP3    H251817   3.199   3.075   1.377 -0.5586 -0.0012 -0.3539
 9208TIP3   OH251818   5.305   5.574   1.513 -0.6641 -0.1970 -0.5472
 9208TIP3    H151819   5.323   5.658   1.473  0.3417 -0.1288  0.0152
 9208TIP3    H251820   5.237   5.535   1.458 -1.0696  0.9263 -0.8688
 9209TIP3   OH251821   1.887   4.481   3.244 -0.0772  0.7414  0.0854
 9209TIP3    H151822   1.805   4.526   3.260 -0.1173  1.2041 -1.2952
 9209TIP3    H251823   1.953   4.550   3.244  0.1001  0.5759 -0.3467
 9210TIP3   OH251824   4.508   7.021   2.174  0.7675 -0.1424  0.0902
 9210TIP3    H151825   4.422   6.993   2.204 -0.5737  2.3481 -1.0767
 9210TIP3    H251826   4.539   6.949   2.119 -1.5079 -0.3339 -1.0775
 9211TIP3   OH251827   0.250   5.018   1.153 -0.3738  0.1791 -0.0796
 9211TIP3    H151828   0.282   4.995   1.067 -0.1532 -0.9712  0.2966
 9211TIP3    H251829   0.325   5.006   1.212 -0.8496 -0.2426  0.4526
 9212TIP3   OH251830   2.207   4.376   1.897 -0.1594 -0.1051  0.4947
 9212TIP3    H151831   2.201   4.449   1.835 -1.2125 -0.7571 -0.1978
 9212TIP3    H251832   2.230   4.300   1.842  1.4242 -0.2246  1.2708
 9213TIP3   OH251833   5.761   3.365   1.189  0.4061  0.1049  0.1487
 9213TIP3    H151834   5.821   3.369   1.263  0.4795  0.8914  0.0530
 9213TIP3    H251835   5.804   3.307   1.126 -0.0634 -1.2955  1.0664
 9214TIP3   OH251836   4.125   6.989   2.436  0.2154  0.1458  0.0149
 9214TIP3    H151837   4.152   7.068   2.482 -0.5405  0.9444 -0.8586
 9214TIP3    H251838   4.039   6.967   2.473 -0.2167  0.5663 -0.7135
 9215TIP3   OH251839   6.806   7.228   2.067 -0.6446  0.2423 -0.0279
 9215TIP3    H151840   6.832   7.267   1.983 -0.5231  1.0406  0.3760
 9215TIP3    H251841   6.711   7.237   2.070 -0.8079 -0.9625 -0.6467
 9216TIP3   OH251842   3.626   5.867   2.418 -0.2945 -0.0206  0.0131
 9216TIP3    H151843   3.626   5.956   2.455 -0.4583 -0.6507  1.6306
 9216TIP3    H251844   3.698   5.867   2.356  0.6759  0.8438  1.0884
 9217TIP3   OH251845   4.816   2.237   1.604  0.0445 -0.1114  0.0388
 9217TIP3    H151846   4.839   2.251   1.695 -0.3855 -0.6227  0.2349
 9217TIP3    H251847   4.898   2.213   1.561  0.0348 -1.0873  0.5464
 9218TIP3   OH251848   3.997   2.829   2.068  0.0179 -0.5049  0.2020
 9218TIP3    H151849   4.076   2.774   2.066 -0.5390 -1.3051 -0.4409
 9218TIP3    H251850   4.030   2.918   2.053  0.7426 -0.9017 -0.6528
 9219TIP3   OH251851   2.859   0.321   1.919 -0.4740  0.5153 -0.1494
 9219TIP3    H151852   2.953   0.315   1.934 -0.7955 -2.0984  1.5243
 9219TIP3    H251853   2.851   0.359   1.832  2.0831  1.6512  0.0227
 9220TIP3   OH251854   0.658   3.868   1.287  0.2162 -0.0855  0.1037
 9220TIP3    H151855   0.596   3.853   1.358  0.1343  0.4491  0.1480
 9220TIP3    H251856   0.683   3.780   1.258 -3.0661 -0.4857 -2.1116
 9221TIP3   OH251857   3.390   7.446   0.373  0.1671 -0.2597 -0.1068
 9221TIP3    H151858   3.300   7.422   0.348  0.0947 -1.0376  0.8061
 9221TIP3    H251859   3.433   7.467   0.291 -0.9427  0.4460 -0.5363
 9222TIP3   OH251860   5.640   4.239   1.444  0.2372  0.3626 -0.8700
 9222TIP3    H151861   5.732   4.218   1.454  0.2189  0.9515  0.8996
 9222TIP3    H251862   5.594   4.157   1.460  0.4386  0.0095 -2.0177
 9223TIP3   OH251863   5.967   7.569   3.013 -0.5992 -0.2990  0.1741
 9223TIP3    H151864   5.876   7.587   3.037 -0.4137  0.9468  0.0101
 9223TIP3    H251865   6.014   7.648   3.038  0.3785 -0.7889 -0.0820
 9224TIP3   OH251866   0.821   4.037   2.063 -0.1585 -0.4992  0.4024
 9224TIP3    H151867   0.835   4.088   1.983 -0.8980  0.9007  1.1283
 9224TIP3    H251868   0.775   3.958   2.033  0.1135 -0.2815 -0.6268
 9225TIP3   OH251869   0.121   4.133   2.518  0.0834  0.4201  0.0180
 9225TIP3    H151870   0.050   4.192   2.543  0.9405  0.8571  1.6023
 9225TIP3    H251871   0.193   4.191   2.495  0.3001 -0.0202 -0.4429
 9226TIP3   OH251872   0.953   5.570   2.018 -0.3593 -0.1468  0.9620
 9226TIP3    H151873   1.021   5.535   1.961  0.6234 -0.5228  2.3406
 9226TIP3    H251874   0.899   5.624   1.960  0.9581 -0.0405 -0.2038
 9227TIP3   OH251875   0.920   5.005   1.394  0.3880  0.4117  0.5783
 9227TIP3    H151876   0.935   5.032   1.303  1.1943 -1.3438  0.1420
 9227TIP3    H251877   0.882   4.918   1.387  1.1543 -0.0598  1.9350
 9228TIP3   OH251878   1.297   7.160   0.971 -0.4831  0.3446 -0.1439
 9228TIP3    H151879   1.366   7.094   0.962 -0.2456  0.5779 -0.0304
 9228TIP3    H251880   1.230   7.117   1.025  0.8458  1.0933  2.2470
 9229TIP3   OH251881   4.572   4.211   1.264 -0.1897 -0.0019 -0.2446
 9229TIP3    H151882   4.622   4.285   1.231 -1.3850  0.5962 -0.7844
 9229TIP3    H251883   4.585   4.142   1.199  3.8053 -1.6449  1.9239
 9230TIP3   OH251884   1.227   0.803   1.005  0.5796 -0.0202 -0.1418
 9230TIP3    H151885   1.239   0.748   0.928  0.9793 -0.5882  0.3061
 9230TIP3    H251886   1.231   0.892   0.973  0.3657 -0.2559 -0.8278
 9231TIP3   OH251887   4.903   5.718   1.818  0.6435 -0.0120  0.0712
 9231TIP3    H151888   4.857   5.789   1.772  1.0399  0.1360 -0.1027
 9231TIP3    H251889   4.857   5.710   1.901  0.5494  0.4034  0.0627
 9232TIP3   OH251890   5.183   0.092   2.544 -0.4274  0.3701 -0.2310
 9232TIP3    H151891   5.099   0.093   2.589 -0.0623 -1.1196  0.5607
 9232TIP3    H251892   5.238   0.152   2.594 -0.7346  0.5863 -0.1550
 9233TIP3   OH251893   6.528   0.820   0.490 -0.2177 -0.1514  0.1590
 9233TIP3    H151894   6.573   0.772   0.560  1.5832  0.0492 -0.7957
 9233TIP3    H251895   6.598   0.867   0.445 -1.3331 -0.1967 -1.7073
 9234TIP3   OH251896   3.389   1.964   2.447  0.6375 -0.0093  0.1635
 9234TIP3    H151897   3.368   1.897   2.512 -0.9428 -1.8757 -2.0853
 9234TIP3    H251898   3.453   1.922   2.389  1.2739  1.2533 -0.0991
 9235TIP3   OH251899   7.280   0.811   1.162 -0.2168 -0.1173 -0.1702
 9235TIP3    H151900   7.261   0.875   1.230  0.8475 -0.9631  0.9708
 9235TIP3    H251901   7.316   0.736   1.209  2.1645 -0.1016 -1.7854
 9236TIP3   OH251902   3.472   1.129   0.631  0.0648  0.3741  0.3911
 9236TIP3    H151903   3.405   1.145   0.698 -0.0428 -0.7891  0.5991
 9236TIP3    H251904   3.441   1.050   0.586  0.7342  0.4757 -0.2528
 9237TIP3   OH251905   2.291   3.614   0.852  0.2642 -0.2794  0.4963
 9237TIP3    H151906   2.302   3.619   0.947  0.5352 -1.0504  0.5112
 9237TIP3    H251907   2.250   3.529   0.836 -2.2079  0.8965  0.1069
 9238TIP3   OH251908   1.986   5.918   1.473  0.0727 -0.1004  0.3845
 9238TIP3    H151909   1.957   5.905   1.563 -0.0168 -1.9241  0.1481
 9238TIP3    H251910   2.007   5.829   1.442  1.4392  0.6393 -0.9473
 9239TIP3   OH251911   6.729   0.718   1.130 -0.4359 -0.1283  0.0813
 9239TIP3    H151912   6.775   0.769   1.063 -1.5689  1.2176  0.2732
 9239TIP3    H251913   6.735   0.628   1.100  1.9160  0.0212 -0.1245
 9240TIP3   OH251914   3.129   3.664   1.704  0.6305  0.2675  0.1117
 9240TIP3    H151915   3.077   3.660   1.623  0.9953 -0.4796 -0.0979
 9240TIP3    H251916   3.087   3.601   1.762  0.5260  0.6150  0.4159
 9241TIP3   OH251917   2.521   6.791   1.877  1.0482  0.1676 -0.2106
 9241TIP3    H151918   2.536   6.875   1.834  0.6910 -0.2020 -1.0811
 9241TIP3    H251919   2.515   6.727   1.805 -0.6844 -0.2940  0.2811
 9242TIP3   OH251920   0.132   3.073   2.137  0.0514 -0.3550  0.0877
 9242TIP3    H151921   0.148   3.096   2.045 -0.6988 -0.7668 -0.1579
 9242TIP3    H251922   0.038   3.058   2.141  0.2001 -1.1516  0.7451
 9243TIP3   OH251923   5.904   3.025   2.375  0.0853 -0.3445  2.0282
 9243TIP3    H151924   5.914   3.080   2.297  0.3208 -1.1000  1.5107
 9243TIP3    H251925   5.819   3.050   2.411 -1.2664 -1.7676  0.0579
 9244TIP3   OH251926   3.741   5.141   2.791 -0.1633  0.7031 -0.0635
 9244TIP3    H151927   3.765   5.072   2.853 -1.2357 -0.8733 -1.3592
 9244TIP3    H251928   3.665   5.107   2.745  0.4582  1.9269 -2.1009
 9245TIP3   OH251929   3.718   4.726   3.177  0.1762  0.3412 -0.1363
 9245TIP3    H151930   3.800   4.721   3.226 -0.0380  1.4853  0.3603
 9245TIP3    H251931   3.656   4.674   3.229  0.8301 -1.5108 -1.1038
 9246TIP3   OH251932   4.435   4.426   1.375  0.2115  0.1126  0.1892
 9246TIP3    H151933   4.472   4.402   1.459 -2.4833 -1.0938  1.1655
 9246TIP3    H251934   4.469   4.360   1.314  2.1898  1.0090  0.2432
 9247TIP3   OH251935   6.991   5.572   1.084 -0.4947  0.1028 -0.0517
 9247TIP3    H151936   6.967   5.662   1.109 -1.2803  0.2166 -1.1429
 9247TIP3    H251937   6.931   5.517   1.135 -0.2494  0.2041  0.3546
 9248TIP3   OH251938   4.488   4.179   2.620 -0.2068  0.2125  0.8461
 9248TIP3    H151939   4.448   4.107   2.570  2.2917 -0.5227 -0.2190
 9248TIP3    H251940   4.554   4.215   2.561 -0.2515  2.3299  1.9984
 9249TIP3   OH251941   2.410   0.654   2.710  0.0400 -0.0286  0.1289
 9249TIP3    H151942   2.495   0.620   2.682  0.2615  0.8869 -0.3551
 9249TIP3    H251943   2.431   0.734   2.759 -0.5275  0.0565  0.2401
 9250TIP3   OH251944   3.093   0.084   1.756 -0.0849 -0.5434  0.1870
 9250TIP3    H151945   3.079   0.018   1.824 -0.5126 -1.2128 -0.5254
 9250TIP3    H251946   3.020   0.070   1.695 -0.8385  1.3453  0.5965
 9251TIP3   OH251947   6.528   0.423   1.799  0.4496 -0.0441 -0.1693
 9251TIP3    H151948   6.547   0.474   1.720 -3.1189 -0.4645 -1.4467
 9251TIP3    H251949   6.487   0.486   1.859 -0.5800 -0.5769 -0.2974
 9252TIP3   OH251950   6.799   4.500   2.234 -0.1263  0.7910 -0.1363
 9252TIP3    H151951   6.724   4.542   2.192 -0.0476  0.8831 -0.1840
 9252TIP3    H251952   6.763   4.459   2.312  0.0190  1.9691  0.5699
 9253TIP3   OH251953   5.418   5.272   1.286 -0.2630 -0.4789  0.0850
 9253TIP3    H151954   5.477   5.303   1.356  0.8164 -0.2110 -0.9074
 9253TIP3    H251955   5.477   5.237   1.219 -1.3396 -1.8271 -0.1850
 9254TIP3   OH251956   3.542   5.049   2.642 -0.2876  0.1314 -0.3043
 9254TIP3    H151957   3.495   4.966   2.635  0.9539 -0.6035 -0.0614
 9254TIP3    H251958   3.489   5.111   2.591 -1.5973 -0.6282  0.0982
 9255TIP3   OH251959   4.085   4.275   2.505 -0.0852 -0.3277  0.3404
 9255TIP3    H151960   4.116   4.281   2.415  2.0315  0.5332  1.0686
 9255TIP3    H251961   3.996   4.311   2.503  0.1893  0.3029 -1.2744
 9256TIP3   OH251962   6.710   5.006   1.529 -0.3788 -0.0100  0.1953
 9256TIP3    H151963   6.687   4.938   1.465  1.4720 -1.0603  0.5791
 9256TIP3    H251964   6.679   4.972   1.613 -0.8297  0.3442  0.1750
 9257TIP3   OH251965   7.486   4.606   1.858 -0.2851  0.2788 -0.0760
 9257TIP3    H151966   7.446   4.653   1.785  0.9691 -0.9358 -1.5972
 9257TIP3    H251967   7.452   4.516   1.851  0.5717 -0.0836  0.2673
 9258TIP3   OH251968   5.528   1.055   1.621  0.1031 -0.2678 -0.3860
 9258TIP3    H151969   5.466   1.128   1.616  1.1789  0.5854 -2.0057
 9258TIP3    H251970   5.599   1.087   1.676  1.5821  0.7920 -2.7367
 9259TIP3   OH251971   5.114   3.926   2.009  0.3549  0.2867 -0.2065
 9259TIP3    H151972   5.187   3.867   2.028  0.7369  1.3873  1.9500
 9259TIP3    H251973   5.147   3.984   1.940  1.5111  0.7150  0.6771
 9260TIP3   OH251974   6.613   1.796   0.976 -0.3339 -0.3337  0.0210
 9260TIP3    H151975   6.697   1.763   0.945 -0.8836 -1.5990 -0.2095
 9260TIP3    H251976   6.569   1.829   0.898  0.0041  0.4905  0.1688
 9261TIP3   OH251977   3.092   6.835   2.071 -0.2966  0.2420  0.6559
 9261TIP3    H151978   3.052   6.750   2.091  0.4524 -0.3240 -0.1505
 9261TIP3    H251979   3.030   6.877   2.012  0.6233 -0.9959 -1.2946
 9262TIP3   OH251980   7.402   3.370   2.103  0.4585 -0.3653  0.2336
 9262TIP3    H151981   7.433   3.300   2.161 -0.3304 -1.2004 -0.3316
 9262TIP3    H251982   7.307   3.359   2.101  0.4872 -0.5307 -1.4180
 9263TIP3   OH251983   0.591   5.047   0.580  0.2884  0.1402  0.1665
 9263TIP3    H151984   0.542   5.094   0.647  1.3901 -0.0693  1.1492
 9263TIP3    H251985   0.530   5.040   0.506 -0.2516  2.2018  0.3537
 9264TIP3   OH251986   6.244   4.536   1.314  0.2481  0.5765  0.4961
 9264TIP3    H151987   6.292   4.485   1.248 -0.3065  0.2623  0.3328
 9264TIP3    H251988   6.241   4.625   1.278 -0.9824  0.1841 -0.4166
 9265TIP3   OH251989   3.866   3.065   0.824 -0.2448 -0.0764  0.5391
 9265TIP3    H151990   3.842   3.108   0.906 -1.8075  0.4903 -0.1716
 9265TIP3    H251991   3.955   3.095   0.806 -0.2261  0.5190  1.5555
 9266TIP3   OH251992   4.622   1.502   2.312  0.1187  0.0424  0.6249
 9266TIP3    H151993   4.572   1.548   2.244  1.8553 -0.7561 -1.3045
 9266TIP3    H251994   4.576   1.419   2.323 -0.9476  0.7206  1.4664
 9267TIP3   OH251995   5.060   2.138   1.505 -0.1285 -0.2948  0.1466
 9267TIP3    H151996   5.138   2.088   1.530  0.4581  0.2070 -0.6255
 9267TIP3    H251997   5.024   2.090   1.430  0.1228  0.1337 -0.2499
 9268TIP3   OH251998   5.052   4.335   2.694 -0.5574 -0.2887 -0.3231
 9268TIP3    H151999   5.081   4.386   2.770 -0.6114 -1.1470  0.2841
 9268TIP3    H252000   4.960   4.315   2.712 -0.7078 -0.0907 -0.8508
 9269TIP3   OH252001   6.766   6.756   0.453  0.7726  0.2236  0.2881
 9269TIP3    H152002   6.853   6.753   0.412  1.1116 -0.2236  1.0046
 9269TIP3    H252003   6.774   6.699   0.529  0.1348  0.9393  0.9100
 9270TIP3   OH252004   0.481   2.685   1.419  0.0501 -0.2255  0.5724
 9270TIP3    H152005   0.548   2.679   1.351  0.1980  0.2266  0.6753
 9270TIP3    H252006   0.502   2.766   1.466 -1.8337  1.0933 -0.7185
 9271TIP3   OH252007   3.019   3.480   1.855  0.4505 -0.3849 -0.4002
 9271TIP3    H152008   2.928   3.451   1.851  0.2379  0.3827 -1.6242
 9271TIP3    H252009   3.031   3.510   1.945 -0.9114  0.7957 -0.5837
 9272TIP3   OH252010   1.578   3.775   2.937  0.2318  0.0373 -0.1092
 9272TIP3    H152011   1.514   3.829   2.983  0.2675 -0.1546  0.1677
 9272TIP3    H252012   1.619   3.722   3.005  1.3652  0.8355 -0.1340
 9273TIP3   OH252013   3.566   3.227   1.754  0.2456  0.0893 -0.0646
 9273TIP3    H152014   3.534   3.317   1.754  0.4269  0.1848 -1.7442
 9273TIP3    H252015   3.573   3.204   1.661  4.3748 -0.1123  0.1114
 9274TIP3   OH252016   3.190   7.094   2.134 -0.3348  0.1589 -0.5223
 9274TIP3    H152017   3.190   7.108   2.039  1.5723 -0.3875 -0.6389
 9274TIP3    H252018   3.161   7.003   2.144 -1.4877  0.5150 -0.4969
 9275TIP3   OH252019   7.485   4.511   0.381  0.0757  0.2577  0.1370
 9275TIP3    H152020   7.423   4.578   0.410 -0.7182  0.4349 -1.8172
 9275TIP3    H252021   7.453   4.484   0.296  0.6340 -2.3296  0.6613
 9276TIP3   OH252022   1.737   5.272   3.079 -0.6413  0.1653  0.3385
 9276TIP3    H152023   1.826   5.252   3.109 -0.1878  0.4400 -0.7796
 9276TIP3    H252024   1.705   5.339   3.140  0.4409  1.0814 -0.0723
 9277TIP3   OH252025   3.005   4.657   1.711  0.1283 -0.5464 -0.2501
 9277TIP3    H152026   3.068   4.630   1.645  0.8045 -2.1731  0.9888
 9277TIP3    H252027   3.030   4.747   1.732  0.9673 -0.5930 -0.9865
 9278TIP3   OH252028   7.368   0.327   0.561 -0.4488 -0.1083  0.3436
 9278TIP3    H152029   7.410   0.392   0.504  0.3150 -1.2238 -0.4065
 9278TIP3    H252030   7.275   0.346   0.554 -0.2836  0.5162 -0.3524
 9279TIP3   OH252031   3.147   3.318   2.121 -0.1520  0.3255 -0.5153
 9279TIP3    H152032   3.197   3.265   2.183 -1.2966  1.4091  1.4162
 9279TIP3    H252033   3.106   3.254   2.063 -1.5030 -1.0021  1.7416
 9280TIP3   OH252034   4.751   0.520   3.212 -0.3185 -0.3451 -0.3582
 9280TIP3    H152035   4.721   0.609   3.196  1.1282  0.3272  0.4842
 9280TIP3    H252036   4.826   0.530   3.271 -1.2188 -2.2272  1.1988
 9281TIP3   OH252037   3.993   5.103   3.187 -0.2430 -0.1785  0.6698
 9281TIP3    H152038   4.039   5.160   3.125 -1.8245  1.1229  0.6288
 9281TIP3    H252039   3.995   5.016   3.145  0.9024  0.1323  0.0245
 9282TIP3   OH252040   2.921   2.017   2.065  0.4278 -0.1341 -0.1452
 9282TIP3    H152041   2.954   1.935   2.101 -1.5368 -0.5650  0.8056
 9282TIP3    H252042   2.840   2.034   2.114  0.3316  1.9203 -0.9190
 9283TIP3   OH252043   2.821   1.321   1.252  0.0350  0.2677 -0.0408
 9283TIP3    H152044   2.857   1.407   1.273  0.0331  0.1795  0.3324
 9283TIP3    H252045   2.865   1.261   1.312  1.0105 -0.1946 -1.1804
 9284TIP3   OH252046   3.227   0.428   1.086 -0.1738 -0.1164  0.6295
 9284TIP3    H152047   3.273   0.421   1.169  1.1546  1.3141  0.0713
 9284TIP3    H252048   3.290   0.400   1.021 -0.5887  0.4408 -0.0342
 9285TIP3   OH252049   1.150   6.552   0.770  0.0752  0.8280 -0.2656
 9285TIP3    H152050   1.102   6.479   0.729 -0.9997  0.2387  1.9108
 9285TIP3    H252051   1.114   6.558   0.858  1.3761  2.9020  0.1916
 9286TIP3   OH252052   3.087   3.541   0.742 -0.5255 -0.3270  0.5316
 9286TIP3    H152053   3.001   3.537   0.784 -0.7600  2.0236  0.4070
 9286TIP3    H252054   3.125   3.624   0.773  0.6855 -0.1426 -1.2793
 9287TIP3   OH252055   5.591   0.535   1.592  0.5743  0.0131  0.1011
 9287TIP3    H152056   5.581   0.601   1.660  0.0898  0.1743 -0.1195
 9287TIP3    H252057   5.510   0.484   1.596  0.4279  0.1859 -0.5216
 9288TIP3   OH252058   4.722   6.010   3.444 -0.0886  0.4041 -0.1411
 9288TIP3    H152059   4.707   6.051   3.529 -0.0978  1.2758 -0.5525
 9288TIP3    H252060   4.759   6.079   3.390 -1.3633  0.2736 -1.2490
 9289TIP3   OH252061   4.332   6.072   2.034  0.0930 -0.4292 -0.1323
 9289TIP3    H152062   4.338   6.166   2.050 -1.3482 -0.5668  1.6812
 9289TIP3    H252063   4.238   6.056   2.025  0.2678 -1.7618  0.1666
 9290TIP3   OH252064   5.245   3.284   2.521  0.0857  0.4726 -0.6278
 9290TIP3    H152065   5.280   3.195   2.527  1.2412  0.7527 -2.6331
 9290TIP3    H252066   5.217   3.294   2.430 -1.7778  1.5749 -0.0074
 9291TIP3   OH252067   1.146   6.891   2.310  0.3592 -0.2004 -0.0563
 9291TIP3    H152068   1.096   6.815   2.281 -0.0266 -0.2426  0.6988
 9291TIP3    H252069   1.140   6.953   2.238 -0.6836 -0.2527 -0.0265
 9292TIP3   OH252070   0.765   5.902   1.109  0.6005  0.3444  0.4270
 9292TIP3    H152071   0.683   5.919   1.155  0.8229 -1.1851  1.4725
 9292TIP3    H252072   0.745   5.919   1.017 -0.2837  2.0106  0.8821
 9293TIP3   OH252073   5.900   3.017   1.711 -1.0607  0.1061  0.1826
 9293TIP3    H152074   5.850   3.097   1.724 -1.1931 -0.3966  3.3304
 9293TIP3    H252075   5.840   2.946   1.733 -0.3441 -0.7811 -0.5961
 9294TIP3   OH252076   0.481   5.507   3.070 -0.1597  0.2602  0.1696
 9294TIP3    H152077   0.499   5.458   3.150 -1.5194 -0.2503  0.1927
 9294TIP3    H252078   0.389   5.489   3.051  0.1962  0.1847 -1.6462
 9295TIP3   OH252079   1.419   0.977   2.567  0.1518  0.4354 -0.2534
 9295TIP3    H152080   1.425   0.970   2.662  3.3367  0.7744 -0.3394
 9295TIP3    H252081   1.417   1.071   2.549 -0.1464  0.3777 -0.5436
 9296TIP3   OH252082   6.912   0.707   2.776 -0.2976  0.0325 -0.9848
 9296TIP3    H152083   6.820   0.681   2.783 -0.0310 -0.6349  0.3479
 9296TIP3    H252084   6.960   0.642   2.827  0.5337  2.2612  1.3371
 9297TIP3   OH252085   2.702   0.672   2.525 -0.0892  0.0957 -0.2836
 9297TIP3    H152086   2.675   0.692   2.615 -2.4887 -0.7750 -0.7390
 9297TIP3    H252087   2.753   0.748   2.497 -0.1909  0.8419  1.4480
 9298TIP3   OH252088   5.063   1.918   2.794 -0.1761  0.4954  0.2302
 9298TIP3    H152089   5.014   2.000   2.795 -1.8524 -0.4376 -0.7765
 9298TIP3    H252090   4.996   1.851   2.779  1.3272 -0.9270 -0.3123
 9299TIP3   OH252091   6.303   2.955   0.989  0.0351  0.2721 -0.8078
 9299TIP3    H152092   6.310   2.867   0.952  2.4149  0.1808 -0.2879
 9299TIP3    H252093   6.252   2.943   1.069  0.0158 -0.5650 -0.9313
 9300TIP3   OH252094   6.344   3.251   1.767 -0.1977 -0.0873 -0.1648
 9300TIP3    H152095   6.286   3.176   1.776  0.2210 -0.5302 -1.0271
 9300TIP3    H252096   6.427   3.214   1.739 -0.1822  0.7506 -1.3172
 9301TIP3   OH252097   3.102   3.928   2.565 -0.7680  0.3582 -0.0651
 9301TIP3    H152098   3.119   4.012   2.609  1.4293  0.3467 -0.7824
 9301TIP3    H252099   3.017   3.941   2.523 -0.2318  2.4684 -0.6492
 9302TIP3   OH252100   1.733   1.099   3.123 -0.3157  0.5040  0.7060
 9302TIP3    H152101   1.704   1.014   3.157  0.4875  0.1415  0.5083
 9302TIP3    H252102   1.688   1.106   3.038  3.0211 -1.9245 -1.5724
 9303TIP3   OH252103   3.608   3.833   3.717 -0.1864 -0.0112 -0.1327
 9303TIP3    H152104   3.702   3.819   3.724 -0.2961 -0.6283  0.1164
 9303TIP3    H252105   3.581   3.776   3.645 -0.2024  0.9980 -0.9629
 9304TIP3   OH252106   2.525   5.455   3.201 -0.1968 -0.2829 -0.1551
 9304TIP3    H152107   2.563   5.445   3.289 -1.0183  0.6394  0.3140
 9304TIP3    H252108   2.514   5.365   3.170 -0.7550 -0.6545  1.0698
 9305TIP3   OH252109   4.190   1.018   1.329  0.5916  0.0817  0.0681
 9305TIP3    H152110   4.111   1.071   1.341 -0.0576 -1.3946  3.7987
 9305TIP3    H252111   4.246   1.041   1.403  1.5971 -2.2180  0.1288
 9306TIP3   OH252112   6.315   5.863   0.974 -0.0546 -0.5425 -0.2736
 9306TIP3    H152113   6.340   5.857   0.881 -1.4571  0.5034 -0.7406
 9306TIP3    H252114   6.264   5.784   0.990  0.7470 -1.0615 -0.1823
 9307TIP3   OH252115   6.663   6.133   1.850  0.0256 -0.5630 -0.1640
 9307TIP3    H152116   6.719   6.060   1.821 -0.9891 -0.8250 -1.5874
 9307TIP3    H252117   6.621   6.100   1.929  1.2210 -0.6787  0.4521
 9308TIP3   OH252118   5.439   6.193   3.127  0.4938  0.1219  0.3627
 9308TIP3    H152119   5.521   6.240   3.143  0.4887 -0.1927  1.3402
 9308TIP3    H252120   5.375   6.261   3.108  0.4392  0.5450  1.9478
 9309TIP3   OH252121   7.574   0.337   1.953 -0.0361  0.3707  0.2549
 9309TIP3    H152122   7.541   0.258   1.996 -1.0400  0.0093 -1.1003
 9309TIP3    H252123   7.508   0.403   1.973 -1.8274 -0.3866 -2.5767
 9310TIP3   OH252124   4.953   2.491   2.603 -0.3533 -0.4611  0.0190
 9310TIP3    H152125   5.024   2.503   2.666  0.4996 -2.5917 -0.4557
 9310TIP3    H252126   4.881   2.454   2.655 -0.7408  0.5934  0.2691
 9311TIP3   OH252127   0.973   0.206   1.199  0.2023  0.3005 -0.2746
 9311TIP3    H152128   0.969   0.262   1.276 -0.6799  0.0095 -0.1007
 9311TIP3    H252129   0.908   0.137   1.216 -0.8768  0.8946 -1.7931
 9312TIP3   OH252130   6.754   2.270   1.558 -0.0197  0.0600  0.1777
 9312TIP3    H152131   6.834   2.221   1.575  0.3543  0.2123 -1.0485
 9312TIP3    H252132   6.743   2.266   1.463 -1.9219 -0.6544  0.3835
 9313TIP3   OH252133   1.640   3.768   0.535 -0.3053 -0.1908  0.0612
 9313TIP3    H152134   1.585   3.846   0.531 -2.0539 -1.3421  0.4299
 9313TIP3    H252135   1.578   3.695   0.539  1.2110 -1.8082 -2.7902
 9314TIP3   OH252136   3.285   6.926   1.726  0.1863  0.5940 -0.3796
 9314TIP3    H152137   3.368   6.888   1.754 -1.2317 -1.6204  1.1938
 9314TIP3    H252138   3.302   6.960   1.638  2.4634 -0.7916 -0.5546
 9315TIP3   OH252139   1.466   2.762   0.925  0.0814 -0.2145 -0.3071
 9315TIP3    H152140   1.511   2.678   0.912 -0.0258 -0.8137  2.4600
 9315TIP3    H252141   1.385   2.754   0.876  1.1658 -0.6896 -2.1360
 9316TIP3   OH252142   4.674   2.211   2.027  0.4840  0.3244 -0.2750
 9316TIP3    H152143   4.618   2.261   1.968  1.1757  0.2205 -1.0268
 9316TIP3    H252144   4.635   2.225   2.114  0.1868  1.4991 -0.5754
 9317TIP3   OH252145   2.735   1.305   1.614  0.2329 -0.4941  0.2126
 9317TIP3    H152146   2.659   1.257   1.583 -1.1075  1.8187 -0.2740
 9317TIP3    H252147   2.752   1.269   1.701 -0.9133 -1.5815  0.0161
 9318TIP3   OH252148   5.129   4.585   2.905  0.5128 -0.1953 -0.5637
 9318TIP3    H152149   5.124   4.671   2.863  2.6043  0.3491  0.2140
 9318TIP3    H252150   5.039   4.568   2.934 -0.0200  1.5531 -1.0469
 9319TIP3   OH252151   2.608   0.632   1.634 -0.0061  0.2205  0.1067
 9319TIP3    H152152   2.562   0.556   1.669 -1.1837  1.7306  2.0024
 9319TIP3    H252153   2.542   0.702   1.632  1.8106  2.1020  1.6246
 9320TIP3   OH252154   0.256   4.163   0.604  0.2350  0.6339 -0.0950
 9320TIP3    H152155   0.287   4.132   0.689 -1.2759 -2.2381 -0.4435
 9320TIP3    H252156   0.166   4.191   0.620  0.4226  1.5063 -0.5032
 9321TIP3   OH252157   2.272   4.437   0.975  0.0428  0.0520 -0.6981
 9321TIP3    H152158   2.293   4.392   1.057  1.9711  0.3991 -0.9488
 9321TIP3    H252159   2.319   4.387   0.908 -1.4784 -0.2030 -1.6058
 9322TIP3   OH252160   5.940   1.403   3.265  0.1289  0.0369  0.1555
 9322TIP3    H152161   5.928   1.310   3.285  0.7612 -0.0400  0.2139
 9322TIP3    H252162   5.994   1.436   3.338 -1.0829  0.7311  0.7679
 9323TIP3   OH252163   5.800   6.533   2.116 -0.3418 -0.2001  0.5156
 9323TIP3    H152164   5.792   6.603   2.051 -0.0542 -0.4368  0.2246
 9323TIP3    H252165   5.759   6.457   2.075  0.4948 -0.5518  0.3038
 9324TIP3   OH252166   3.361   2.242   2.511  0.3702  0.4291 -0.1001
 9324TIP3    H152167   3.433   2.285   2.558 -1.2051  2.7065  0.4331
 9324TIP3    H252168   3.375   2.149   2.524  0.7477  0.8669  3.9360
 9325TIP3   OH252169   2.216   1.951   1.475  0.4390  0.5318  0.6253
 9325TIP3    H152170   2.222   1.896   1.396  0.8676  0.0489  0.9865
 9325TIP3    H252171   2.201   2.039   1.441 -0.8754  0.1204  0.0476
 9326TIP3   OH252172   7.133   6.557   0.905 -0.6224  0.4272  0.2677
 9326TIP3    H152173   7.162   6.649   0.907 -2.4784  1.1471 -1.8162
 9326TIP3    H252174   7.190   6.516   0.840 -2.5243  1.2643 -2.0679
 9327TIP3   OH252175   6.832   1.365   3.077 -0.3961 -0.0730  0.1707
 9327TIP3    H152176   6.918   1.346   3.114 -1.0818  2.0356  3.2640
 9327TIP3    H252177   6.847   1.438   3.016  0.0337  0.2999  0.7150
 9328TIP3   OH252178   1.451   2.227   2.566 -0.0216 -0.3285  0.1376
 9328TIP3    H152179   1.466   2.137   2.596  0.1569  0.0196  1.1458
 9328TIP3    H252180   1.526   2.276   2.600 -0.1339  0.2067 -0.3806
 9329TIP3   OH252181   4.744   7.061   0.812  0.4395  0.1035  0.1945
 9329TIP3    H152182   4.708   6.974   0.826 -1.2060  0.7348  0.0396
 9329TIP3    H252183   4.839   7.050   0.823  0.4564 -2.0499 -1.5797
 9330TIP3   OH252184   4.379   6.285   1.761 -0.0448  0.7060 -0.2562
 9330TIP3    H152185   4.404   6.195   1.781 -3.6036 -0.1318  1.3600
 9330TIP3    H252186   4.384   6.331   1.845  0.2258  1.5905 -0.7429
 9331TIP3   OH252187   3.512   6.559   2.122  0.3989 -0.1900  0.7711
 9331TIP3    H152188   3.586   6.593   2.173  0.5808  0.7216 -0.0629
 9331TIP3    H252189   3.552   6.496   2.061  0.3306 -0.4865  1.0291
 9332TIP3   OH252190   0.526   0.447   1.582  0.3944  0.6949  0.0014
 9332TIP3    H152191   0.586   0.467   1.654  0.7802 -0.4197  0.0156
 9332TIP3    H252192   0.541   0.516   1.518  1.2756  0.7554  0.2617
 9333TIP3   OH252193   6.919   4.301   2.086  0.6818 -0.6948  0.0925
 9333TIP3    H152194   6.889   4.217   2.121  0.1484 -1.2952 -1.6903
 9333TIP3    H252195   6.870   4.366   2.136 -1.0904 -1.5648 -0.4028
 9334TIP3   OH252196   2.514   4.939   1.517  0.3396 -0.3931 -0.3993
 9334TIP3    H152197   2.489   4.847   1.527 -1.5030  0.2376  1.1832
 9334TIP3    H252198   2.461   4.971   1.444  0.2609 -0.3344 -0.3164
 9335TIP3   OH252199   0.206   5.740   1.120  0.5576  0.1486 -0.4793
 9335TIP3    H152200   0.203   5.834   1.100  2.6169  0.2105 -0.7822
 9335TIP3    H252201   0.208   5.736   1.216  1.8410  0.5393 -0.4638
 9336TIP3   OH252202   5.118   7.615   1.099  0.4026 -0.3324  0.3028
 9336TIP3    H152203   5.058   7.631   1.172  3.2303  1.3471  2.4377
 9336TIP3    H252204   5.078   7.662   1.025 -2.9048 -2.6675  0.3568
 9337TIP3   OH252205   1.902   0.936   1.745  0.0574 -0.6802 -0.0940
 9337TIP3    H152206   1.901   0.866   1.811  0.6541  2.5487  3.6769
 9337TIP3    H252207   1.822   0.985   1.762  1.3140  1.5119 -0.2200
 9338TIP3   OH252208   4.269   4.537   3.192  0.2975  0.2843 -0.0601
 9338TIP3    H152209   4.265   4.606   3.126  0.0640  1.4581  1.1272
 9338TIP3    H252210   4.208   4.470   3.161  0.5817  0.5724 -1.2782
 9339TIP3   OH252211   4.016   2.030   2.794 -0.3205  0.0775  0.4233
 9339TIP3    H152212   3.987   1.996   2.710 -0.6843  0.3698  0.4276
 9339TIP3    H252213   3.946   2.005   2.855 -0.3999  0.4841  0.5013
 9340TIP3   OH252214   2.558   7.373   3.147  0.7991  0.2802  0.4944
 9340TIP3    H152215   2.533   7.291   3.191 -0.0777 -0.1743 -0.7716
 9340TIP3    H252216   2.646   7.391   3.179  1.4566 -1.7618  0.0097
 9341TIP3   OH252217   4.466   0.902   2.830  0.0286  0.4063  0.6597
 9341TIP3    H152218   4.551   0.916   2.789  0.9339 -0.2177  2.2173
 9341TIP3    H252219   4.452   0.808   2.825 -1.4019  0.6610 -1.0630
 9342TIP3   OH252220   6.094   6.441   1.077 -0.0735  0.5190  0.1109
 9342TIP3    H152221   6.055   6.524   1.104  0.0197  0.2229  1.2075
 9342TIP3    H252222   6.182   6.465   1.047 -1.0871  1.2214 -2.6029
 9343TIP3   OH252223   6.873   4.743   1.598  0.3905 -0.1751  0.0173
 9343TIP3    H152224   6.790   4.774   1.634 -0.0761  0.7549 -1.7345
 9343TIP3    H252225   6.869   4.648   1.607  0.5359  0.0250  2.7919
 9344TIP3   OH252226   1.737   2.441   1.986 -0.2131  1.1016  0.2558
 9344TIP3    H152227   1.782   2.391   2.055  1.4026  0.0588 -1.4549
 9344TIP3    H252228   1.658   2.390   1.967  0.2270  0.4463  0.1498
 9345TIP3   OH252229   1.495   2.589   1.789  0.6947 -0.0820 -0.5494
 9345TIP3    H152230   1.552   2.530   1.741  0.7112  0.7028 -1.5103
 9345TIP3    H252231   1.553   2.656   1.824  0.4550  0.3662 -0.9953
 9346TIP3   OH252232   4.277   0.959   2.414 -0.3383  0.6284 -0.5567
 9346TIP3    H152233   4.261   1.001   2.329 -0.1664 -0.6416 -1.2551
 9346TIP3    H252234   4.221   0.881   2.413 -1.0178  1.0700  0.8944
 9347TIP3   OH252235   2.923   5.468   0.548  0.6368 -0.2269 -0.4373
 9347TIP3    H152236   2.868   5.546   0.545 -0.4681 -0.9020  1.0921
 9347TIP3    H252237   2.919   5.432   0.459 -1.4006 -0.2343 -0.3775
 9348TIP3   OH252238   6.517   6.287   1.015  0.2309 -0.3730  0.3030
 9348TIP3    H152239   6.592   6.246   0.972 -0.6771 -0.6302 -1.0935
 9348TIP3    H252240   6.461   6.213   1.041 -1.2079 -0.1439 -1.8449
 9349TIP3   OH252241   0.132   2.122   0.948  0.2410 -0.6076 -0.3071
 9349TIP3    H152242   0.222   2.125   0.980  0.1434 -1.7324  0.1009
 9349TIP3    H252243   0.117   2.030   0.927 -0.8443 -0.4441 -0.2965
 9350TIP3   OH252244   2.979   5.857   1.602  0.0501 -0.5894  0.5019
 9350TIP3    H152245   3.053   5.860   1.662 -1.0744 -1.3504  1.9900
 9350TIP3    H252246   2.905   5.892   1.652 -0.5297  0.6634 -1.1131
 9351TIP3   OH252247   6.533   4.330   2.245 -0.4678 -0.6888  0.6450
 9351TIP3    H152248   6.496   4.331   2.334 -0.2624  0.6908  0.7440
 9351TIP3    H252249   6.521   4.420   2.214  2.6662 -0.1552  0.6444
 9352TIP3   OH252250   4.012   5.382   1.051  0.4848  0.0097 -0.0873
 9352TIP3    H152251   3.963   5.461   1.029 -0.9279 -0.2274  1.9265
 9352TIP3    H252252   3.954   5.310   1.024  1.0971 -0.3252 -0.5297
 9353TIP3   OH252253   5.939   6.899   0.642 -0.5926  0.2052 -0.1061
 9353TIP3    H152254   5.875   6.960   0.679  0.3738  0.2435  1.5927
 9353TIP3    H252255   5.994   6.953   0.586 -0.1058  0.8100  0.9255
 9354TIP3   OH252256   2.649   1.505   0.957  0.0286  0.0469 -0.2019
 9354TIP3    H152257   2.699   1.570   1.007 -0.0267  0.6237 -0.8808
 9354TIP3    H252258   2.696   1.422   0.972  0.3592  0.3257  0.3129
 9355TIP3   OH252259   4.165   3.867   1.102  0.1662  0.2963 -0.2688
 9355TIP3    H152260   4.098   3.807   1.135  0.3007  0.4838  0.3589
 9355TIP3    H252261   4.233   3.866   1.169  0.3555  0.8309 -0.4484
 9356TIP3   OH252262   4.074   4.587   0.490  0.0024 -0.4788  0.1265
 9356TIP3    H152263   3.990   4.617   0.525  0.5419 -2.4569  3.6321
 9356TIP3    H252264   4.128   4.666   0.486 -2.2212  1.0736 -3.4348
 9357TIP3   OH252265   3.277   2.412   2.302  0.4440  0.1293 -0.7300
 9357TIP3    H152266   3.265   2.340   2.240 -2.6735 -1.5164  1.5132
 9357TIP3    H252267   3.302   2.370   2.384  2.7586  2.0872 -0.3318
 9358TIP3   OH252268   3.269   3.236   0.948  0.6293  0.2873  0.3295
 9358TIP3    H152269   3.242   3.262   0.860 -1.2814  0.4048  0.8981
 9358TIP3    H252270   3.338   3.172   0.934  0.8310  0.7907 -1.2347
 9359TIP3   OH252271   5.613   6.078   0.818 -0.3305 -0.4792  0.5084
 9359TIP3    H152272   5.537   6.027   0.844 -0.4933 -0.4389  0.1248
 9359TIP3    H252273   5.685   6.015   0.815 -0.8404 -1.0344 -1.4916
 9360TIP3   OH252274   2.513   4.931   1.786  0.1463 -0.3473  0.0742
 9360TIP3    H152275   2.497   4.841   1.812 -1.7333  0.2276  1.1810
 9360TIP3    H252276   2.503   4.931   1.691 -0.9409 -1.1361  0.1691
 9361TIP3   OH252277   0.790   6.761   2.125 -0.6779  0.0588 -0.1245
 9361TIP3    H152278   0.757   6.792   2.210 -3.2278 -1.6508 -0.3883
 9361TIP3    H252279   0.846   6.687   2.147  0.5702  1.0425  0.1436
 9362TIP3   OH252280   5.416   7.173   1.363  0.5490 -0.3539  0.8216
 9362TIP3    H152281   5.417   7.078   1.358 -0.3857 -0.3999  1.4287
 9362TIP3    H252282   5.430   7.202   1.272 -0.8772 -1.0807  0.3475
 9363TIP3   OH252283   0.638   7.140   0.770  0.3107  0.1681 -0.1981
 9363TIP3    H152284   0.667   7.135   0.678 -2.7575 -2.8547 -1.2139
 9363TIP3    H252285   0.552   7.181   0.765 -0.2197 -0.7360  1.2173
 9364TIP3   OH252286   5.126   5.410   2.366 -0.2677  0.1597  0.0044
 9364TIP3    H152287   5.086   5.475   2.308 -1.2553 -0.3493  0.0878
 9364TIP3    H252288   5.138   5.333   2.310 -1.0503 -0.2705  0.4093
 9365TIP3   OH252289   0.566   4.075   2.610 -0.0152 -0.1281 -0.3630
 9365TIP3    H152290   0.549   4.064   2.516  1.5411  0.5235 -0.7457
 9365TIP3    H252291   0.660   4.059   2.619  0.2210  1.6811  0.7806
 9366TIP3   OH252292   1.393   4.237   0.359 -0.2094  0.1407 -0.1638
 9366TIP3    H152293   1.401   4.304   0.427  1.4135 -0.0346 -0.1246
 9366TIP3    H252294   1.400   4.286   0.277  2.0019 -0.0130 -0.1307
 9367TIP3   OH252295   6.055   3.383   0.492  0.1442 -0.0911  0.1794
 9367TIP3    H152296   6.050   3.478   0.506 -1.2792  0.0510 -1.0189
 9367TIP3    H252297   6.139   3.370   0.449 -0.0374  0.7655 -0.4700
 9368TIP3   OH252298   0.634   6.570   1.115  0.0702 -0.3842 -0.0914
 9368TIP3    H152299   0.710   6.518   1.138  1.1581  1.0711 -0.2342
 9368TIP3    H252300   0.603   6.534   1.032  0.2133 -1.3918  0.2909
 9369TIP3   OH252301   6.676   3.494   1.670 -0.2286  0.3779 -0.2332
 9369TIP3    H152302   6.635   3.428   1.614 -0.3328  0.3269 -0.0962
 9369TIP3    H252303   6.760   3.512   1.627  0.1517 -0.4244  0.1467
 9370TIP3   OH252304   3.158   6.149   0.902  0.2696 -0.2385  0.2070
 9370TIP3    H152305   3.229   6.204   0.934 -0.7066  0.8387  0.5817
 9370TIP3    H252306   3.140   6.183   0.814 -0.2971  0.0001  0.4153
 9371TIP3   OH252307   6.640   7.444   1.051  0.8905 -0.3631 -0.3743
 9371TIP3    H152308   6.555   7.405   1.029  1.0238 -0.4880 -0.6760
 9371TIP3    H252309   6.686   7.375   1.098 -1.4872  1.5668  5.6655
 9372TIP3   OH252310   0.145   0.197   2.121 -0.0494 -0.0660 -0.2273
 9372TIP3    H152311   0.235   0.167   2.111 -0.2618 -0.2511 -1.9098
 9372TIP3    H252312   0.132   0.258   2.049 -1.5855 -0.8839 -0.6960
 9373TIP3   OH252313   3.766   4.580   1.334  0.4612  1.0390 -0.0577
 9373TIP3    H152314   3.843   4.543   1.291  0.1529  0.5583 -0.2030
 9373TIP3    H252315   3.759   4.669   1.300 -1.3573 -0.1381 -3.1702
 9374TIP3   OH252316   7.023   5.452   1.479 -0.8317 -0.3424  0.1423
 9374TIP3    H152317   6.984   5.449   1.391 -0.2103 -0.9330 -0.1292
 9374TIP3    H252318   6.985   5.377   1.524 -0.1015 -0.8645 -0.0933
 9375TIP3   OH252319   2.990   4.716   2.291  0.0334 -0.1117  0.2955
 9375TIP3    H152320   3.020   4.722   2.382 -0.0656  0.6083  0.2817
 9375TIP3    H252321   2.899   4.687   2.298 -0.4060  1.2774  0.4894
 9376TIP3   OH252322   6.593   0.380   2.628  0.0487  0.3598  0.1708
 9376TIP3    H152323   6.584   0.288   2.651 -1.0085  0.1897 -0.8615
 9376TIP3    H252324   6.606   0.380   2.533  2.3401  1.1628  0.4163
 9377TIP3   OH252325   4.381   4.537   1.963  0.0957 -0.2977 -0.9093
 9377TIP3    H152326   4.292   4.504   1.954  0.1559 -0.2699 -1.7673
 9377TIP3    H252327   4.437   4.462   1.942  0.2341  0.2298 -2.6475
 9378TIP3   OH252328   0.800   0.855   1.837 -0.2532  0.3741  0.1963
 9378TIP3    H152329   0.866   0.794   1.872 -2.0074 -1.8150 -0.0704
 9378TIP3    H252330   0.824   0.940   1.874  1.3825 -0.7512  1.9378
 9379TIP3   OH252331   4.161   5.298   1.967  0.6735 -0.1174  0.1605
 9379TIP3    H152332   4.090   5.251   2.010 -1.1352  1.1987 -1.1970
 9379TIP3    H252333   4.207   5.344   2.037 -0.0560 -0.6844  1.0241
 9380TIP3   OH252334   2.663   2.998   0.759 -0.2025 -0.1177  0.3981
 9380TIP3    H152335   2.640   2.967   0.672 -1.4615 -0.2944  0.7718
 9380TIP3    H252336   2.702   3.084   0.745 -0.4373 -0.1288 -0.3298
 9381TIP3   OH252337   2.645   3.909   1.987  0.3856 -0.4040 -0.6296
 9381TIP3    H152338   2.558   3.923   2.023  1.1360 -0.9659  1.6205
 9381TIP3    H252339   2.683   3.841   2.043  2.0987 -0.5046 -1.8324
 9382TIP3   OH252340   4.211   2.759   1.355 -0.6794  0.2094 -0.3965
 9382TIP3    H152341   4.220   2.828   1.289 -2.1034 -0.3321 -1.1912
 9382TIP3    H252342   4.118   2.735   1.352 -0.0877 -2.3201 -0.7495
 9383TIP3   OH252343   4.426   3.925   3.233  0.1835  0.1738  0.0651
 9383TIP3    H152344   4.358   3.860   3.216 -0.2188  0.9851 -1.6471
 9383TIP3    H252345   4.378   4.003   3.262 -0.1365  1.8526 -4.1958
 9384TIP3   OH252346   6.853   5.679   0.697 -0.5568  0.0880  0.1939
 9384TIP3    H152347   6.867   5.759   0.646  1.8257  0.1442  0.8285
 9384TIP3    H252348   6.941   5.650   0.722 -1.4555 -1.7830  1.4592
 9385TIP3   OH252349   2.994   6.371   1.171 -0.4419  0.2563 -0.6366
 9385TIP3    H152350   2.997   6.462   1.141  0.3428  0.8559  1.1006
 9385TIP3    H252351   3.085   6.342   1.165 -0.2334  0.4415  1.1637
 9386TIP3   OH252352   6.635   0.725   1.790 -0.8838  0.1231 -0.3274
 9386TIP3    H152353   6.626   0.808   1.837  1.1552 -0.2058  0.7661
 9386TIP3    H252354   6.618   0.748   1.698 -0.7463  1.6718  0.0004
 9387TIP3   OH252355   4.722   2.100   1.264 -0.1328 -0.8327 -0.0464
 9387TIP3    H152356   4.691   2.116   1.175  1.5094 -1.0701 -0.6939
 9387TIP3    H252357   4.761   2.182   1.291  1.1600 -1.3319 -0.3303
 9388TIP3   OH252358   3.253   6.398   2.870  0.5446 -0.2313 -0.6111
 9388TIP3    H152359   3.317   6.418   2.802  2.6732  0.8334  1.5883
 9388TIP3    H252360   3.237   6.304   2.861  1.7445 -0.3507 -1.7628
 9389TIP3   OH252361   1.835   7.554   1.793 -0.6070 -0.5414  0.7187
 9389TIP3    H152362   1.929   7.569   1.780 -0.3040 -2.4106  0.5030
 9389TIP3    H252363   1.792   7.614   1.732  0.3246  1.8059  2.1876
 9390TIP3   OH252364   0.123   1.054   1.525 -0.1540 -0.1441  0.2023
 9390TIP3    H152365   0.174   1.135   1.516 -0.1609 -0.3360 -2.1781
 9390TIP3    H252366   0.184   0.991   1.563  0.1351  0.6971  1.1849
 9391TIP3   OH252367   6.825   6.117   1.122 -0.2057 -0.0585  0.4690
 9391TIP3    H152368   6.874   6.146   1.198 -0.0633  0.2621  0.2538
 9391TIP3    H252369   6.845   6.181   1.053  1.2209 -1.4101 -0.4331
 9392TIP3   OH252370   1.334   2.336   2.921 -0.5489 -0.8102 -0.0977
 9392TIP3    H152371   1.411   2.390   2.907 -1.2536  0.1650 -0.3179
 9392TIP3    H252372   1.277   2.389   2.978 -1.0848 -1.4763  0.0007
 9393TIP3   OH252373   4.283   6.749   1.752 -0.9157 -0.2652  0.3940
 9393TIP3    H152374   4.313   6.785   1.669 -2.3795  1.9270  0.7446
 9393TIP3    H252375   4.201   6.703   1.730  0.0883 -2.0606  0.2286
 9394TIP3   OH252376   7.139   0.080   0.896  0.1491  0.1984 -0.3104
 9394TIP3    H152377   7.076   0.052   0.829 -0.5284 -0.2644  0.4986
 9394TIP3    H252378   7.186   0.152   0.855 -0.6133  0.2700 -1.1012
 9395TIP3   OH252379   6.371   5.973   1.634 -0.0844  0.4572 -0.2605
 9395TIP3    H152380   6.333   6.036   1.696 -0.2342  1.5401 -1.4153
 9395TIP3    H252381   6.344   6.005   1.548  1.2985 -0.2248 -0.9734
 9396TIP3   OH252382   4.947   2.109   0.587  0.2616  0.0242 -0.1094
 9396TIP3    H152383   4.896   2.191   0.591  0.5413  0.1573  1.5292
 9396TIP3    H252384   4.882   2.041   0.605  0.2111 -0.0279 -0.4874
 9397TIP3   OH252385   4.945   0.748   3.095  0.3663  0.0801 -0.1312
 9397TIP3    H152386   4.879   0.770   3.162 -1.3694  0.4911 -1.8872
 9397TIP3    H252387   4.921   0.800   3.019  1.2584 -1.6051 -1.6571
 9398TIP3   OH252388   6.679   7.229   0.542 -0.3258  0.7666 -0.1085
 9398TIP3    H152389   6.751   7.194   0.489 -0.4270 -0.0165  0.2599
 9398TIP3    H252390   6.722   7.272   0.616 -0.2465 -0.9347  0.8721
 9399TIP3   OH252391   4.727   2.597   0.595  0.0819 -0.0419 -0.5815
 9399TIP3    H152392   4.661   2.666   0.603 -0.0056 -0.3223  1.9554
 9399TIP3    H252393   4.683   2.527   0.548 -0.4434  0.8697 -1.4992
 9400TIP3   OH252394   0.315   3.222   1.977  0.5678 -0.0496  0.0833
 9400TIP3    H152395   0.375   3.149   1.991  0.0131 -1.3000 -3.1996
 9400TIP3    H252396   0.247   3.187   1.920 -2.3051  1.8396  2.0649
 9401TIP3   OH252397   2.040   0.733   2.243 -0.0196 -0.7470 -0.4134
 9401TIP3    H152398   2.116   0.682   2.269  0.1728  0.0712  0.7044
 9401TIP3    H252399   1.977   0.667   2.212  0.7356 -1.5261 -0.3404
 9402TIP3   OH252400   1.584   0.191   2.294 -0.2222  0.3713 -0.2971
 9402TIP3    H152401   1.641   0.264   2.318  1.0085 -0.8442  0.6149
 9402TIP3    H252402   1.620   0.158   2.212 -1.3921  1.3613 -1.2639
 9403TIP3   OH252403   4.364   2.173   0.645  0.1497 -0.2496 -0.2243
 9403TIP3    H152404   4.340   2.240   0.709  0.8230  0.6580 -0.9045
 9403TIP3    H252405   4.281   2.131   0.622 -0.7779  2.3284 -1.9999
 9404TIP3   OH252406   3.610   1.342   3.143 -0.1881 -0.0300  0.0325
 9404TIP3    H152407   3.556   1.420   3.149 -2.6126 -1.6996  2.0012
 9404TIP3    H252408   3.698   1.374   3.126 -0.5105  3.3416  3.4877
 9405TIP3   OH252409   3.156   0.978   1.358  0.0461  0.0423 -0.3147
 9405TIP3    H152410   3.174   1.072   1.355  0.3160 -0.0202 -0.9117
 9405TIP3    H252411   3.094   0.963   1.286 -2.3817  0.2225  1.6253
 9406TIP3   OH252412   1.810   1.129   2.375  0.1254  0.2583  0.4323
 9406TIP3    H152413   1.734   1.148   2.320 -0.7940  0.9674  1.8759
 9406TIP3    H252414   1.885   1.160   2.324 -0.8361  2.5413  0.2856
 9407TIP3   OH252415   3.153   1.454   2.544  0.0192  0.2155 -0.2080
 9407TIP3    H152416   3.178   1.362   2.545  2.1739  0.7323  1.7191
 9407TIP3    H252417   3.094   1.464   2.619  1.1698  0.6966  0.6570
 9408TIP3   OH252418   5.294   7.103   2.447 -0.2383 -0.4294 -0.2260
 9408TIP3    H152419   5.351   7.098   2.524  0.8751 -0.7671 -1.0446
 9408TIP3    H252420   5.252   7.189   2.454  1.1196  0.2534 -0.0948
 9409TIP3   OH252421   6.820   7.680   1.298 -0.5344  0.0406  0.3852
 9409TIP3    H152422   6.858   7.685   1.210 -0.8788 -2.6240 -0.0157
 9409TIP3    H252423   6.858   7.753   1.346  0.6971  0.7640 -1.6070
 9410TIP3   OH252424   0.002   4.342   1.907  0.0368  0.0236 -0.0115
 9410TIP3    H152425  -0.074   4.317   1.959 -1.0887  0.1508 -1.5380
 9410TIP3    H252426  -0.027   4.333   1.816  1.8454  0.0971 -0.6330
 9411TIP3   OH252427   0.796   7.292   1.838 -0.4707 -0.4427 -0.5692
 9411TIP3    H152428   0.848   7.370   1.857  4.2039 -3.4936  0.9616
 9411TIP3    H252429   0.742   7.280   1.916 -0.2764  0.5388 -0.2708
 9412TIP3   OH252430   1.580   1.134   2.902 -0.0586  0.5204  0.5111
 9412TIP3    H152431   1.572   1.196   2.830  1.7755 -0.5053 -0.6441
 9412TIP3    H252432   1.528   1.059   2.876  1.3448 -0.2342 -0.2448
 9413TIP3   OH252433   6.392   0.065   2.106 -0.3325 -0.3286 -0.7745
 9413TIP3    H152434   6.297   0.056   2.095 -0.5936 -0.4819  1.3167
 9413TIP3    H252435   6.403   0.101   2.194  1.5315  0.7671 -1.3876
 9414TIP3   OH252436   0.197   0.035   2.975 -0.0509  0.3445 -0.3214
 9414TIP3    H152437   0.195  -0.030   3.045 -1.8864 -1.7895 -2.1870
 9414TIP3    H252438   0.289   0.061   2.968  0.8765 -2.4996  0.1715
 9415TIP3   OH252439   6.729   3.780   1.731  0.2104  0.0833 -0.7272
 9415TIP3    H152440   6.729   3.701   1.785  1.9945 -1.5951 -2.9871
 9415TIP3    H252441   6.816   3.818   1.743 -0.5364  1.6392  0.1268
 9416TIP3   OH252442   6.246   6.094   1.894  0.5067  0.5248  0.0806
 9416TIP3    H152443   6.239   6.002   1.920 -1.8918  0.6325  0.0904
 9416TIP3    H252444   6.285   6.137   1.970 -0.2918 -0.1954  0.9342
 9417TIP3   OH252445   5.889   0.963   0.638 -0.8644 -0.3069 -0.0255
 9417TIP3    H152446   5.828   0.940   0.568 -0.3081 -1.6336 -0.1004
 9417TIP3    H252447   5.918   0.879   0.673 -0.4099  0.3305  1.1739
 9418TIP3   OH252448   0.357   2.210   2.068  0.0415 -0.1462  0.1030
 9418TIP3    H152449   0.382   2.277   2.132 -2.1794  0.7994  0.0523
 9418TIP3    H252450   0.420   2.221   1.996  1.5286 -0.1129  1.3416
 9419TIP3   OH252451   3.430   7.289   0.616  0.6817  0.3085 -0.5493
 9419TIP3    H152452   3.452   7.318   0.527 -0.6544 -0.2336 -1.0804
 9419TIP3    H252453   3.514   7.286   0.661  1.4935 -0.1171 -2.0129
 9420TIP3   OH252454   4.227   6.186   1.151  0.8981  0.0214 -0.4923
 9420TIP3    H152455   4.157   6.167   1.213 -0.9743  1.3259 -2.0574
 9420TIP3    H252456   4.208   6.130   1.075 -0.6339  2.7940 -2.3365
 9421TIP3   OH252457   0.591   5.227   2.242  0.5285 -0.9546  0.2913
 9421TIP3    H152458   0.612   5.282   2.167 -0.6156 -0.9146 -0.0194
 9421TIP3    H252459   0.496   5.224   2.244  0.5569 -2.3470  0.7279
 9422TIP3   OH252460   0.647   2.693   1.204 -0.2967  0.1995  0.7698
 9422TIP3    H152461   0.722   2.735   1.245  0.0363 -0.3559  0.7323
 9422TIP3    H252462   0.669   2.600   1.200 -0.6661  0.1287  0.0857
 9423TIP3   OH252463   4.833   6.405   1.402  0.0252 -0.4739 -0.0721
 9423TIP3    H152464   4.759   6.348   1.382 -0.3039 -0.4416  0.9615
 9423TIP3    H252465   4.903   6.377   1.343 -0.4197 -1.3380 -0.2025
 9424TIP3   OH252466   6.323   5.024   1.546  0.1531  0.2359 -0.4899
 9424TIP3    H152467   6.290   5.078   1.475 -1.0159 -0.7250 -0.7164
 9424TIP3    H252468   6.307   4.934   1.517  0.6377 -0.1948  0.5264
 9425TIP3   OH252469   1.449   0.986   2.020 -0.1197  1.1025 -0.1440
 9425TIP3    H152470   1.413   0.936   2.093  0.1403  1.0362 -0.0606
 9425TIP3    H252471   1.373   1.008   1.966 -0.1276 -0.2044 -0.6889
 9426TIP3   OH252472   5.889   6.553   2.607 -0.0170  0.1197 -0.2345
 9426TIP3    H152473   5.927   6.621   2.552  0.7234  0.7026  0.9467
 9426TIP3    H252474   5.955   6.483   2.608 -0.1511 -0.0082 -0.3030
 9427TIP3   OH252475   0.271   5.507   2.145 -0.1490  0.2360 -0.5032
 9427TIP3    H152476   0.361   5.536   2.132  0.4390 -1.7025 -1.1522
 9427TIP3    H252477   0.234   5.505   2.056  0.2878 -2.1691 -0.7071
 9428TIP3   OH252478   4.915   0.010   1.263  0.2043  0.1769 -0.0767
 9428TIP3    H152479   4.881  -0.072   1.298 -0.5825 -0.0054 -1.2099
 9428TIP3    H252480   4.841   0.070   1.265  0.7595  0.8566  0.6821
 9429TIP3   OH252481   7.129   2.032   0.565 -0.4469  0.4975 -0.1304
 9429TIP3    H152482   7.208   2.079   0.538  0.0005  0.8826  1.7712
 9429TIP3    H252483   7.071   2.038   0.488  1.0497  0.8557 -1.2801
 9430TIP3   OH252484   4.807   0.469   2.104  0.9674  0.2451 -0.4217
 9430TIP3    H152485   4.782   0.394   2.157  2.0504  0.1845  0.0369
 9430TIP3    H252486   4.824   0.538   2.168  0.4589  0.7385 -0.8105
 9431TIP3   OH252487   4.933   6.167   1.702 -0.1072  0.4521  0.4092
 9431TIP3    H152488   4.983   6.086   1.696 -0.8040  0.0899 -1.0336
 9431TIP3    H252489   4.856   6.152   1.648  0.0208  2.2814 -0.3666
 9432TIP3   OH252490   2.275   2.795   2.355 -0.2504  1.0917  0.7169
 9432TIP3    H152491   2.255   2.889   2.348  0.0369  1.2215  1.5899
 9432TIP3    H252492   2.368   2.789   2.334 -0.4616  0.8775 -0.2227
 9433TIP3   OH252493   7.065   5.214   2.087 -0.3477  0.4129  0.0812
 9433TIP3    H152494   7.115   5.285   2.126  0.8721 -0.3157 -0.1248
 9433TIP3    H252495   6.976   5.250   2.077 -0.8425  0.5544  3.6849
 9434TIP3   OH252496   1.625   5.576   2.505 -0.1175 -0.6903 -0.4670
 9434TIP3    H152497   1.546   5.602   2.458  1.1403 -1.8785 -3.4471
 9434TIP3    H252498   1.668   5.658   2.527 -1.4252 -0.0724 -0.0809
 9435TIP3   OH252499   7.358   5.617   1.346  0.2116 -0.1708  0.6065
 9435TIP3    H152500   7.295   5.684   1.320  0.3428  0.0477  0.8503
 9435TIP3    H252501   7.304   5.545   1.378  0.0628 -0.2782  0.1240
 9436TIP3   OH252502   4.299   3.426   1.489  0.1822  0.9804 -0.5370
 9436TIP3    H152503   4.231   3.361   1.508 -0.2668  0.9435 -2.0874
 9436TIP3    H252504   4.330   3.402   1.401  2.1212  1.0708  0.0885
 9437TIP3   OH252505   6.893   4.298   3.015 -0.3366 -0.0008  0.4115
 9437TIP3    H152506   6.915   4.205   3.009 -0.4755  0.0272 -1.0757
 9437TIP3    H252507   6.818   4.301   3.075 -2.5059 -1.3176 -2.0104
 9438TIP3   OH252508   3.516   3.802   1.582 -0.4401  0.2021 -0.1758
 9438TIP3    H152509   3.559   3.887   1.587 -0.3135  0.0931  0.6432
 9438TIP3    H252510   3.474   3.790   1.667  0.2159 -0.8981  0.0227
 9439TIP3   OH252511   0.605   3.232   0.895  0.7631 -0.2825  0.3364
 9439TIP3    H152512   0.517   3.269   0.905  1.3104  1.3815 -0.5847
 9439TIP3    H252513   0.612   3.213   0.801  1.3077 -0.6192  0.4416
 9440TIP3   OH252514   4.237   3.778   0.533 -0.1327  0.6909 -0.3531
 9440TIP3    H152515   4.301   3.846   0.510  0.9860  0.1090  0.8755
 9440TIP3    H252516   4.199   3.808   0.616 -1.2225  0.8525 -0.8942
 9441TIP3   OH252517   4.608   6.711   2.707 -0.2332 -1.0845  0.3540
 9441TIP3    H152518   4.538   6.775   2.697 -0.7688 -1.7358 -0.2495
 9441TIP3    H252519   4.646   6.730   2.792  0.9422  1.3062 -0.6227
 9442TIP3   OH252520   7.063   2.729   2.381 -0.5654 -0.0554  0.2147
 9442TIP3    H152521   7.136   2.685   2.339 -0.3494 -0.3175  0.8529
 9442TIP3    H252522   7.024   2.663   2.439 -1.1060  0.1754  0.1223
 9443TIP3   OH252523   1.549   3.660   2.678  0.1501  0.2447 -0.1450
 9443TIP3    H152524   1.547   3.671   2.773  0.4391  2.3719 -0.3471
 9443TIP3    H252525   1.457   3.657   2.652  0.0646  1.0159  0.0674
 9444TIP3   OH252526   0.655   5.881   2.407 -0.3361  0.0556  0.1675
 9444TIP3    H152527   0.617   5.957   2.452  2.9746  1.4662  0.8551
 9444TIP3    H252528   0.732   5.858   2.460 -1.0562 -3.7438 -0.1185
 9445TIP3   OH252529   5.363   6.703   0.875  0.3468 -0.0134 -0.1621
 9445TIP3    H152530   5.319   6.779   0.911 -0.2635  0.0319 -0.9753
 9445TIP3    H252531   5.394   6.732   0.789  0.4636 -0.5562 -0.3073
 9446TIP3   OH252532   1.323   1.894   0.800  0.3459  0.2037  0.4959
 9446TIP3    H152533   1.271   1.971   0.777  0.8239  0.7857  1.3196
 9446TIP3    H252534   1.397   1.895   0.739 -0.1202 -0.1163 -0.0824
 9447TIP3   OH252535   5.664   5.479   2.623 -0.0359 -0.2456  0.6056
 9447TIP3    H152536   5.713   5.405   2.660 -0.6998 -1.1755 -0.2928
 9447TIP3    H252537   5.700   5.556   2.667  2.7216 -0.7783 -0.5057
 9448TIP3   OH252538   3.440   2.998   2.960 -0.1417 -0.1095 -0.2110
 9448TIP3    H152539   3.527   3.035   2.976  0.2073 -0.7426 -0.6120
 9448TIP3    H252540   3.416   2.957   3.043  0.1883 -0.4200 -0.2675
 9449TIP3   OH252541   7.045   1.573   1.510  0.6811 -0.4690  0.0957
 9449TIP3    H152542   7.022   1.661   1.541  1.7339 -0.5989  1.3495
 9449TIP3    H252543   7.119   1.587   1.451 -1.3644 -0.2159 -2.5944
 9450TIP3   OH252544   0.626   6.982   2.050 -0.0473  0.1284  0.6772
 9450TIP3    H152545   0.542   6.959   2.011 -0.6609  0.9185  1.4868
 9450TIP3    H252546   0.677   6.901   2.048 -1.7097 -1.0469  2.3727
 9451TIP3   OH252547   0.930   4.538   1.288  0.0921 -0.3755  0.0674
 9451TIP3    H152548   0.945   4.455   1.242  1.2231 -0.5707  0.7321
 9451TIP3    H252549   0.844   4.527   1.329 -0.5582 -0.5119 -1.2967
 9452TIP3   OH252550   3.526   3.374   0.942 -0.4647  0.2477 -0.2086
 9452TIP3    H152551   3.457   3.386   1.007  0.5804 -1.6266  1.3755
 9452TIP3    H252552   3.528   3.279   0.927  1.7760  0.2072 -0.0957
 9453TIP3   OH252553   4.667   7.580   0.898  0.1938  0.6089  1.0162
 9453TIP3    H152554   4.741   7.524   0.875 -0.5487  0.6682 -1.7788
 9453TIP3    H252555   4.694   7.667   0.870 -1.0376  0.5669 -0.4008
 9454TIP3   OH252556   5.053   4.676   1.775 -0.6860 -0.7257  0.2586
 9454TIP3    H152557   5.090   4.636   1.854 -0.2332 -0.1682  0.3339
 9454TIP3    H252558   5.112   4.649   1.704 -1.4077 -1.6984  0.0026
 9455TIP3   OH252559   7.487   6.808   2.281 -0.3219 -0.3268 -0.3073
 9455TIP3    H152560   7.520   6.894   2.308 -1.3481  0.0717 -0.2773
 9455TIP3    H252561   7.482   6.758   2.362  1.8728 -1.0126 -0.5306
 9456TIP3   OH252562   2.270   0.193   3.060 -0.2186  0.4327 -0.5631
 9456TIP3    H152563   2.327   0.116   3.069  0.3024  0.9043  0.2170
 9456TIP3    H252564   2.327   0.268   3.077 -1.3029  0.8621  1.4587
 9457TIP3   OH252565   2.763   6.520   0.799  0.5518  0.1992  0.1996
 9457TIP3    H152566   2.745   6.433   0.837 -1.1947  1.2322  1.9442
 9457TIP3    H252567   2.687   6.538   0.745  0.8262  0.7290 -0.0105
 9458TIP3   OH252568   0.966   0.419   1.897  0.0985 -0.2712  0.0494
 9458TIP3    H152569   0.932   0.408   1.986 -1.4795 -0.1519 -0.5080
 9458TIP3    H252570   0.943   0.338   1.852 -0.8638  0.4322 -0.7688
 9459TIP3   OH252571   1.113   6.581   2.264  0.6426 -0.1515  0.4948
 9459TIP3    H152572   1.108   6.500   2.213  0.1398  0.3744 -0.3128
 9459TIP3    H252573   1.198   6.618   2.242 -0.2472  0.9497 -1.3802
 9460TIP3   OH252574   3.539   5.753   1.713 -0.6596 -0.1256 -0.4951
 9460TIP3    H152575   3.475   5.692   1.676  0.1115 -1.6129  0.5242
 9460TIP3    H252576   3.623   5.725   1.676 -0.3208  0.5096 -0.2265
 9461TIP3   OH252577   2.736   4.155   3.204  0.0505 -0.0065  0.2301
 9461TIP3    H152578   2.762   4.152   3.112 -2.0572 -0.2971 -0.4290
 9461TIP3    H252579   2.651   4.111   3.206 -2.0935  3.6578  1.4626
 9462TIP3   OH252580   5.246   6.023   2.387  0.4655 -0.5527  0.1525
 9462TIP3    H152581   5.258   6.117   2.398 -2.0811 -0.2256  0.9416
 9462TIP3    H252582   5.334   5.986   2.395  1.2144  1.4821  2.9697
 9463TIP3   OH252583   6.064   3.590   2.527  0.2529 -0.6276  0.1552
 9463TIP3    H152584   6.051   3.683   2.544 -0.1929 -0.6384 -0.1136
 9463TIP3    H252585   6.059   3.582   2.432  2.5026 -0.6038 -0.0189
 9464TIP3   OH252586   1.053   1.524   1.092 -0.3870 -0.1825 -0.3220
 9464TIP3    H152587   1.073   1.577   1.014  0.1903 -0.4514 -0.3656
 9464TIP3    H252588   0.977   1.472   1.067 -1.4583  1.1944 -0.0010
 9465TIP3   OH252589   2.488   2.981   3.169  0.4986  0.1889 -0.0844
 9465TIP3    H152590   2.505   2.894   3.134 -0.6277 -0.2010  0.2957
 9465TIP3    H252591   2.569   3.004   3.215  0.7732 -0.7004 -0.1029
 9466TIP3   OH252592   4.461   1.954   1.316  0.4376  0.1097 -0.3360
 9466TIP3    H152593   4.445   1.937   1.409 -2.1571  0.7530 -0.5941
 9466TIP3    H252594   4.550   1.989   1.314  0.4430  0.4277  1.9486
 9467TIP3   OH252595   4.638   1.121   0.866 -0.3343  0.1883  0.5721
 9467TIP3    H152596   4.710   1.074   0.907  0.7303 -0.2933 -1.6958
 9467TIP3    H252597   4.566   1.116   0.929  0.6582 -1.9762  1.6027
 9468TIP3   OH252598   5.967   0.690   0.740 -0.3313 -0.2984 -0.0329
 9468TIP3    H152599   5.932   0.669   0.827 -1.4611 -1.7896 -0.7994
 9468TIP3    H252600   6.055   0.722   0.757 -0.9941  0.7739  1.7622
 9469TIP3   OH252601   2.063   3.696   1.990 -0.3004 -0.5060 -0.0936
 9469TIP3    H152602   2.092   3.784   1.965 -0.7594 -0.0932  0.7961
 9469TIP3    H252603   2.070   3.645   1.909  1.9841 -0.1922 -0.1513
 9470TIP3   OH252604   5.053   0.047   2.001  0.4817 -0.3824 -0.2291
 9470TIP3    H152605   5.015  -0.040   1.993  0.5763 -0.5442  0.9806
 9470TIP3    H252606   5.044   0.070   2.093  0.8209  0.7275 -0.4485
 9471TIP3   OH252607   6.300   4.289   2.839 -0.1753  0.5761 -0.1954
 9471TIP3    H152608   6.390   4.275   2.809  0.6528  0.7414  2.0117
 9471TIP3    H252609   6.297   4.382   2.861 -0.1726  0.1703  1.7282
 9472TIP3   OH252610   7.505   4.550   2.435  0.2988  0.1289  0.2569
 9472TIP3    H152611   7.505   4.630   2.487  0.9528  0.7372 -0.6644
 9472TIP3    H252612   7.522   4.578   2.345  0.4894 -1.0259 -0.0956
 9473TIP3   OH252613   0.850   4.269   1.718 -0.6908 -0.0086 -0.1462
 9473TIP3    H152614   0.764   4.244   1.752 -0.9038  1.9338  0.8861
 9473TIP3    H252615   0.912   4.225   1.775 -1.0532  1.4215  1.4448
 9474TIP3   OH252616   5.342   0.283   2.994  0.0054 -0.1851 -0.3941
 9474TIP3    H152617   5.396   0.295   2.916  1.8381 -2.5983  0.3951
 9474TIP3    H252618   5.400   0.303   3.067 -0.9850 -0.2127  0.4218
 9475TIP3   OH252619   2.114   1.060   1.902 -0.4270  0.9067 -0.0014
 9475TIP3    H152620   2.073   1.145   1.887 -0.7727  0.3770 -2.4318
 9475TIP3    H252621   2.079   1.003   1.833  1.8752 -0.4683 -0.1664
 9476TIP3   OH252622   5.773   5.112   3.073 -0.0590 -0.2713 -1.1682
 9476TIP3    H152623   5.859   5.070   3.084 -0.4610 -1.0159 -0.8118
 9476TIP3    H252624   5.712   5.039   3.061 -0.8720  0.1505  0.1376
 9477TIP3   OH252625   0.493   0.149   0.613  0.5233  0.4286 -0.4687
 9477TIP3    H152626   0.458   0.063   0.588 -0.0887  0.9214 -1.3224
 9477TIP3    H252627   0.499   0.144   0.709 -1.0199 -0.0080 -0.3565
 9478TIP3   OH252628   2.194   5.471   0.469  0.4957 -0.8553  0.8534
 9478TIP3    H152629   2.105   5.466   0.506  0.1929 -0.1721  0.2319
 9478TIP3    H252630   2.241   5.400   0.513 -1.1277 -3.1784 -0.8731
 9479TIP3   OH252631   0.635   2.640   3.025  0.2199 -0.2173 -0.1227
 9479TIP3    H152632   0.563   2.685   2.981  0.9199 -0.0034 -1.0824
 9479TIP3    H252633   0.628   2.549   2.997  1.2744  0.1116 -1.5399
 9480TIP3   OH252634   7.038   6.850   2.689 -0.2470  0.6892  0.4761
 9480TIP3    H152635   6.977   6.782   2.661  0.1851  0.6585 -0.4085
 9480TIP3    H252636   7.049   6.834   2.783 -0.1742 -0.4553  0.2914
 9481TIP3   OH252637   2.393   2.306   0.767 -0.7570 -0.3753  0.4195
 9481TIP3    H152638   2.441   2.282   0.687 -0.8957 -1.6038  0.6763
 9481TIP3    H252639   2.414   2.236   0.829 -0.6278  0.5819  1.4832
 9482TIP3   OH252640   2.529   5.070   0.597  0.0280  0.0198  0.6318
 9482TIP3    H152641   2.590   5.002   0.625 -0.2260 -0.4765  0.0099
 9482TIP3    H252642   2.583   5.128   0.542 -0.2990 -1.0998 -0.9425
 9483TIP3   OH252643   6.453   7.338   0.447 -0.1083 -0.1078 -0.0699
 9483TIP3    H152644   6.427   7.258   0.401 -0.5438  0.7804 -1.4188
 9483TIP3    H252645   6.543   7.322   0.474  0.3534 -0.4733 -1.7177
 9484TIP3   OH252646   0.952   2.613   0.718 -0.1167 -0.0682 -0.0346
 9484TIP3    H152647   1.040   2.635   0.748 -0.5138  2.3888 -0.4883
 9484TIP3    H252648   0.965   2.586   0.626  0.3285 -1.5184  0.4180
 9485TIP3   OH252649   6.455   6.554   1.829 -0.0626 -0.4009  0.1595
 9485TIP3    H152650   6.497   6.498   1.894  0.2127  1.3024  1.5178
 9485TIP3    H252651   6.509   6.633   1.826 -1.2235  0.4113 -0.6312
 9486TIP3   OH252652   3.066   4.482   3.391 -0.3008 -0.3811  0.1985
 9486TIP3    H152653   3.015   4.433   3.455 -0.0998 -0.1276  0.5569
 9486TIP3    H252654   3.108   4.416   3.337 -1.1469 -0.5938 -0.2089
 9487TIP3   OH252655   0.535   0.978   1.784  0.1457 -0.5257 -0.3894
 9487TIP3    H152656   0.483   0.973   1.863 -1.4368  1.1418 -1.2466
 9487TIP3    H252657   0.607   0.916   1.798 -0.2670 -0.5264  2.1673
 9488TIP3   OH252658   6.493   3.031   1.809 -0.4103 -0.2443  0.1113
 9488TIP3    H152659   6.554   2.957   1.808  0.5876  0.5382  1.2063
 9488TIP3    H252660   6.419   3.000   1.861 -0.4146 -0.7732 -0.1986
 9489TIP3   OH252661   6.954   1.127   2.164  0.3537  0.0560  0.1711
 9489TIP3    H152662   6.991   1.039   2.170  0.1025 -0.0159  0.6328
 9489TIP3    H252663   7.014   1.182   2.214  0.0427  0.0011  0.6103
 9490TIP3   OH252664   1.813   3.777   2.681 -0.3042 -0.1260  0.1845
 9490TIP3    H152665   1.865   3.748   2.755 -0.1034  1.1141  0.5393
 9490TIP3    H252666   1.725   3.743   2.698 -0.0585 -0.5794  0.5491
 9491TIP3   OH252667   0.060   6.390   2.790  0.0850 -0.0413  0.0617
 9491TIP3    H152668   0.018   6.308   2.817 -0.6718 -0.0249 -0.9853
 9491TIP3    H252669  -0.013   6.444   2.758  0.6094  0.9432  0.5025
 9492TIP3   OH252670   3.400   6.165   2.481  0.1928 -0.2239  0.0969
 9492TIP3    H152671   3.451   6.216   2.544  0.5815 -1.4338  0.7707
 9492TIP3    H252672   3.442   6.183   2.397  0.7283  0.0575  0.4205
 9493TIP3   OH252673   4.191   2.405   1.838 -0.3695  0.0832  0.2388
 9493TIP3    H152674   4.125   2.352   1.794 -1.1895  0.9647  0.3880
 9493TIP3    H252675   4.223   2.465   1.772  2.5325 -2.2642 -0.7209
 9494TIP3   OH252676   1.392   5.850   3.016  0.0656 -0.1762 -1.3826
 9494TIP3    H152677   1.382   5.756   3.000 -0.8397 -0.6615  1.5454
 9494TIP3    H252678   1.481   5.859   3.050 -0.5216 -0.3124  0.2402
 9495TIP3   OH252679   4.693   4.221   2.435  0.2237  0.3855 -0.1653
 9495TIP3    H152680   4.724   4.132   2.419 -1.7545 -0.5154  0.6717
 9495TIP3    H252681   4.741   4.275   2.372  1.1659 -1.3262 -0.9736
 9496TIP3   OH252682   5.949   1.624   1.014 -0.6982  0.3035 -0.3434
 9496TIP3    H152683   5.966   1.712   0.981  3.2623 -0.2354 -0.2159
 9496TIP3    H252684   5.880   1.590   0.956 -0.8824  2.7470 -1.7001
 9497TIP3   OH252685   1.252   2.863   2.299 -0.2201  0.3303  0.2403
 9497TIP3    H152686   1.331   2.917   2.297 -0.1667  0.3162  1.3399
 9497TIP3    H252687   1.227   2.853   2.207  0.7497  0.7795 -0.0812
 9498TIP3   OH252688   4.957   1.486   1.840  0.0494  0.0277  0.0512
 9498TIP3    H152689   5.015   1.475   1.764 -1.6344  0.6907 -1.4235
 9498TIP3    H252690   4.943   1.398   1.873  0.8619 -0.2654 -0.3459
 9499TIP3   OH252691   6.850   0.694   0.591  0.2660 -0.2087 -0.2387
 9499TIP3    H152692   6.890   0.765   0.641  0.2362  0.0545 -0.5854
 9499TIP3    H252693   6.829   0.628   0.657  0.9003 -0.1807 -0.0020
 9500TIP3   OH252694   1.558   4.324   2.740  0.2998 -0.1187 -0.2803
 9500TIP3    H152695   1.651   4.327   2.762  0.3385 -0.3280 -0.4092
 9500TIP3    H252696   1.536   4.231   2.741  0.3230 -0.1484 -1.1671
 9501TIP3   OH252697   1.432   4.767   1.578  0.4198  0.2006 -0.1688
 9501TIP3    H152698   1.440   4.703   1.507  0.1750  0.3612 -0.3402
 9501TIP3    H252699   1.507   4.826   1.565 -0.7453  1.4390 -1.5162
 9502TIP3   OH252700   5.358   6.601   1.786  0.0821  0.1034 -0.0663
 9502TIP3    H152701   5.362   6.517   1.832 -0.0085  0.3523  0.4099
 9502TIP3    H252702   5.430   6.597   1.723  0.7072  0.0496  0.6272
 9503TIP3   OH252703   2.134   0.527   2.009  0.3304 -0.2272 -0.3354
 9503TIP3    H152704   2.113   0.496   2.097  1.3451  1.1882  0.4280
 9503TIP3    H252705   2.178   0.452   1.968 -2.1113 -1.6995 -0.4820
 9504TIP3   OH252706   6.513   6.691   0.970  0.2338 -0.1805  0.1450
 9504TIP3    H152707   6.511   6.632   1.046  0.4046 -1.1259 -0.5607
 9504TIP3    H252708   6.482   6.775   1.004  1.5553 -0.2135  1.5763
 9505TIP3   OH252709   2.150   5.928   3.279 -0.0144 -0.1519  0.2673
 9505TIP3    H152710   2.115   5.972   3.201 -1.1657 -3.1177 -1.0768
 9505TIP3    H252711   2.244   5.922   3.263 -0.2419 -0.7754 -0.9833
 9506TIP3   OH252712   4.866   4.349   1.509 -0.1418 -0.2387  0.2486
 9506TIP3    H152713   4.886   4.403   1.585 -1.9878  0.6520  0.1590
 9506TIP3    H252714   4.834   4.267   1.546  2.0621 -1.1232  0.3797
 9507TIP3   OH252715   2.822   7.389   3.230 -0.7982  0.3593  0.7530
 9507TIP3    H152716   2.903   7.438   3.229  0.5044 -1.6598  0.2743
 9507TIP3    H252717   2.829   7.332   3.307 -1.5378 -0.1655  0.4523
 9508TIP3   OH252718   3.805   6.843   3.037  0.0800  0.1030  0.3917
 9508TIP3    H152719   3.770   6.797   3.113  0.5449 -1.2490 -0.1914
 9508TIP3    H252720   3.753   6.924   3.033 -2.0553 -1.1851  0.3665
 9509TIP3   OH252721   5.824   4.154   2.139  0.1808 -0.3736  0.2590
 9509TIP3    H152722   5.903   4.183   2.092 -0.0070  1.2516  0.9115
 9509TIP3    H252723   5.847   4.159   2.231 -0.2945 -1.1035  0.4269
 9510TIP3   OH252724   5.638   6.490   1.702 -0.1782  1.0247 -0.6711
 9510TIP3    H152725   5.591   6.449   1.630 -0.1057  1.0569 -0.7366
 9510TIP3    H252726   5.683   6.565   1.662  0.4070  0.6474 -0.7244
 9511TIP3   OH252727   3.058   6.541   0.827 -0.5437  0.1193  0.1047
 9511TIP3    H152728   2.994   6.548   0.757 -2.2077 -0.2136  1.5147
 9511TIP3    H252729   3.008   6.558   0.907  1.2565  0.4130  1.2356
 9512TIP3   OH252730   3.746   5.473   3.317 -0.4021  0.1926  0.2325
 9512TIP3    H152731   3.668   5.439   3.359 -0.0896  0.5652  1.1551
 9512TIP3    H252732   3.734   5.568   3.316 -0.3922  0.1956 -0.5158
 9513TIP3   OH252733   2.722   3.681   2.087 -0.3770 -0.2130  0.5273
 9513TIP3    H152734   2.814   3.662   2.104 -0.5114  0.5586  2.2818
 9513TIP3    H252735   2.699   3.625   2.013  1.7075  0.1723 -0.4840
 9514TIP3   OH252736   7.460   6.883   2.005  0.2367  0.2864  0.2017
 9514TIP3    H152737   7.430   6.854   2.091  2.4755 -0.4832  0.7976
 9514TIP3    H252738   7.547   6.843   1.995  0.2111  0.6897 -2.2546
 9515TIP3   OH252739   6.224   6.668   0.468  0.2445  0.3337  0.2843
 9515TIP3    H152740   6.309   6.697   0.435  0.4054  0.6190  0.9396
 9515TIP3    H252741   6.227   6.573   0.463  0.0598  0.3820 -1.0322
 9516TIP3   OH252742   2.896   1.202   2.799  0.5752  0.5819 -0.0283
 9516TIP3    H152743   2.879   1.249   2.881  1.3760 -0.0563  0.5262
 9516TIP3    H252744   2.820   1.146   2.788  0.0090  1.3774 -0.2460
 9517TIP3   OH252745   4.914   5.946   2.471  0.0697 -0.3549 -0.3574
 9517TIP3    H152746   4.992   5.892   2.488 -0.0562 -0.4472 -0.0785
 9517TIP3    H252747   4.939   5.999   2.395 -0.0953 -1.3959 -1.1712
 9518TIP3   OH252748   7.672   5.993   2.663  0.4700 -0.2555 -0.0138
 9518TIP3    H152749   7.578   5.999   2.678  0.6330  2.3102  0.5246
 9518TIP3    H252750   7.712   6.033   2.741  1.9846 -0.9724 -0.3804
 9519TIP3   OH252751   0.812   4.410   2.251 -0.1363 -0.2627  0.1000
 9519TIP3    H152752   0.734   4.416   2.306 -0.0273  0.8695  0.1610
 9519TIP3    H252753   0.780   4.430   2.163 -0.1405 -1.1276 -0.1034
 9520TIP3   OH252754   0.771   7.604   1.503  0.3072 -0.8269 -0.0755
 9520TIP3    H152755   0.747   7.648   1.584 -0.3285 -0.5280 -0.4096
 9520TIP3    H252756   0.733   7.517   1.511 -0.3335 -0.5772 -0.3213
 9521TIP3   OH252757   5.234   3.798   2.457 -0.2924 -0.4419 -0.5823
 9521TIP3    H152758   5.164   3.734   2.446 -0.3481 -0.8402  1.7019
 9521TIP3    H252759   5.200   3.878   2.416 -1.8175 -0.8110 -0.0892
 9522TIP3   OH252760   6.331   5.168   1.032 -0.3890 -0.2650  0.0727
 9522TIP3    H152761   6.274   5.096   1.008  1.9325 -1.8231 -1.1110
 9522TIP3    H252762   6.412   5.126   1.061  0.3013  1.8457  1.4416
 9523TIP3   OH252763   0.751   2.199   1.063 -0.7309 -0.7704  0.3258
 9523TIP3    H152764   0.744   2.261   1.135 -1.6837  0.5011 -0.7967
 9523TIP3    H252765   0.821   2.234   1.008 -0.1603 -1.6069  0.5005
 9524TIP3   OH252766   5.847   6.098   0.588 -0.2567 -0.9195 -1.1063
 9524TIP3    H152767   5.834   6.019   0.642  0.9392  0.6852  1.7529
 9524TIP3    H252768   5.762   6.143   0.593  0.6416  0.7791  2.4136
 9525TIP3   OH252769   4.387   2.926   0.619 -0.0280  0.5049  0.1749
 9525TIP3    H152770   4.383   2.848   0.562 -0.5109  1.1456 -0.6929
 9525TIP3    H252771   4.453   2.982   0.577  1.8737 -0.2926  1.9432
 9526TIP3   OH252772   4.371   7.300   3.220  0.3190 -0.1553 -0.4141
 9526TIP3    H152773   4.442   7.303   3.284 -0.3019 -2.0620  0.4410
 9526TIP3    H252774   4.379   7.214   3.178 -0.4742  0.2749 -1.5043
 9527TIP3   OH252775   5.197   3.332   2.984 -0.1390 -0.4245  0.2011
 9527TIP3    H152776   5.179   3.423   3.006 -0.5468 -0.5202  0.2756
 9527TIP3    H252777   5.281   3.334   2.939  0.5401 -0.1831  1.4364
 9528TIP3   OH252778   2.295   4.972   2.579 -0.5847  0.2312 -0.4220
 9528TIP3    H152779   2.320   4.985   2.488 -1.2765 -0.1220 -0.6620
 9528TIP3    H252780   2.244   5.050   2.602 -2.2674 -0.6524 -1.0008
 9529TIP3   OH252781   1.335   0.940   2.274 -0.0339  0.1907 -0.0412
 9529TIP3    H152782   1.242   0.953   2.253  0.1820  1.3060 -0.3946
 9529TIP3    H252783   1.339   0.947   2.369  0.0457  3.2197 -0.1471
 9530TIP3   OH252784   5.958   0.403   3.425  0.5662 -0.2834 -0.1526
 9530TIP3    H152785   5.928   0.377   3.512 -1.8952  0.1089 -0.8081
 9530TIP3    H252786   5.957   0.322   3.374 -0.4014 -0.1108 -0.4255
 9531TIP3   OH252787   6.840   7.001   1.584  0.2199  0.5642  0.7348
 9531TIP3    H152788   6.830   6.980   1.491  2.2584 -0.7160  0.7488
 9531TIP3    H252789   6.798   6.927   1.629  2.2865 -0.6650  0.7746
 9532TIP3   OH252790   5.502   0.811   1.477 -0.3838 -0.0462 -0.0648
 9532TIP3    H152791   5.527   0.862   1.554  0.8421  1.1547 -1.2150
 9532TIP3    H252792   5.536   0.724   1.495  3.0321  1.0106 -0.6516
 9533TIP3   OH252793   1.150   6.957   0.444  0.1417  0.5396  0.2080
 9533TIP3    H152794   1.196   7.041   0.440  0.4141  0.3888  0.1333
 9533TIP3    H252795   1.205   6.902   0.499 -1.0712  1.0446  2.0051
 9534TIP3   OH252796   6.950   2.949   1.920  0.5448  0.0683  0.3634
 9534TIP3    H152797   7.000   2.974   1.842  1.9648 -0.6667  0.9958
 9534TIP3    H252798   6.862   2.931   1.887  0.5949  1.6555 -0.7504
 9535TIP3   OH252799   7.589   1.984   1.186 -0.6105  0.1789 -0.0960
 9535TIP3    H152800   7.558   1.952   1.102  0.7083 -1.5923  0.0096
 9535TIP3    H252801   7.590   2.079   1.178 -3.1809  0.1820 -1.0473
 9536TIP3   OH252802   5.090   5.778   1.123 -0.1504  0.3418  0.3765
 9536TIP3    H152803   5.115   5.840   1.054  1.8934  1.1937  1.7877
 9536TIP3    H252804   4.994   5.785   1.128 -0.1847  1.5504 -1.1709
 9537TIP3   OH252805   0.269   3.191   0.942 -0.4133 -1.2128 -0.3206
 9537TIP3    H152806   0.300   3.160   1.027 -0.8176 -0.6505  0.0394
 9537TIP3    H252807   0.311   3.277   0.931  0.6496 -1.8219 -1.2797
 9538TIP3   OH252808   1.207   0.989   0.779  0.2727  0.4987  0.1753
 9538TIP3    H152809   1.267   0.958   0.712  0.9357 -0.9426  1.3769
 9538TIP3    H252810   1.229   1.081   0.791  0.5299  0.6304 -1.1453
 9539TIP3   OH252811   2.313   3.365   3.106  0.1214  0.0401 -0.1429
 9539TIP3    H152812   2.217   3.366   3.112  0.2195  0.8008  2.5819
 9539TIP3    H252813   2.331   3.329   3.019 -2.6187  2.0634 -1.7029
 9540TIP3   OH252814   6.601   5.008   2.029 -0.2656 -0.0333 -0.0587
 9540TIP3    H152815   6.516   5.037   1.996 -0.6453 -1.4030 -0.3253
 9540TIP3    H252816   6.665   5.060   1.979 -0.9291  0.8845  0.0249
 9541TIP3   OH252817   7.622   1.912   1.820 -0.5285 -0.0893 -0.1779
 9541TIP3    H152818   7.555   1.910   1.888  0.4291  2.3614  0.9733
 9541TIP3    H252819   7.675   1.834   1.836 -1.0820 -0.2313  1.0619
 9542TIP3   OH252820   2.893   1.150   1.833  0.5191 -0.3902 -0.3356
 9542TIP3    H152821   2.831   1.216   1.864  1.2969 -0.5680  1.7645
 9542TIP3    H252822   2.853   1.067   1.856  0.8880 -0.5549 -0.2849
 9543TIP3   OH252823   3.720   6.297   1.193 -0.1963 -0.1197 -0.0200
 9543TIP3    H152824   3.641   6.298   1.248 -0.3374  2.0035 -0.1681
 9543TIP3    H252825   3.686   6.285   1.104 -0.5570  2.1282 -0.2483
 9544TIP3   OH252826   1.243   0.047   2.655  0.5486  0.5100 -0.0886
 9544TIP3    H152827   1.300   0.112   2.614  0.4531  0.2595 -0.6209
 9544TIP3    H252828   1.186   0.099   2.712  1.6113  0.7165  0.8176
 9545TIP3   OH252829   2.154   7.061   1.099 -0.1118 -0.3658 -0.1175
 9545TIP3    H152830   2.105   6.984   1.071  0.3082 -1.8252  2.7614
 9545TIP3    H252831   2.136   7.069   1.193  1.5620  1.7649  0.1194
 9546TIP3   OH252832   6.110   0.773   0.980 -0.4214 -0.3642  0.3180
 9546TIP3    H152833   6.082   0.855   0.938 -0.0931  0.1530  1.0730
 9546TIP3    H252834   6.168   0.802   1.052 -0.8892 -1.2168  1.0580
 9547TIP3   OH252835   5.472   5.917   2.444  0.9337  0.5518  0.2867
 9547TIP3    H152836   5.501   5.828   2.465 -0.7833 -0.2692 -0.6371
 9547TIP3    H252837   5.487   5.967   2.525  1.0745 -0.8044  1.1259
 9548TIP3   OH252838   2.719   3.161   1.012 -0.5730  0.2369 -0.2567
 9548TIP3    H152839   2.663   3.213   0.953 -2.2268 -1.0903  0.0492
 9548TIP3    H252840   2.764   3.099   0.954 -0.4919  0.3958 -0.3630
 9549TIP3   OH252841   6.410   4.497   1.926 -0.2940 -0.0420 -0.3444
 9549TIP3    H152842   6.317   4.475   1.935  0.2051 -2.2191 -0.0285
 9549TIP3    H252843   6.456   4.414   1.940  1.6961  0.9288 -0.7909
 9550TIP3   OH252844   3.568   0.455   1.896  0.2698 -0.5954  0.7848
 9550TIP3    H152845   3.492   0.476   1.951 -0.0477 -0.3419  0.2504
 9550TIP3    H252846   3.612   0.539   1.884  0.8331 -0.7940  1.3710
 9551TIP3   OH252847   5.873   7.556   2.273  0.0154 -0.2044  0.4657
 9551TIP3    H152848   5.858   7.469   2.237 -1.6267 -1.3502  3.5172
 9551TIP3    H252849   5.799   7.608   2.241  0.2483 -0.3147 -0.2580
 9552TIP3   OH252850   1.731   3.649   3.119  0.4820  0.0461  0.2381
 9552TIP3    H152851   1.800   3.696   3.166  0.3814 -0.9341  1.3798
 9552TIP3    H252852   1.776   3.574   3.079  0.8008  1.4426 -2.2400
 9553TIP3   OH252853   6.783   4.830   2.151 -0.3359  0.6733  0.2674
 9553TIP3    H152854   6.715   4.897   2.154  0.3111  1.3518  0.2326
 9553TIP3    H252855   6.823   4.840   2.064 -0.4293  0.0459  0.1511
 9554TIP3   OH252856   5.299   0.868   2.066 -0.4389  0.5355  0.4958
 9554TIP3    H152857   5.356   0.935   2.028 -0.2637  1.0714  1.6498
 9554TIP3    H252858   5.331   0.786   2.031  0.0009  0.9740 -0.1452
 9555TIP3   OH252859   0.876   4.024   1.163 -0.7157  0.2065  0.0140
 9555TIP3    H152860   0.961   4.008   1.204 -0.2209 -0.5808 -1.2587
 9555TIP3    H252861   0.816   3.963   1.208 -0.2146 -0.5380 -0.2988
 9556TIP3   OH252862   4.363   4.840   1.760  0.1486 -0.3932  0.4951
 9556TIP3    H152863   4.273   4.841   1.725 -0.8310 -0.6478  2.8112
 9556TIP3    H252864   4.395   4.753   1.740  0.0022 -0.2042 -0.6184
 9557TIP3   OH252865   6.833   1.434   1.621 -0.2242  0.2039 -0.4065
 9557TIP3    H152866   6.857   1.428   1.713 -0.5289 -0.2848 -0.3588
 9557TIP3    H252867   6.902   1.488   1.582 -0.3595  0.8222  0.1992
 9558TIP3   OH252868   1.368   0.629   1.601 -0.2589 -0.1450  0.2207
 9558TIP3    H152869   1.381   0.699   1.665 -0.4799 -0.8264  1.0383
 9558TIP3    H252870   1.273   0.618   1.597 -0.1771 -1.7869  1.6919
 9559TIP3   OH252871   7.456   2.324   1.935 -0.3247 -0.3629 -0.0441
 9559TIP3    H152872   7.502   2.272   1.870 -2.7442 -2.4787 -0.2120
 9559TIP3    H252873   7.496   2.301   2.018 -2.0016 -3.4774  0.0241
 9560TIP3   OH252874   6.770   6.520   1.680  0.2516 -0.0839 -0.4181
 9560TIP3    H152875   6.844   6.511   1.741 -0.2284 -1.8079 -0.0175
 9560TIP3    H252876   6.749   6.430   1.655 -1.8225  0.3430 -0.3929
 9561TIP3   OH252877   2.893   7.401   1.610  0.4021  0.0186  0.1805
 9561TIP3    H152878   2.806   7.409   1.570  0.7067  1.2680 -0.2982
 9561TIP3    H252879   2.954   7.424   1.540  1.0512  0.3398  0.8394
 9562TIP3   OH252880   6.054   2.397   2.733  0.0728  0.0168  0.3459
 9562TIP3    H152881   5.965   2.430   2.721 -0.0925 -0.4275  0.3546
 9562TIP3    H252882   6.091   2.454   2.801  0.2770  1.1096 -0.6443
 9563TIP3   OH252883   0.761   3.748   2.687  0.6301  0.3334 -0.4261
 9563TIP3    H152884   0.810   3.666   2.694 -0.4813 -0.3052  0.1880
 9563TIP3    H252885   0.785   3.797   2.766  0.4233  0.0961 -0.2135
 9564TIP3   OH252886   0.795   3.254   1.995  0.4440 -0.1716  0.2381
 9564TIP3    H152887   0.700   3.257   1.983  0.3039 -1.1566  0.9797
 9564TIP3    H252888   0.816   3.338   2.037 -0.3486 -0.6413  1.6309
 9565TIP3   OH252889   1.899   7.264   1.946  0.4587 -0.0660 -0.0038
 9565TIP3    H152890   1.916   7.262   1.851  1.2499 -0.0357  0.1328
 9565TIP3    H252891   1.866   7.352   1.962  0.3063 -0.0744 -0.2532
 9566TIP3   OH252892   0.926   1.083   1.970  0.4350  0.4599 -0.4868
 9566TIP3    H152893   0.907   1.175   1.992  0.4369  0.2700  0.3233
 9566TIP3    H252894   1.008   1.086   1.921  0.9712  0.8002  0.4122
 9567TIP3   OH252895   4.022   1.633   2.208  0.3634 -0.2750 -0.1575
 9567TIP3    H152896   4.002   1.693   2.137  0.2660 -0.1240 -0.0037
 9567TIP3    H252897   3.990   1.677   2.287  0.6189 -0.3644  0.0003
 9568TIP3   OH252898   1.190   0.592   2.041 -0.3501  0.2016  0.0398
 9568TIP3    H152899   1.109   0.584   2.092 -0.9176  0.2398 -0.8500
 9568TIP3    H252900   1.220   0.502   2.029 -0.8438  0.1151 -0.5567
 9569TIP3   OH252901   2.215   5.121   2.212 -0.4675  0.1391  0.0916
 9569TIP3    H152902   2.210   5.169   2.129  0.5110 -0.6184 -0.4309
 9569TIP3    H252903   2.158   5.046   2.200 -0.0628 -0.1522 -0.0302
 9570TIP3   OH252904   6.018   0.837   3.006  0.3226  0.0625  0.4742
 9570TIP3    H152905   6.052   0.867   2.921  0.1039  0.3221  0.4772
 9570TIP3    H252906   6.078   0.768   3.033 -0.3052 -0.8958 -0.4887
 9571TIP3   OH252907   1.083   4.651   2.006 -0.6840 -0.1057  0.2316
 9571TIP3    H152908   1.179   4.648   2.002 -0.5888 -1.4117  2.3118
 9571TIP3    H252909   1.054   4.602   1.929  0.3166 -0.4880  0.0867
 9572TIP3   OH252910   0.162   4.754   1.580 -0.3192 -0.2468 -0.0755
 9572TIP3    H152911   0.161   4.698   1.502 -1.4824  0.1365 -0.3610
 9572TIP3    H252912   0.142   4.694   1.652 -0.9931 -0.3144 -0.3078
 9573TIP3   OH252913   6.052   1.852   2.212 -0.3576 -0.3140 -0.0115
 9573TIP3    H152914   6.032   1.919   2.146 -1.1035 -1.8662 -1.4351
 9573TIP3    H252915   6.148   1.849   2.214 -0.3177  0.4971 -0.2307
 9574TIP3   OH252916   4.153   0.654   0.513 -0.5592 -0.0998  0.2570
 9574TIP3    H152917   4.123   0.649   0.422 -2.2752  1.0825  0.7244
 9574TIP3    H252918   4.174   0.564   0.536  0.5443 -0.3368 -1.5019
 9575TIP3   OH252919   5.583   5.322   2.430  0.2060  0.2655  0.4133
 9575TIP3    H152920   5.626   5.388   2.483 -0.4754  0.2189  1.0334
 9575TIP3    H252921   5.520   5.280   2.489 -0.4005  0.0568 -0.3595
 9576TIP3   OH252922   5.228   2.436   1.106 -0.1222  0.1689 -0.1561
 9576TIP3    H152923   5.150   2.456   1.158 -0.9382  0.1752 -1.3352
 9576TIP3    H252924   5.283   2.385   1.165 -1.1050 -0.0085  0.6489
 9577TIP3   OH252925   2.932   7.260   2.030  0.2590 -0.6782 -0.3544
 9577TIP3    H152926   2.938   7.198   2.103  0.7658 -0.3164 -0.0825
 9577TIP3    H252927   3.012   7.244   1.979 -0.5634 -1.6115 -1.3860
 9578TIP3   OH252928   7.292   3.796   3.215 -0.0067  0.8015  0.6084
 9578TIP3    H152929   7.229   3.868   3.215  0.3805  1.2035 -1.6142
 9578TIP3    H252930   7.352   3.817   3.286 -0.9064  1.7369  1.1226
 9579TIP3   OH252931   6.850   1.597   2.913  0.0207  0.1629  0.4712
 9579TIP3    H152932   6.886   1.685   2.923  0.9182 -0.0337 -0.7715
 9579TIP3    H252933   6.907   1.555   2.848 -0.8679 -1.0686  0.4504
 9580TIP3   OH252934   2.687   7.333   2.261  0.4553  0.3455  0.9038
 9580TIP3    H152935   2.635   7.331   2.341  0.7688  1.2866  1.1385
 9580TIP3    H252936   2.751   7.263   2.272 -1.7715 -2.0373 -0.1261
 9581TIP3   OH252937   4.322   3.475   0.945  0.1485  0.4351  0.0801
 9581TIP3    H152938   4.350   3.484   1.036  1.1329 -0.5676 -0.1059
 9581TIP3    H252939   4.229   3.500   0.947  0.0285  0.0015  1.4449
 9582TIP3   OH252940   0.200   4.539   1.389 -0.4908 -0.1669  0.2761
 9582TIP3    H152941   0.216   4.481   1.314 -0.0585  1.8990 -1.3281
 9582TIP3    H252942   0.265   4.513   1.454  0.0789 -1.0859 -0.6328
 9583TIP3   OH252943   4.951   6.533   1.615  0.1437  0.4406 -0.4006
 9583TIP3    H152944   4.902   6.531   1.697  0.3297  0.8018 -0.2764
 9583TIP3    H252945   4.904   6.473   1.557  0.9956 -1.1719  0.5068
 9584TIP3   OH252946   0.214   2.882   1.055  0.1288  0.2514  0.2816
 9584TIP3    H152947   0.227   2.968   1.094 -0.6028  0.4133  0.1890
 9584TIP3    H252948   0.161   2.835   1.119  0.9044 -0.2917  0.5366
 9585TIP3   OH252949   3.427   1.976   1.583 -0.1303  0.1738  0.0973
 9585TIP3    H152950   3.383   1.994   1.500 -1.1618 -0.3243  0.5143
 9585TIP3    H252951   3.375   1.907   1.623  0.3107  0.4502  1.1890
 9586TIP3   OH252952   4.408   6.676   2.449  0.0333 -0.6014  0.7847
 9586TIP3    H152953   4.473   6.646   2.386 -0.0791 -0.3504  0.5490
 9586TIP3    H252954   4.366   6.596   2.481 -1.3532 -0.6427 -1.0009
 9587TIP3   OH252955   5.085   0.242   1.249  0.2475  0.3110  0.2680
 9587TIP3    H152956   5.140   0.238   1.170  0.2167  2.3218  0.0970
 9587TIP3    H252957   5.026   0.167   1.240  0.0468  0.6342 -1.8147
 9588TIP3   OH252958   1.601   3.348   0.951  0.1867 -0.1554 -0.2341
 9588TIP3    H152959   1.630   3.346   1.042 -1.4062 -3.2536  0.3140
 9588TIP3    H252960   1.682   3.339   0.900  0.9703  0.3727  0.8685
 9589TIP3   OH252961   0.339   0.689   0.731 -0.0539 -0.0518  0.0616
 9589TIP3    H152962   0.277   0.752   0.693 -1.9513 -1.7760  0.1226
 9589TIP3    H252963   0.292   0.650   0.804  0.9119 -1.7704 -0.1781
 9590TIP3   OH252964   0.631   3.920   3.041  0.3236 -0.0839 -0.2118
 9590TIP3    H152965   0.540   3.949   3.040 -0.0789 -0.6534  3.8679
 9590TIP3    H252966   0.682   3.999   3.024 -0.9048  1.6373  3.2865
 9591TIP3   OH252967   2.281   3.576   2.100  0.1799 -0.0227  0.1176
 9591TIP3    H152968   2.315   3.656   2.138  0.5156 -0.4629  0.7537
 9591TIP3    H252969   2.190   3.596   2.079 -0.2388  0.0042  1.8435
 9592TIP3   OH252970   6.735   6.266   1.588 -0.5134 -0.4936  0.0241
 9592TIP3    H152971   6.717   6.209   1.664 -1.0403 -1.1225 -0.5527
 9592TIP3    H252972   6.655   6.259   1.535 -1.4909  2.4456  0.9263
 9593TIP3   OH252973   0.473   2.342   2.321  0.0584  0.7325 -0.2487
 9593TIP3    H152974   0.522   2.412   2.363 -1.0520  0.5103  1.4875
 9593TIP3    H252975   0.470   2.272   2.386 -1.1139  0.0977 -0.9481
 9594TIP3   OH252976   0.594   3.557   1.504 -0.1881 -0.4491 -0.4574
 9594TIP3    H152977   0.562   3.646   1.514  0.3495 -0.1865 -0.9626
 9594TIP3    H252978   0.686   3.567   1.480  0.2490 -1.1763  0.8344
 9595TIP3   OH252979   3.740   6.736   2.798  0.5913 -0.0931 -1.0759
 9595TIP3    H152980   3.793   6.656   2.804 -0.3725 -0.7699 -1.2685
 9595TIP3    H252981   3.779   6.796   2.861 -0.0674 -1.5680  0.8364
 9596TIP3   OH252982   3.592   6.215   0.875  0.0919 -0.3043 -0.3842
 9596TIP3    H152983   3.642   6.134   0.886  0.4345 -0.5065 -2.9333
 9596TIP3    H252984   3.521   6.191   0.815 -0.8250  0.8993  0.1916
 9597TIP3   OH252985   7.203   6.149   2.344  0.0185  0.1065  0.2249
 9597TIP3    H152986   7.208   6.197   2.261  0.2070  1.5989  1.0623
 9597TIP3    H252987   7.266   6.077   2.335 -0.8633 -0.5112 -1.3751
 9598TIP3   OH252988   0.770   5.069   1.973  0.3412 -0.0921  0.6164
 9598TIP3    H152989   0.786   5.162   1.958  0.2443 -0.2744 -0.7025
 9598TIP3    H252990   0.852   5.026   1.949  0.3737 -0.3624  1.1903
 9599TIP3   OH252991   3.889   1.454   1.434 -0.7484  0.0756 -0.1537
 9599TIP3    H152992   3.828   1.483   1.367 -1.2826 -0.4084  0.1207
 9599TIP3    H252993   3.877   1.359   1.438 -0.9919  0.1470  0.8916
 9600TIP3   OH252994   6.211   1.821   0.982 -0.0855 -0.5729 -1.0285
 9600TIP3    H152995   6.166   1.827   1.066 -0.7462  3.9716 -1.4804
 9600TIP3    H252996   6.271   1.747   0.993 -2.5091 -2.3352  2.1339
 9601TIP3   OH252997   3.302   3.870   0.640 -0.3504  0.5868 -0.1083
 9601TIP3    H152998   3.283   3.963   0.629 -0.2008  0.9099  1.9176
 9601TIP3    H252999   3.234   3.839   0.701  1.3360  0.1027  1.6074
 9602TIP3   OH253000   5.952   6.011   1.361  0.2168 -0.4478 -0.2157
 9602TIP3    H153001   5.914   6.092   1.394  3.2515  0.1970  2.1847
 9602TIP3    H253002   6.021   6.039   1.301 -0.1182 -1.3743 -1.0707
 9603TIP3   OH253003   4.426   4.375   3.366  0.3173 -0.0012  0.3265
 9603TIP3    H153004   4.382   4.444   3.316 -2.6005 -0.5497  1.9509
 9603TIP3    H253005   4.388   4.293   3.333  0.1720 -0.5127  1.7105
 9604TIP3   OH253006   5.296   2.650   2.196  0.1330 -0.2063 -0.0474
 9604TIP3    H153007   5.210   2.609   2.203 -0.6845  1.5621  0.8787
 9604TIP3    H253008   5.334   2.642   2.283  0.7528 -0.6121 -0.3444
 9605TIP3   OH253009   2.981   1.526   1.938 -0.0423 -0.0857 -0.3185
 9605TIP3    H153010   2.977   1.510   1.844  0.4463 -1.1040 -0.1925
 9605TIP3    H253011   3.017   1.444   1.974  1.2581  0.8352  0.5805
 9606TIP3   OH253012   1.296   5.843   1.354 -0.3361  0.2258  0.2257
 9606TIP3    H153013   1.363   5.854   1.286 -0.7547  2.2777  0.0976
 9606TIP3    H253014   1.227   5.793   1.310 -0.6343  1.5765 -0.9270
 9607TIP3   OH253015   2.460   5.175   3.036 -0.5744 -0.5561  0.0200
 9607TIP3    H153016   2.501   5.157   2.952 -1.4667  1.0684 -0.8095
 9607TIP3    H253017   2.391   5.238   3.016 -0.0311  0.8103  2.1497
 9608TIP3   OH253018   5.149   5.406   2.629  0.0196 -0.1138  0.3114
 9608TIP3    H153019   5.132   5.380   2.538 -0.1154  0.3101  0.2140
 9608TIP3    H253020   5.239   5.378   2.645 -0.1708 -0.7788  0.2604
 9609TIP3   OH253021   1.246   4.643   0.782 -0.6093 -0.2747  0.1861
 9609TIP3    H153022   1.262   4.733   0.753 -3.2812 -0.2360 -1.6527
 9609TIP3    H253023   1.168   4.649   0.837  0.2880 -1.2738  1.6154
 9610TIP3   OH253024   6.355   5.987   2.692  0.4234  0.7970 -0.0674
 9610TIP3    H153025   6.353   5.955   2.782  2.6179 -0.2927 -0.3228
 9610TIP3    H253026   6.311   6.072   2.695 -1.8126 -0.3337  1.4888
 9611TIP3   OH253027   3.538   4.850   2.015 -1.0403 -0.4246 -0.2324
 9611TIP3    H153028   3.447   4.833   1.989 -0.5723 -0.4324 -2.0082
 9611TIP3    H253029   3.554   4.940   1.986  0.1871 -1.1868 -2.0830
 9612TIP3   OH253030   5.315   1.344   1.043 -0.1604 -0.1013 -0.0013
 9612TIP3    H153031   5.297   1.330   0.950  1.4539  1.6926 -0.6269
 9612TIP3    H253032   5.382   1.412   1.045 -0.0369 -0.2169  2.4864
 9613TIP3   OH253033   2.290   6.924   2.384 -0.3368  0.3697  0.3967
 9613TIP3    H153034   2.237   6.872   2.325 -1.3359 -1.3607  2.6496
 9613TIP3    H253035   2.239   7.004   2.399 -0.8225  0.1052  0.1593
 9614TIP3   OH253036   6.836   2.713   1.025 -0.2316  0.0745 -0.4517
 9614TIP3    H153037   6.778   2.693   0.952 -0.7967  1.1284 -0.3115
 9614TIP3    H253038   6.853   2.807   1.016  0.4951  0.0072  0.1971
 9615TIP3   OH253039   2.732   2.540   1.039  0.0007 -0.2314 -0.6117
 9615TIP3    H153040   2.677   2.563   0.964  1.7108 -0.0589 -1.8694
 9615TIP3    H253041   2.760   2.624   1.075 -0.8936 -0.3125  0.3217
 9616TIP3   OH253042   6.914   4.056   2.169 -0.2552  0.1532  0.3690
 9616TIP3    H153043   6.977   4.068   2.240 -0.5801  1.1926  0.5024
 9616TIP3    H253044   6.858   3.985   2.198  0.3305 -0.2078  0.6291
 9617TIP3   OH253045   6.564   6.842   3.116  0.2150 -0.2623  0.2045
 9617TIP3    H153046   6.498   6.907   3.135  0.1852 -0.3642  0.4442
 9617TIP3    H253047   6.640   6.868   3.167  0.4365 -0.0216 -0.2379
 9618TIP3   OH253048   2.496   7.633   1.288  0.0123  0.0889  0.0053
 9618TIP3    H153049   2.456   7.615   1.373 -0.8994  0.2028 -0.3815
 9618TIP3    H253050   2.467   7.560   1.232  0.3233  0.1908 -0.2922
 9619TIP3   OH253051   2.048   7.095   2.415 -0.3234 -0.6033  0.2163
 9619TIP3    H153052   2.003   7.010   2.412  1.3414 -1.5455 -3.3707
 9619TIP3    H253053   1.994   7.153   2.361 -1.9527  1.0961  3.3762
 9620TIP3   OH253054   6.625   5.615   1.766 -0.0549  0.4640 -0.4015
 9620TIP3    H153055   6.630   5.688   1.704 -0.7115  1.6118  0.8675
 9620TIP3    H253056   6.714   5.579   1.767  0.6173  2.0672 -0.0737
 9621TIP3   OH253057   3.941   6.163   1.593  0.3143  0.2955 -0.1000
 9621TIP3    H153058   3.923   6.247   1.636  2.2584  0.9360 -0.4494
 9621TIP3    H253059   3.859   6.115   1.600 -0.9471  2.3299 -0.1431
 9622TIP3   OH253060   4.964   6.782   3.404 -0.1350 -0.0474  0.1673
 9622TIP3    H153061   4.900   6.745   3.344  0.2707 -0.0981 -0.2349
 9622TIP3    H253062   5.047   6.744   3.377  0.1536  0.4778  0.3136
 9623TIP3   OH253063   5.594   6.234   0.590 -0.6623  0.8989  0.4948
 9623TIP3    H153064   5.505   6.242   0.557 -0.8958 -0.7503  0.6644
 9623TIP3    H253065   5.588   6.172   0.663  1.0089 -1.6035 -1.3174
 9624TIP3   OH253066   2.416   3.724   1.772 -0.3106 -0.5053  0.1529
 9624TIP3    H153067   2.497   3.730   1.823  0.1786  0.5039 -0.7124
 9624TIP3    H253068   2.421   3.639   1.729 -0.0866 -0.7839  0.7218
 9625TIP3   OH253069   4.825   2.893   1.025 -0.5007 -0.3129  0.2309
 9625TIP3    H153070   4.764   2.883   0.951  0.5431 -0.7728 -0.6037
 9625TIP3    H253071   4.890   2.823   1.011  3.1736  3.0911 -1.8573
 9626TIP3   OH253072   5.388   7.384   1.575 -0.0512  0.1086 -0.0961
 9626TIP3    H153073   5.417   7.312   1.519 -2.3802 -0.2223 -0.9606
 9626TIP3    H253074   5.293   7.378   1.575 -0.2598  2.4515  0.8220
 9627TIP3   OH253075   2.212   6.743   1.691  0.0533  0.9556  0.1260
 9627TIP3    H153076   2.300   6.716   1.715 -0.9504 -2.1519  0.7959
 9627TIP3    H253077   2.224   6.822   1.639  3.2003  0.6958  0.2983
 9628TIP3   OH253078   5.699   6.418   2.774 -0.6753 -0.8062 -0.2449
 9628TIP3    H153079   5.693   6.449   2.864 -1.1597  2.8632 -1.3483
 9628TIP3    H253080   5.776   6.463   2.738 -1.1543 -1.2511 -1.9475
 9629TIP3   OH253081   6.699   4.454   2.732 -0.0468  0.5012 -0.4285
 9629TIP3    H153082   6.659   4.379   2.776  1.5282  1.4375  2.8873
 9629TIP3    H253083   6.633   4.523   2.735 -0.2855  0.2689 -0.3772
 9630TIP3   OH253084   3.929   1.761   1.992  0.6522 -0.3107 -0.2319
 9630TIP3    H153085   4.001   1.805   1.946  0.0602  0.6176 -0.2913
 9630TIP3    H253086   3.857   1.760   1.928  0.3944 -0.6242  0.0608
 9631TIP3   OH253087   1.999   1.005   2.147 -0.5198 -0.2573  0.4231
 9631TIP3    H153088   1.978   0.915   2.171 -0.1540 -0.6638 -0.6958
 9631TIP3    H253089   2.027   0.999   2.056  0.1311  0.9028  0.5295
 9632TIP3   OH253090   6.329   2.947   1.465 -0.3116  0.0846 -0.2322
 9632TIP3    H153091   6.318   2.910   1.552  1.6587  0.8734  0.4279
 9632TIP3    H253092   6.385   2.884   1.419 -1.4783 -0.4093 -1.0034
 9633TIP3   OH253093   6.645   2.606   1.457  0.0255 -0.1503 -0.5713
 9633TIP3    H153094   6.643   2.606   1.553 -0.6943  1.6346 -0.5462
 9633TIP3    H253095   6.696   2.684   1.434 -1.4715  0.5555 -1.6209
 9634TIP3   OH253096   3.738   5.975   0.973 -0.0289  0.5315 -0.4413
 9634TIP3    H153097   3.795   5.931   0.909  2.3957  2.1597  0.4462
 9634TIP3    H253098   3.788   5.973   1.054 -1.3132  1.9753  0.4261
 9635TIP3   OH253099   1.869   5.831   1.708  0.1046 -0.7208  0.0615
 9635TIP3    H153100   1.787   5.880   1.714  0.0938 -0.9295  2.1693
 9635TIP3    H253101   1.843   5.744   1.680 -0.3788 -0.7143  0.4770
 9636TIP3   OH253102   2.422   4.675   1.462  0.1285  0.3636 -0.0676
 9636TIP3    H153103   2.374   4.729   1.400  2.8007  2.7338 -0.3050
 9636TIP3    H253104   2.493   4.637   1.411 -0.5933 -1.9441  0.5276
 9637TIP3   OH253105   6.258   6.163   2.190 -0.2671 -0.2612 -0.0679
 9637TIP3    H153106   6.188   6.192   2.249 -0.0365  0.5987 -0.2031
 9637TIP3    H253107   6.279   6.075   2.220 -0.9946 -0.3022  0.3598
 9638TIP3   OH253108   2.314   0.727   0.615  0.3477  0.1446  0.1814
 9638TIP3    H153109   2.277   0.653   0.663 -0.6945  1.0819  0.8669
 9638TIP3    H253110   2.261   0.734   0.536  0.8447 -0.2019 -0.1953
 9639TIP3   OH253111   1.404   4.562   2.656 -0.2422  0.8568 -0.4118
 9639TIP3    H153112   1.453   4.480   2.653  0.6399  1.3265  0.5621
 9639TIP3    H253113   1.354   4.563   2.575  1.1394  0.2146 -1.3066
 9640TIP3   OH253114   6.024   0.171   2.453 -0.5529  1.0782  0.0429
 9640TIP3    H153115   5.956   0.235   2.474 -1.4538  0.3076 -0.4499
 9640TIP3    H253116   6.032   0.117   2.531 -1.4579  0.3561 -0.3447
 9641TIP3   OH253117   6.890   6.645   1.209  0.0555 -0.1936  0.1981
 9641TIP3    H153118   6.904   6.565   1.260  1.0113  0.1014  0.4395
 9641TIP3    H253119   6.979   6.677   1.192 -0.3182  0.9690  0.3661
 9642TIP3   OH253120   3.825   0.405   2.406  0.3036 -0.3873 -0.1365
 9642TIP3    H153121   3.788   0.337   2.350 -1.6171 -0.7677  1.4703
 9642TIP3    H253122   3.771   0.482   2.390  1.2637  0.2130 -0.5446
 9643TIP3   OH253123   4.861   0.495   1.270 -0.4773 -0.0196  0.2455
 9643TIP3    H153124   4.782   0.539   1.238 -1.1053  0.6310  2.4861
 9643TIP3    H253125   4.846   0.402   1.252 -2.2081 -0.0164  1.3942
 9644TIP3   OH253126   6.188   6.085   3.055  0.7072  0.0765  0.5201
 9644TIP3    H153127   6.267   6.038   3.028 -0.4800 -0.6018 -2.1460
 9644TIP3    H253128   6.118   6.020   3.049 -0.4683  1.3325  0.1195
 9645TIP3   OH253129   5.825   6.300   0.801  0.0086 -0.0601 -0.0084
 9645TIP3    H153130   5.815   6.269   0.711  1.5121 -1.1231  0.1404
 9645TIP3    H253131   5.737   6.298   0.837 -0.3370 -1.7193 -0.8266
 9646TIP3   OH253132   4.775   2.372   0.962  0.2602  0.2475 -0.0313
 9646TIP3    H153133   4.753   2.397   1.052  2.2520 -2.8197  1.4790
 9646TIP3    H253134   4.696   2.329   0.930  0.2981 -0.8341  1.2181
 9647TIP3   OH253135   6.846   5.431   2.359  0.4172  0.1014  0.0667
 9647TIP3    H153136   6.797   5.506   2.393  0.6223  0.6428 -0.7964
 9647TIP3    H253137   6.838   5.439   2.264  1.3397 -0.3707 -0.0574
 9648TIP3   OH253138   4.426   3.316   2.678 -0.2164 -0.2058  0.7408
 9648TIP3    H153139   4.425   3.352   2.767  0.6556  0.3663  0.5320
 9648TIP3    H253140   4.423   3.393   2.621  1.3583 -0.4365  0.2866
 9649TIP3   OH253141   1.042   6.746   1.899  0.3438 -0.0129  0.1444
 9649TIP3    H153142   1.045   6.824   1.953 -0.5922 -0.7449  1.3201
 9649TIP3    H253143   1.109   6.759   1.832 -0.0939  1.9646  0.0490
 9650TIP3   OH253144   0.917   5.708   0.836  0.6792  0.9785  0.1459
 9650TIP3    H153145   0.876   5.714   0.923 -0.0665 -1.7796  0.0814
 9650TIP3    H253146   0.843   5.695   0.776  1.4080 -1.2510 -0.3436
 9651TIP3   OH253147   7.091   2.761   1.427 -0.2723 -0.5132 -0.2492
 9651TIP3    H153148   7.072   2.836   1.371  0.3945 -0.6046 -0.6018
 9651TIP3    H253149   7.146   2.796   1.497 -0.0656 -0.6480 -0.3445
 9652TIP3   OH253150   5.653   4.312   0.725 -0.5459 -0.5225  0.3036
 9652TIP3    H153151   5.656   4.356   0.810  0.7082 -1.9886  1.0433
 9652TIP3    H253152   5.569   4.265   0.725  0.5347 -2.5751  1.8339
 9653TIP3   OH253153   0.375   5.406   1.877 -0.1294 -0.6453 -0.0392
 9653TIP3    H153154   0.399   5.315   1.857  0.3782 -0.2256 -1.4369
 9653TIP3    H253155   0.455   5.456   1.861 -0.1835 -0.0261  1.4601
 9654TIP3   OH253156   6.418   1.425   2.118 -0.1120 -0.5541  0.2147
 9654TIP3    H153157   6.418   1.339   2.160 -1.8497 -0.6815  0.0138
 9654TIP3    H253158   6.467   1.412   2.036  1.6063 -0.7663  1.2252
 9655TIP3   OH253159   1.804   3.949   2.955  0.3881 -0.6595 -0.3472
 9655TIP3    H153160   1.721   3.901   2.950 -0.2385  0.0437  2.2320
 9655TIP3    H253161   1.859   3.895   3.011  0.0215  1.0283  1.7680
 9656TIP3   OH253162   1.946   7.267   2.213 -0.1020  0.6678  0.2284
 9656TIP3    H153163   1.946   7.361   2.229  1.5597  1.0562 -1.6546
 9656TIP3    H253164   1.944   7.259   2.117 -0.1674 -1.2197  0.3468
 9657TIP3   OH253165   7.539   2.123   2.110 -0.4220  0.3630 -0.0189
 9657TIP3    H153166   7.625   2.163   2.122  0.1073 -0.3638 -1.1347
 9657TIP3    H253167   7.540   2.046   2.166  0.6433 -1.0145 -1.8190
 9658TIP3   OH253168   5.150   7.237   1.461 -0.5686  0.1501  0.4100
 9658TIP3    H153169   5.205   7.263   1.387 -0.7438  2.5001  1.0012
 9658TIP3    H253170   5.197   7.166   1.503  1.5895  1.4563  0.3467
 9659TIP3   OH253171   5.548   1.782   1.416 -0.2464  0.1622  0.1588
 9659TIP3    H153172   5.467   1.765   1.368 -0.2405  1.4684 -0.3578
 9659TIP3    H253173   5.608   1.715   1.387 -0.1355  1.1015 -1.9634
 9660TIP3   OH253174   5.655   4.540   1.460  0.0792  0.4654 -1.1348
 9660TIP3    H153175   5.632   4.447   1.454 -2.3124  0.7813  1.3432
 9660TIP3    H253176   5.751   4.541   1.451  0.3112 -2.3863 -0.0672
 9661TIP3   OH253177   3.100   3.321   1.460  0.4772  0.1572 -0.2867
 9661TIP3    H153178   3.042   3.256   1.500 -0.7214  0.4095 -1.5494
 9661TIP3    H253179   3.147   3.359   1.534 -1.4702  0.4164  0.9121
 9662TIP3   OH253180   0.604   4.317   1.152 -0.2187  0.3380  0.5770
 9662TIP3    H153181   0.541   4.339   1.084 -1.7038  3.1574  2.6488
 9662TIP3    H253182   0.550   4.290   1.227  1.3541 -2.7647  0.7763
 9663TIP3   OH253183   7.452   6.864   1.111  0.5604  0.0076 -0.4831
 9663TIP3    H153184   7.492   6.778   1.102 -0.6016 -0.5923 -0.1162
 9663TIP3    H253185   7.508   6.910   1.173 -0.4235 -1.5601  1.6960
 9664TIP3   OH253186   0.210   6.733   2.313  0.2743 -0.5229  0.3038
 9664TIP3    H153187   0.191   6.713   2.405  1.4753 -1.4618  0.3807
 9664TIP3    H253188   0.137   6.696   2.264 -0.1556 -0.4107  0.8586
 9665TIP3   OH253189   7.478   1.096   1.753 -0.1387 -0.8400 -0.3226
 9665TIP3    H153190   7.449   1.146   1.677  2.0488 -0.5185 -1.0109
 9665TIP3    H253191   7.554   1.143   1.786 -0.1987 -1.7480  1.2248
 9666TIP3   OH253192   5.402   5.952   1.665 -0.4592 -1.0684  0.2284
 9666TIP3    H153193   5.490   5.984   1.686 -0.6168 -0.0062 -0.6445
 9666TIP3    H253194   5.417   5.880   1.604 -0.2134 -0.3025 -0.6306
 9667TIP3   OH253195   1.958   5.933   3.449  0.0146 -0.4487 -0.0362
 9667TIP3    H153196   2.027   5.944   3.384 -0.6744  0.1920 -0.6722
 9667TIP3    H253197   1.926   6.021   3.467 -1.8587 -0.8447 -1.1105
 9668TIP3   OH253198   7.488   4.108   1.390  0.1426  0.0327 -0.3604
 9668TIP3    H153199   7.477   4.017   1.362 -0.1609  0.3945 -1.4777
 9668TIP3    H253200   7.425   4.157   1.336  0.5421  0.9439 -0.0168
 9669TIP3   OH253201   4.257   5.518   0.814  0.2498  0.2446 -0.6554
 9669TIP3    H153202   4.213   5.567   0.883 -0.3143 -1.4905  0.2773
 9669TIP3    H253203   4.322   5.579   0.778 -0.7733  1.8167  0.0715
 9670TIP3   OH253204   4.589   4.733   1.984  0.5398  0.6585  0.2487
 9670TIP3    H153205   4.540   4.653   1.965 -2.3787  2.7262 -1.7272
 9670TIP3    H253206   4.648   4.744   1.910  1.0503  0.2806  0.5952
 9671TIP3   OH253207   3.365   3.785   1.017 -0.1716 -0.2190  0.5550
 9671TIP3    H153208   3.379   3.876   1.044  1.7878 -0.4976  0.5916
 9671TIP3    H253209   3.270   3.774   1.020 -0.3258  1.1766  2.6774
 9672TIP3   OH253210   0.737   0.139   2.158  0.4001 -0.1179 -0.2417
 9672TIP3    H153211   0.740   0.110   2.067 -1.2902 -0.5659 -0.1908
 9672TIP3    H253212   0.739   0.058   2.209 -0.8952 -0.0077  0.0194
 9673TIP3   OH253213   2.173   7.228   2.625 -0.0709  0.7972  0.1528
 9673TIP3    H153214   2.118   7.246   2.702  1.1392  1.0355  0.9952
 9673TIP3    H253215   2.121   7.167   2.572 -0.2288 -0.7729  2.0023
 9674TIP3   OH253216   0.514   4.271   0.599  0.7735  0.2206 -0.6637
 9674TIP3    H153217   0.563   4.191   0.615  0.0495  0.1948  1.8088
 9674TIP3    H253218   0.427   4.241   0.571  0.1812  0.0547  1.2313
 9675TIP3   OH253219   2.329   4.457   0.712  0.3768  0.3420  0.0507
 9675TIP3    H153220   2.262   4.463   0.780 -1.8710 -1.1801 -1.8521
 9675TIP3    H253221   2.366   4.545   0.707 -2.8863  1.8693 -0.0747
 9676TIP3   OH253222   4.403   7.103   2.853 -0.1007  0.2608  0.2488
 9676TIP3    H153223   4.462   7.178   2.858 -1.1605  1.1066  0.4818
 9676TIP3    H253224   4.389   7.078   2.945  0.3331 -0.3102  0.1679
 9677TIP3   OH253225   1.426   4.758   3.261 -0.1727  0.0815 -0.1418
 9677TIP3    H153226   1.397   4.676   3.219  0.8284 -0.0777 -0.5446
 9677TIP3    H253227   1.350   4.786   3.312 -0.3410 -1.4108  0.4849
 9678TIP3   OH253228   2.223   5.976   1.774 -0.1259 -0.1836 -0.1993
 9678TIP3    H153229   2.297   5.953   1.717 -0.2861  2.0755 -1.4218
 9678TIP3    H253230   2.166   5.900   1.770  1.1018 -1.1104 -1.0035
 9679TIP3   OH253231   1.392   4.635   1.822  0.1559 -0.6217 -0.1199
 9679TIP3    H153232   1.422   4.703   1.762  0.2557  0.1872  0.8431
 9679TIP3    H253233   1.375   4.559   1.765 -1.7409  0.7293 -1.4838
 9680TIP3   OH253234   5.897   4.635   1.709 -0.6373  0.0454 -0.2726
 9680TIP3    H153235   5.864   4.681   1.787  1.8989  1.2718  0.2132
 9680TIP3    H253236   5.834   4.655   1.640 -1.8837  0.6305  0.9841
 9681TIP3   OH253237   2.784   5.155   0.419 -0.5112  0.3032 -0.0867
 9681TIP3    H153238   2.801   5.085   0.482  1.1806  1.1598  0.4816
 9681TIP3    H253239   2.795   5.113   0.333 -0.5288 -0.3459  0.2224
 9682TIP3   OH253240   7.022   6.411   1.313 -0.0751 -0.0506 -0.0237
 9682TIP3    H153241   7.075   6.456   1.380  0.3308  0.4574 -0.6744
 9682TIP3    H253242   7.082   6.398   1.240 -0.2868 -1.3573  0.0090
 9683TIP3   OH253243   2.639   2.304   2.115 -0.4855 -0.1956  0.0703
 9683TIP3    H153244   2.652   2.347   2.030  1.8374  1.2651  1.0718
 9683TIP3    H253245   2.572   2.358   2.158  0.8567  1.2513  0.4642
 9684TIP3   OH253246   3.384   3.129   0.524  0.0146 -0.0199 -0.2622
 9684TIP3    H153247   3.464   3.107   0.572 -0.2833  1.3439  0.9150
 9684TIP3    H253248   3.365   3.220   0.548 -0.7223  0.3935 -2.1920
 9685TIP3   OH253249   3.780   0.148   1.012 -0.1551  0.5110 -0.4682
 9685TIP3    H153250   3.874   0.132   1.024  0.1318  3.1751  1.6099
 9685TIP3    H253251   3.738   0.087   1.073  0.2435 -0.0892 -0.7778
 9686TIP3   OH253252   3.865   6.997   1.847 -0.5470 -0.1998  0.0593
 9686TIP3    H153253   3.784   7.048   1.847 -0.6123 -0.2744  1.3946
 9686TIP3    H253254   3.910   7.023   1.766 -1.4199  0.5977 -0.1833
 9687TIP3   OH253255   5.512   0.212   1.113  0.1297  0.1760 -0.0900
 9687TIP3    H153256   5.468   0.157   1.178 -1.2402  1.7547  0.3921
 9687TIP3    H253257   5.517   0.157   1.035  1.8517 -1.7760  1.3080
 9688TIP3   OH253258   6.466   3.405   1.183 -0.4056  0.5980 -0.2530
 9688TIP3    H153259   6.555   3.387   1.211 -0.8491  0.5564  1.2055
 9688TIP3    H253260   6.413   3.340   1.229 -1.3325  1.4707 -0.0599
 9689TIP3   OH253261   6.564   4.127   0.498 -0.1606  0.0527  0.2742
 9689TIP3    H153262   6.559   4.206   0.443  2.0078 -0.0011 -0.0828
 9689TIP3    H253263   6.482   4.081   0.480 -0.7637  1.4315 -0.7510
 9690TIP3   OH253264   2.297   5.643   2.994 -0.1938  0.1472 -0.2081
 9690TIP3    H153265   2.327   5.730   2.968 -0.9416  0.3917 -0.2814
 9690TIP3    H253266   2.377   5.592   3.003  0.4023  1.2928  1.5102
 9691TIP3   OH253267   6.794   2.887   0.776  0.2877 -0.0546 -0.2054
 9691TIP3    H153268   6.810   2.949   0.848  0.3861  0.8474 -0.9927
 9691TIP3    H253269   6.881   2.853   0.754  0.2715 -0.2465  0.0239
 9692TIP3   OH253270   4.824   0.999   0.992  0.2191 -0.1324  0.4919
 9692TIP3    H153271   4.915   0.987   0.965  0.9709  0.8346  2.4202
 9692TIP3    H253272   4.819   0.959   1.078 -1.1946 -0.1311  0.4333
 9693TIP3   OH253273   7.534   2.927   0.617 -0.0159  0.2657  0.2603
 9693TIP3    H153274   7.600   2.860   0.638  0.2696  0.4064 -0.1783
 9693TIP3    H253275   7.450   2.884   0.636  0.2012  0.1559  1.0332
 9694TIP3   OH253276   4.346   4.058   0.986 -0.2804 -0.9950  0.2974
 9694TIP3    H153277   4.289   4.002   1.038 -0.4564  0.8075  2.1918
 9694TIP3    H253278   4.289   4.091   0.916 -0.4440 -2.2814 -0.2111
 9695TIP3   OH253279   1.294   2.485   3.407  0.0839  0.3066  0.1179
 9695TIP3    H153280   1.230   2.550   3.379 -2.3975 -2.1252 -0.2818
 9695TIP3    H253281   1.244   2.425   3.463  2.2263 -1.2410  0.4872
 9696TIP3   OH253282   3.414   4.804   2.609  0.2818  0.2778  0.9599
 9696TIP3    H153283   3.470   4.734   2.642  1.9130  1.0294 -0.1028
 9696TIP3    H253284   3.326   4.778   2.636  0.5612 -3.0537 -0.7789
 9697TIP3   OH253285   1.921   7.527   2.228 -0.5745  0.1282  0.1636
 9697TIP3    H153286   1.873   7.532   2.146 -0.3713  0.9107  0.0767
 9697TIP3    H253287   1.907   7.613   2.268  1.2917  0.6284 -0.1765
 9698TIP3   OH253288   7.067   0.866   2.116  0.0818 -0.1495 -0.7834
 9698TIP3    H153289   7.039   0.793   2.172  0.5572  0.5971  0.4773
 9698TIP3    H253290   7.163   0.864   2.121  0.0982  1.4217  0.4945
 9699TIP3   OH253291   3.452   2.985   1.826 -0.3207 -0.2274  0.3515
 9699TIP3    H153292   3.368   3.026   1.806 -0.7440 -1.6227 -0.8947
 9699TIP3    H253293   3.517   3.050   1.801 -1.0128  0.4192  0.2103
 9700TIP3   OH253294   7.528   7.241   1.759  0.1580 -0.1208  0.0971
 9700TIP3    H153295   7.597   7.303   1.735 -0.5449  0.4380 -0.5336
 9700TIP3    H253296   7.551   7.213   1.848  1.3789 -0.2205 -0.2313
 9701TIP3   OH253297   7.108   4.295   1.347  0.0127  0.7653 -0.1127
 9701TIP3    H153298   7.043   4.297   1.277 -1.2239  0.2836  0.9774
 9701TIP3    H253299   7.192   4.310   1.303 -0.8090  1.2216 -1.5753
 9702TIP3   OH253300   0.591   6.458   0.868  0.4478  0.2859  0.0371
 9702TIP3    H153301   0.556   6.530   0.816 -0.5543 -0.2337 -0.0494
 9702TIP3    H253302   0.619   6.393   0.803  0.7097  0.3143  0.1217
 9703TIP3   OH253303   7.145   5.400   2.321  0.6250 -0.0780 -0.5417
 9703TIP3    H153304   7.150   5.331   2.386 -0.8905  0.1901 -0.0865
 9703TIP3    H253305   7.058   5.439   2.334  0.4241  0.2288 -2.4694
 9704TIP3   OH253306   2.310   6.952   1.502 -0.5081 -0.2593  0.1572
 9704TIP3    H153307   2.383   6.993   1.455  0.6843 -1.8208  0.5513
 9704TIP3    H253308   2.234   7.007   1.481  0.7459  1.3617 -0.3471
 9705TIP3   OH253309   6.606   1.788   2.962  0.0836  0.3053 -0.0228
 9705TIP3    H153310   6.601   1.842   3.040  0.7505 -1.7542  1.5366
 9705TIP3    H253311   6.635   1.847   2.893 -0.3555  2.1476  1.3109
 9706TIP3   OH253312   5.816   5.055   1.279 -0.2718  0.0605  0.4351
 9706TIP3    H153313   5.724   5.034   1.292 -0.4750  0.1295 -0.7439
 9706TIP3    H253314   5.859   4.970   1.268 -0.4186  0.0754 -0.3002
 9707TIP3   OH253315   0.162   1.497   0.904 -0.0479  0.0053  0.1124
 9707TIP3    H153316   0.246   1.541   0.895 -0.2239  0.5252  0.9519
 9707TIP3    H253317   0.153   1.480   0.997 -0.6969 -0.3976 -0.0176
 9708TIP3   OH253318   5.821   1.409   0.594  0.7510 -0.2434  0.1301
 9708TIP3    H153319   5.811   1.495   0.553 -0.1410 -0.8800 -1.0476
 9708TIP3    H253320   5.768   1.350   0.540  0.1385 -1.2709  1.7688
 9709TIP3   OH253321   6.002   4.945   3.007  0.5898  0.7770  0.1060
 9709TIP3    H153322   6.018   4.908   3.094 -0.9830  1.3131  0.6610
 9709TIP3    H253323   5.970   4.871   2.955 -0.2745  0.8415  0.5343
 9710TIP3   OH253324   3.662   3.333   2.760 -0.1618  0.0964 -0.2328
 9710TIP3    H153325   3.635   3.319   2.851  0.2624 -0.2552 -0.1604
 9710TIP3    H253326   3.651   3.427   2.746 -1.4200 -0.0291 -0.2008
 9711TIP3   OH253327   1.537   4.050   0.524  0.4876 -0.1596  0.3225
 9711TIP3    H153328   1.619   4.099   0.513  0.5406 -0.4655 -0.8154
 9711TIP3    H253329   1.476   4.093   0.463  0.7941 -2.0388 -1.4016
 9712TIP3   OH253330   1.635   1.317   0.642 -0.7269  0.0539 -0.4031
 9712TIP3    H153331   1.577   1.304   0.567 -0.6532  1.3044 -0.6893
 9712TIP3    H253332   1.690   1.391   0.617 -1.2020  0.9696  1.1924
 9713TIP3   OH253333   2.064   0.219   2.077 -0.1519  0.3187  0.2134
 9713TIP3    H153334   2.065   0.141   2.021 -4.1237 -0.8276  1.3704
 9713TIP3    H253335   2.133   0.202   2.142 -0.6144 -2.1144  0.1802
 9714TIP3   OH253336   6.437   6.733   2.414  0.7192 -0.2615 -0.4581
 9714TIP3    H153337   6.368   6.797   2.431  1.5492  0.4509  0.4026
 9714TIP3    H253338   6.438   6.723   2.319 -0.2868  0.0171 -0.5066
 9715TIP3   OH253339   4.662   5.232   2.092 -0.1168 -0.2239  0.1006
 9715TIP3    H153340   4.572   5.200   2.086 -0.9859  1.9864  0.2441
 9715TIP3    H253341   4.716   5.153   2.095 -2.0540 -1.6084  0.2460
 9716TIP3   OH253342   0.857   4.392   0.547 -0.2857 -0.2318 -0.1297
 9716TIP3    H153343   0.780   4.347   0.580 -0.4253  0.6529  0.8067
 9716TIP3    H253344   0.898   4.330   0.487 -1.8039 -0.6562 -0.7764
 9717TIP3   OH253345   6.616   6.100   2.745  0.1243  0.4948 -0.0161
 9717TIP3    H153346   6.600   6.190   2.717 -0.8906  0.2857 -0.1537
 9717TIP3    H253347   6.537   6.053   2.720  1.6141 -1.0137 -2.3703
 9718TIP3   OH253348   5.807   0.056   1.995 -0.8641  0.2414  0.0710
 9718TIP3    H153349   5.840   0.130   2.046 -2.2996  1.5310 -0.7950
 9718TIP3    H253350   5.885   0.021   1.952 -0.0357  0.7523  1.1089
 9719TIP3   OH253351   3.775   3.490   0.366  0.1030 -0.9371  0.4294
 9719TIP3    H153352   3.781   3.444   0.450  0.4113 -2.1186 -0.2093
 9719TIP3    H253353   3.857   3.467   0.321 -0.1435 -0.4751 -0.2666
 9720TIP3   OH253354   3.016   3.057   0.735  0.0287  0.0804 -0.4045
 9720TIP3    H153355   3.065   3.118   0.680  2.8091  0.0281  1.8038
 9720TIP3    H253356   3.052   2.971   0.714  0.0090 -0.1212  0.3569
 9721TIP3   OH253357   3.702   7.158   2.229  0.4118  0.2455  0.4590
 9721TIP3    H153358   3.742   7.072   2.221 -2.2472 -1.0488 -0.0377
 9721TIP3    H253359   3.608   7.141   2.228 -0.2166  3.1062  1.1078
 9722TIP3   OH253360   3.269   7.127   1.012 -0.5018  0.0252 -0.2984
 9722TIP3    H153361   3.216   7.148   0.935 -0.3540  1.6214 -0.0166
 9722TIP3    H253362   3.358   7.115   0.978 -0.9956 -2.9063 -0.8047
 9723TIP3   OH253363   6.163   6.917   1.347 -0.3988  0.4164 -0.1288
 9723TIP3    H153364   6.208   6.890   1.427  0.1463  0.1606 -0.5245
 9723TIP3    H253365   6.127   7.004   1.369  0.8949  0.9533 -0.0390
 9724TIP3   OH253366   2.223   0.167   2.801 -0.4253 -0.1203  0.4185
 9724TIP3    H153367   2.218   0.208   2.888 -0.9935 -0.4362  0.5398
 9724TIP3    H253368   2.189   0.078   2.815  0.6411 -0.5975  0.1279
 9725TIP3   OH253369   5.668   2.423   2.036  0.7614 -0.0477 -0.2523
 9725TIP3    H153370   5.663   2.516   2.014 -1.9160 -0.1795 -0.4982
 9725TIP3    H253371   5.675   2.421   2.132 -1.9281  0.4662  0.0320
 9726TIP3   OH253372   4.601   4.028   1.069 -0.2165 -0.0450 -0.5834
 9726TIP3    H153373   4.518   4.042   1.024 -1.0054 -1.7189  0.2345
 9726TIP3    H253374   4.646   3.962   1.015  1.1677  1.6917 -1.6704
 9727TIP3   OH253375   2.457   2.484   0.971 -0.1215  0.7697  0.1467
 9727TIP3    H153376   2.443   2.575   0.943 -0.1790  0.3066 -1.3810
 9727TIP3    H253377   2.437   2.431   0.894  1.5295 -0.4508  0.5004
 9728TIP3   OH253378   1.861   0.843   0.937 -0.1899  0.2587  0.2335
 9728TIP3    H153379   1.784   0.801   0.977 -0.6886  0.4824 -0.4726
 9728TIP3    H253380   1.828   0.925   0.902 -0.0651 -0.4824 -1.7319
 9729TIP3   OH253381   2.071   1.666   1.132 -0.3416 -0.0734  0.0749
 9729TIP3    H153382   2.081   1.634   1.222  0.9578  0.7840  0.2650
 9729TIP3    H253383   2.091   1.590   1.077  1.0074 -0.0527  0.5154
 9730TIP3   OH253384   7.657   3.134   1.015  0.5072 -0.8210  0.3857
 9730TIP3    H153385   7.671   3.207   1.076 -0.2282  0.0028 -0.4167
 9730TIP3    H253386   7.713   3.154   0.940 -1.0658 -0.1089 -0.6371
 9731TIP3   OH253387   1.760   1.971   0.795 -0.1551  0.2046 -0.4294
 9731TIP3    H153388   1.693   1.906   0.816 -2.1031  2.1523 -0.2803
 9731TIP3    H253389   1.832   1.951   0.855 -1.0185 -1.3375  0.1332
 9732TIP3   OH253390   2.486   7.541   1.020  0.0965  0.1703  0.1490
 9732TIP3    H153391   2.578   7.562   1.033 -0.0736  0.5750  0.7060
 9732TIP3    H253392   2.486   7.449   0.993  0.5703 -0.3042  1.6463
 9733TIP3   OH253393   5.481   2.864   1.579 -0.1354 -0.0113  0.0915
 9733TIP3    H153394   5.521   2.846   1.494  0.0066 -0.3201  0.2244
 9733TIP3    H253395   5.553   2.855   1.641 -0.5517 -1.2351  0.4131
 9734TIP3   OH253396   2.058   3.973   1.997  0.3871  0.3218 -0.7138
 9734TIP3    H153397   2.000   3.993   1.923  0.1824 -1.8868 -1.2157
 9734TIP3    H253398   1.999   3.968   2.072  0.2764  0.4641 -0.7894
 9735TIP3   OH253399   0.223   6.605   1.428  0.0144 -0.3440  0.5002
 9735TIP3    H153400   0.224   6.535   1.493  0.4396 -1.8757 -1.0772
 9735TIP3    H253401   0.314   6.611   1.398 -0.2781 -0.1129 -0.3833
 9736TIP3   OH253402   5.083   1.128   1.134 -0.4026 -0.6136  0.4284
 9736TIP3    H153403   5.087   1.088   1.048  1.6105 -0.6865  0.5224
 9736TIP3    H253404   5.148   1.198   1.132 -2.0236  0.9995  1.1232
 9737TIP3   OH253405   5.705   6.897   3.094  0.1361 -0.0759 -0.2343
 9737TIP3    H153406   5.621   6.926   3.060 -0.7814 -1.0048  1.1227
 9737TIP3    H253407   5.770   6.940   3.038 -1.1141  3.4603  0.7656
 9738TIP3   OH253408   6.188   4.677   1.644  0.1588  0.3212  0.1818
 9738TIP3    H153409   6.108   4.694   1.694 -0.7994 -1.5518 -0.6027
 9738TIP3    H253410   6.179   4.729   1.565  0.3148  1.0559  0.6368
 9739TIP3   OH253411   4.833   6.053   1.976  0.1261 -0.4681  0.2985
 9739TIP3    H153412   4.838   6.087   1.887  1.5909 -1.0236  0.1407
 9739TIP3    H253413   4.746   6.012   1.981  0.1939 -0.8072 -1.0162
 9740TIP3   OH253414   2.146   3.044   1.997 -0.0071  0.0693  0.0428
 9740TIP3    H153415   2.056   3.049   2.030 -0.3650  0.5967 -0.9595
 9740TIP3    H253416   2.155   2.953   1.967 -0.0831 -0.0848  0.4871
 9741TIP3   OH253417   2.768   5.018   1.456  0.2019  0.7875 -0.0360
 9741TIP3    H153418   2.745   5.080   1.387 -1.8001  1.1142  0.8385
 9741TIP3    H253419   2.684   4.986   1.488  1.1351 -0.7638  0.9994
 9742TIP3   OH253420   5.545   6.652   2.204  0.1309 -0.2396 -0.6911
 9742TIP3    H153421   5.550   6.747   2.211 -1.2991 -0.1971  0.1914
 9742TIP3    H253422   5.626   6.626   2.161  0.9395  1.2990 -0.1447
 9743TIP3   OH253423   4.598   3.506   0.923 -0.3570  0.1634  0.2748
 9743TIP3    H153424   4.592   3.441   0.994  0.0940 -0.5324 -0.3090
 9743TIP3    H253425   4.529   3.569   0.943 -0.3521 -0.1121  1.2422
 9744TIP3   OH253426   6.819   6.279   2.474 -0.2170 -0.5236 -0.1526
 9744TIP3    H153427   6.904   6.280   2.517  0.5137 -0.9353 -1.5470
 9744TIP3    H253428   6.756   6.267   2.546  0.8075  0.5935  0.9858
 9745TIP3   OH253429   3.682   4.701   2.190 -0.5824 -1.0811  0.4867
 9745TIP3    H153430   3.660   4.774   2.133  0.4609  0.9184  2.4917
 9745TIP3    H253431   3.729   4.640   2.134  0.3931  0.7836 -0.8330
 9746TIP3   OH253432   1.173   1.105   1.161  0.3504 -0.4597 -0.2992
 9746TIP3    H153433   1.115   1.129   1.233  1.0764 -1.4113  0.6196
 9746TIP3    H253434   1.114   1.071   1.093 -0.3972  0.9930 -0.4242
 9747TIP3   OH253435   7.055   5.158   1.796  0.5010 -0.5445 -0.1484
 9747TIP3    H153436   7.137   5.146   1.748  1.2216  4.3997 -0.6892
 9747TIP3    H253437   7.082   5.193   1.881 -0.8359  2.7176 -0.9001
 9748TIP3   OH253438   4.121   2.880   0.663 -0.0016  0.1713  0.2341
 9748TIP3    H153439   4.211   2.909   0.646 -0.1142 -0.2280 -1.1208
 9748TIP3    H253440   4.079   2.954   0.706  0.6760  0.7406 -0.0757
 9749TIP3   OH253441   6.517   1.146   0.570 -0.6536 -0.3938  0.0600
 9749TIP3    H153442   6.445   1.084   0.560  1.5470 -3.2652  0.7730
 9749TIP3    H253443   6.545   1.164   0.481  0.5380 -2.8768 -0.1331
 9750TIP3   OH253444   6.823   0.452   1.092  0.0861  0.1015  0.3667
 9750TIP3    H153445   6.904   0.442   1.041 -0.4203  0.8273 -0.5972
 9750TIP3    H253446   6.766   0.382   1.061  0.0068  0.1509  0.3993
 9751TIP3   OH253447   1.945   3.717   0.592 -0.2305  0.2361 -1.0015
 9751TIP3    H153448   2.009   3.783   0.566  0.6197  0.1135  0.6672
 9751TIP3    H253449   1.863   3.766   0.602  0.3225  0.9933 -0.0853
 9752TIP3   OH253450   5.869   4.014   1.816 -0.3806  0.1106  0.7351
 9752TIP3    H153451   5.801   4.080   1.801 -1.8637 -1.3383  0.6656
 9752TIP3    H253452   5.936   4.059   1.867  0.4448  2.6569 -2.2808
 9753TIP3   OH253453   5.670   0.756   2.033  0.5188  0.0618 -0.1429
 9753TIP3    H153454   5.747   0.719   2.075 -0.3988  0.0214  1.6117
 9753TIP3    H253455   5.681   0.851   2.042  0.3886  0.0565  0.0901
 9754TIP3   OH253456   1.053   0.522   2.453  0.3429  0.0992 -0.1224
 9754TIP3    H153457   1.066   0.469   2.532  0.7964  0.5449  0.1158
 9754TIP3    H253458   0.978   0.578   2.473 -0.5705 -0.9071 -0.6341
 9755TIP3   OH253459   3.945   4.251   1.606  0.4335  0.1544 -0.1215
 9755TIP3    H153460   4.027   4.299   1.598  1.1623 -1.2770 -1.7765
 9755TIP3    H253461   3.941   4.195   1.529 -0.3939 -2.4019  1.6175
 9756TIP3   OH253462   6.104   4.967   1.016  0.7771 -0.9440 -0.5546
 9756TIP3    H153463   6.011   4.988   1.003  0.5202 -0.1419  2.0227
 9756TIP3    H253464   6.112   4.875   0.992 -0.5786 -0.9242 -1.1650
 9757TIP3   OH253465   4.980   4.569   1.159  0.1826 -0.1924 -0.2283
 9757TIP3    H153466   4.994   4.651   1.206 -0.8254 -0.0442 -0.1598
 9757TIP3    H253467   4.951   4.596   1.072 -2.0640 -0.4389  0.3870
 9758TIP3   OH253468   3.831   7.550   1.651 -0.0218  0.2111  0.2988
 9758TIP3    H153469   3.871   7.560   1.738  0.5393  4.1354 -0.1915
 9758TIP3    H253470   3.874   7.474   1.613  2.1734  0.3339  2.2774
 9759TIP3   OH253471   1.364   3.048   3.391 -0.0614  0.2022  0.0539
 9759TIP3    H153472   1.316   3.116   3.345 -0.5878 -0.4169 -0.3179
 9759TIP3    H253473   1.400   3.092   3.468  0.0398  1.0183 -0.4492
 9760TIP3   OH253474   0.194   6.047   1.139  0.0640  0.2541 -0.1882
 9760TIP3    H153475   0.100   6.056   1.119  0.3300  0.8856 -1.2454
 9760TIP3    H253476   0.201   6.070   1.232 -0.7517  0.8241 -0.2550
 9761TIP3   OH253477   5.237   6.495   2.713 -0.1153  0.3406 -0.0045
 9761TIP3    H153478   5.250   6.545   2.794  0.2685 -0.4605  0.4430
 9761TIP3    H253479   5.158   6.533   2.674 -0.2699  0.7786  0.7169
 9762TIP3   OH253480   2.487   3.409   2.044  0.5092 -0.1971  0.1109
 9762TIP3    H153481   2.418   3.474   2.055  0.4305 -0.1460 -0.6358
 9762TIP3    H253482   2.444   3.325   2.061 -0.2120 -0.3360 -2.0608
 9763TIP3   OH253483   3.095   4.707   1.329  0.0013 -0.1976  0.0173
 9763TIP3    H153484   3.095   4.645   1.256 -2.4090 -0.3755  0.0763
 9763TIP3    H253485   3.112   4.654   1.406 -1.5237 -0.7461  0.0067
 9764TIP3   OH253486   3.585   7.522   2.310  0.2087 -0.0343  0.6602
 9764TIP3    H153487   3.520   7.458   2.281  0.9348 -1.3260  1.7719
 9764TIP3    H253488   3.603   7.575   2.233 -0.9894 -0.6607 -0.0805
 9765TIP3   OH253489   1.798   4.153   0.829 -0.2137  0.2687  0.2950
 9765TIP3    H153490   1.791   4.223   0.894  0.6070  0.3906  0.2721
 9765TIP3    H253491   1.792   4.199   0.745  2.5753  0.6951  0.2092
 9766TIP3   OH253492   2.168   2.034   2.391  0.4578  0.1987  0.6418
 9766TIP3    H153493   2.157   2.097   2.320 -0.9560  0.0729  0.7216
 9766TIP3    H253494   2.235   1.974   2.360 -0.0832  0.1925 -0.5602
 9767TIP3   OH253495   7.005   4.454   0.951  0.0308 -0.6643 -0.3230
 9767TIP3    H153496   7.037   4.416   0.869 -2.2833 -0.6125 -1.3395
 9767TIP3    H253497   7.000   4.548   0.933  0.0336 -0.5854  0.0732
 9768TIP3   OH253498   3.522   0.672   0.637  0.6021 -0.1904  0.3262
 9768TIP3    H153499   3.614   0.660   0.662  0.3065  0.1727  1.6858
 9768TIP3    H253500   3.483   0.585   0.647  0.7600 -0.3050 -0.0670
 9769TIP3   OH253501   1.375   6.651   2.910 -0.3861 -0.4962  0.0997
 9769TIP3    H153502   1.444   6.607   2.960  0.1219  1.0108  0.7681
 9769TIP3    H253503   1.353   6.589   2.840  1.8255 -0.9207 -0.2883
 9770TIP3   OH253504   2.711   0.239   2.695 -0.0084  0.0010  0.4099
 9770TIP3    H153505   2.664   0.287   2.627  0.0795 -0.6645 -0.1371
 9770TIP3    H253506   2.691   0.285   2.776  0.4161  1.2070 -0.1535
 9771TIP3   OH253507   5.257   4.797   2.405 -0.4110  0.1366  0.1815
 9771TIP3    H153508   5.218   4.884   2.418 -0.1791  0.2037  0.4386
 9771TIP3    H253509   5.211   4.741   2.468 -1.5892 -0.2473 -0.9945
 9772TIP3   OH253510   3.110   1.300   1.963 -0.4402  0.0883 -0.1833
 9772TIP3    H153511   3.158   1.300   1.880 -1.4270  1.1720 -0.7842
 9772TIP3    H253512   3.054   1.223   1.959  1.1099 -1.1431  0.4884
 9773TIP3   OH253513   0.697   1.188   2.351 -0.3093 -0.0169  0.4783
 9773TIP3    H153514   0.647   1.179   2.433 -1.0035 -1.3897 -0.0668
 9773TIP3    H253515   0.789   1.187   2.379 -0.5426 -0.1957  1.2739
 9774TIP3   OH253516   5.205   0.630   0.993 -0.2253  0.5397 -0.1511
 9774TIP3    H153517   5.274   0.599   1.052 -0.3552  0.5541  0.0108
 9774TIP3    H253518   5.143   0.675   1.051 -0.0006  1.1681 -0.3913
 9775TIP3   OH253519   3.442   6.792   2.747 -0.3593 -0.0949  0.0595
 9775TIP3    H153520   3.480   6.879   2.736 -0.5150 -0.1801 -1.4945
 9775TIP3    H253521   3.517   6.732   2.745 -0.3366 -0.0658  0.0466
 9776TIP3   OH253522   5.026   6.408   0.666  0.5380  0.5015  0.0506
 9776TIP3    H153523   4.979   6.389   0.747 -0.3481  1.9707 -0.0940
 9776TIP3    H253524   4.988   6.348   0.602  0.3080  0.2568  0.4103
 9777TIP3   OH253525   5.068   6.637   2.320 -0.2270  0.1543 -0.6430
 9777TIP3    H153526   5.090   6.726   2.346  0.2311 -0.4654  1.2185
 9777TIP3    H253527   5.153   6.594   2.307 -0.4196 -0.3981 -0.1127
 9778TIP3   OH253528   6.813   6.694   2.626 -0.3911  0.0133 -0.2256
 9778TIP3    H153529   6.740   6.679   2.686 -0.2527  0.1689 -0.0163
 9778TIP3    H253530   6.786   6.651   2.544  0.2823 -2.0323  0.5467
 9779TIP3   OH253531   5.420   2.533   0.481  0.0331  0.8714 -0.2457
 9779TIP3    H153532   5.515   2.524   0.478 -0.0553  0.2236 -1.7675
 9779TIP3    H253533   5.396   2.503   0.569  1.1464  0.2065 -0.1549
 9780TIP3   OH253534   7.455   3.371   1.073 -0.0204 -0.1147 -0.3116
 9780TIP3    H153535   7.474   3.383   0.980  0.8027  1.0615 -0.0153
 9780TIP3    H253536   7.539   3.385   1.117 -0.9310  2.5854  0.8315
 9781TIP3   OH253537   7.355   1.403   2.037 -0.0256 -0.0104 -0.1103
 9781TIP3    H153538   7.448   1.382   2.047 -0.3349 -0.8454  1.3097
 9781TIP3    H253539   7.353   1.496   2.018  1.0274  0.8050  3.0676
 9782TIP3   OH253540   5.233   5.261   0.726 -0.3076  0.3653 -0.4052
 9782TIP3    H153541   5.139   5.248   0.715 -0.1671  0.0208 -1.3933
 9782TIP3    H253542   5.241   5.331   0.791 -1.2524  0.5508 -0.4735
 9783TIP3   OH253543   5.733   7.654   2.532 -0.0494 -0.6386 -0.3165
 9783TIP3    H153544   5.654   7.691   2.570 -0.3995  0.4075 -1.9731
 9783TIP3    H253545   5.705   7.618   2.448  0.9681 -1.5185 -0.2937
 9784TIP3   OH253546   0.255   5.888   1.888 -0.0319 -0.0893  0.3707
 9784TIP3    H153547   0.245   5.890   1.983  0.5007 -0.5836  0.4434
 9784TIP3    H253548   0.185   5.830   1.857 -1.5121  1.6697  0.2547
 9785TIP3   OH253549   0.149   1.607   2.337 -0.0740 -0.1056 -0.2102
 9785TIP3    H153550   0.177   1.666   2.266 -0.8744  1.1064  0.4504
 9785TIP3    H253551   0.227   1.596   2.391  0.4240 -0.6797 -1.0210
 9786TIP3   OH253552   0.965   0.077   2.499  0.3734 -0.1392  0.4747
 9786TIP3    H153553   0.925   0.147   2.551 -1.4729 -1.0453  0.3631
 9786TIP3    H253554   0.964   0.000   2.557  1.4897 -0.3168  0.2706
 9787TIP3   OH253555   4.009   3.640   1.191  0.2752 -0.0919  0.0874
 9787TIP3    H153556   3.921   3.609   1.210  0.2722  0.0830  0.3648
 9787TIP3    H253557   4.043   3.669   1.275  0.2834  0.6454 -0.1589
 9788TIP3   OH253558   1.544   4.068   2.950  0.6134 -1.1981  0.1497
 9788TIP3    H153559   1.583   4.065   3.038  0.5174 -0.2273  0.2325
 9788TIP3    H253560   1.469   4.126   2.959  1.0113 -0.5367 -0.7319
 9789TIP3   OH253561   3.974   4.433   1.198  0.1198  0.6761  0.0741
 9789TIP3    H153562   4.053   4.467   1.157 -0.8887  2.5505 -0.4418
 9789TIP3    H253563   3.943   4.365   1.138  1.6006 -0.5005  0.5775
 9790TIP3   OH253564   3.105   5.222   3.307  0.4480  0.3059  0.2565
 9790TIP3    H153565   3.092   5.131   3.280 -2.4622  0.5066  0.5634
 9790TIP3    H253566   3.198   5.238   3.296  0.8234 -2.2802 -1.1323
 9791TIP3   OH253567   7.641   5.461   1.260  0.0721 -0.3206  0.7725
 9791TIP3    H153568   7.592   5.435   1.338 -0.6045 -1.2237  0.0837
 9791TIP3    H253569   7.666   5.377   1.219 -0.8597  0.1003 -0.7414
 9792TIP3   OH253570   1.251   2.151   0.579 -0.3529 -0.0007 -0.0085
 9792TIP3    H153571   1.299   2.068   0.584 -0.8261 -0.2469  0.5795
 9792TIP3    H253572   1.269   2.184   0.491  0.7103 -0.1985  0.1306
 9793TIP3   OH253573   5.414   2.879   2.087 -0.3970  0.1508  0.0458
 9793TIP3    H153574   5.388   2.914   2.002  0.0186 -1.4268 -0.7714
 9793TIP3    H253575   5.352   2.808   2.103  0.8972 -1.0199 -0.0169
 9794TIP3   OH253576   1.311   4.534   2.187  0.5159  0.0715  0.3909
 9794TIP3    H153577   1.245   4.480   2.145  0.3220  0.0138  0.7648
 9794TIP3    H253578   1.261   4.597   2.240  0.7477  0.3153  0.3243
 9795TIP3   OH253579   6.554   1.961   3.173 -0.1755  0.0878  0.6709
 9795TIP3    H153580   6.573   1.947   3.266 -1.8437 -0.4825  0.9503
 9795TIP3    H253581   6.486   2.028   3.172 -1.7726 -1.4802  0.0055
 9796TIP3   OH253582   4.699   0.359   1.698 -0.2082  0.1998  0.1264
 9796TIP3    H153583   4.730   0.404   1.619 -0.9460 -1.3310 -1.0930
 9796TIP3    H253584   4.736   0.272   1.692 -3.0736 -1.0998 -0.4161
 9797TIP3   OH253585   7.158   1.252   1.915 -0.0168 -0.1599 -0.2173
 9797TIP3    H153586   7.228   1.299   1.961 -0.5451  0.7576 -0.3255
 9797TIP3    H253587   7.169   1.277   1.823 -1.5141  1.4219 -0.0286
 9798TIP3   OH253588   5.085   2.630   2.394 -0.8826  0.9533  0.0949
 9798TIP3    H153589   5.031   2.606   2.319  0.4514 -3.3048  0.2354
 9798TIP3    H253590   5.039   2.592   2.469  0.3526  0.5970  0.6974
 9799TIP3   OH253591   2.217   3.013   3.170  0.1395 -0.6037  1.3119
 9799TIP3    H153592   2.312   3.026   3.170 -0.0114  1.0113 -0.2224
 9799TIP3    H253593   2.205   2.919   3.166  1.7147 -0.8049  0.5582
 9800TIP3   OH253594   7.082   4.079   1.921 -0.1474 -0.0620  0.2683
 9800TIP3    H153595   7.131   4.161   1.928  0.1037 -0.1106 -0.8202
 9800TIP3    H253596   7.010   4.088   1.983 -0.0226  0.9085  0.2777
 9801TIP3   OH253597   1.110   5.639   3.013 -0.4553  0.0710 -0.8615
 9801TIP3    H153598   1.113   5.715   2.954 -0.9080  0.0402 -0.9294
 9801TIP3    H253599   1.192   5.593   2.997  1.3018  2.1690  1.3757
 9802TIP3   OH253600   3.859   1.137   2.462 -0.1520  0.1258  0.3005
 9802TIP3    H153601   3.940   1.125   2.512  0.1232  1.3955  0.1930
 9802TIP3    H253602   3.872   1.218   2.413 -1.4756  0.3377  0.2445
 9803TIP3   OH253603   3.824   1.679   3.187 -0.5425  0.0220 -0.0650
 9803TIP3    H153604   3.839   1.627   3.265  0.2244 -1.1543 -0.9710
 9803TIP3    H253605   3.738   1.651   3.155 -1.7130  1.8143  1.3137
 9804TIP3   OH253606   6.792   1.792   1.879  0.0136 -0.4037  0.2116
 9804TIP3    H153607   6.884   1.795   1.853  0.4671 -2.2451  1.3898
 9804TIP3    H253608   6.781   1.865   1.939  1.2276 -1.2058  1.4631
 9805TIP3   OH253609   3.800   5.839   2.673 -0.0918 -0.2734  0.0593
 9805TIP3    H153610   3.816   5.804   2.760  0.6046 -0.4284 -0.1214
 9805TIP3    H253611   3.787   5.762   2.617 -0.6840 -0.1696  0.0572
 9806TIP3   OH253612   7.475   1.136   3.015 -0.1185 -0.2464  0.1740
 9806TIP3    H153613   7.520   1.213   3.050  0.6289 -0.1216 -1.0176
 9806TIP3    H253614   7.400   1.171   2.967  0.2497 -0.2414 -0.4108
 9807TIP3   OH253615   3.187   3.064   1.732 -0.0452 -0.5379  0.0966
 9807TIP3    H153616   3.161   3.153   1.756 -0.9864 -0.5466 -0.7829
 9807TIP3    H253617   3.139   3.007   1.793 -0.7895 -0.4875 -0.4243
 9808TIP3   OH253618   6.380   7.403   0.708  0.1186 -0.3303 -0.1954
 9808TIP3    H153619   6.395   7.377   0.617  1.7159 -0.9710  0.2263
 9808TIP3    H253620   6.314   7.472   0.703  1.1449  0.5643 -1.9508
 9809TIP3   OH253621   6.536   6.886   1.429 -0.1399  0.1547 -0.1496
 9809TIP3    H153622   6.599   6.890   1.357  2.1771  0.4665  1.7483
 9809TIP3    H253623   6.528   6.793   1.448  2.1395  0.1776  1.4113
 9810TIP3   OH253624   3.465   3.545   1.208  0.1726 -0.3258  0.4954
 9810TIP3    H153625   3.427   3.591   1.133 -0.9606 -0.3284  1.0497
 9810TIP3    H253626   3.428   3.589   1.285  0.0766 -1.3267  1.0404
 9811TIP3   OH253627   0.925   1.312   2.117 -0.2123  0.2369 -0.1109
 9811TIP3    H153628   0.995   1.374   2.135  1.4582 -1.0831 -1.6349
 9811TIP3    H253629   0.893   1.287   2.204 -0.2688  2.4216  0.5603
 9812TIP3   OH253630   0.920   7.259   1.302 -0.1198  0.1472 -0.0896
 9812TIP3    H153631   0.843   7.313   1.287  0.3834  1.0709  0.5471
 9812TIP3    H253632   0.933   7.261   1.397  0.3526 -0.4795 -0.1315
 9813TIP3   OH253633   0.137   1.459   1.170 -0.5244  0.1710 -0.1330
 9813TIP3    H153634   0.192   1.441   1.246  0.2636 -0.4429 -0.8198
 9813TIP3    H253635   0.121   1.553   1.173  0.9095  0.4403 -0.1136
 9814TIP3   OH253636   3.287   0.518   1.928  0.4009 -0.0490 -0.1805
 9814TIP3    H153637   3.270   0.449   1.865  1.8293 -0.6668  0.0825
 9814TIP3    H253638   3.224   0.503   1.998  0.6106 -1.0205 -0.1866
 9815TIP3   OH253639   2.843   6.364   2.841 -0.3611 -0.1591 -0.0621
 9815TIP3    H153640   2.904   6.291   2.843 -0.1856 -0.0339 -0.8308
 9815TIP3    H253641   2.898   6.442   2.832 -0.6529 -0.1028 -1.6376
 9816TIP3   OH253642   4.261   2.000   3.099  0.4474  0.2241 -0.9135
 9816TIP3    H153643   4.347   2.038   3.117 -0.6091  1.0845  3.8443
 9816TIP3    H253644   4.205   2.076   3.083 -0.4323  0.4253  2.2938
 9817TIP3   OH253645   7.247   2.595   1.939  0.2841 -0.5468  0.0346
 9817TIP3    H153646   7.158   2.570   1.912  0.0646  0.9634 -0.7310
 9817TIP3    H253647   7.245   2.587   2.035 -0.5806 -0.8075  0.0071
 9818TIP3   OH253648   0.801   1.786   1.685  0.1242 -0.7192 -0.2467
 9818TIP3    H153649   0.804   1.809   1.592 -1.6370 -1.2875 -0.4763
 9818TIP3    H253650   0.866   1.843   1.726 -0.7471  1.2651 -1.4753
 9819TIP3   OH253651   4.001   6.458   1.463 -0.0784  0.8243  0.3057
 9819TIP3    H153652   4.084   6.432   1.502  0.1827  0.6965 -0.3283
 9819TIP3    H253653   4.007   6.554   1.457 -0.5413  0.9419  1.5122
 9820TIP3   OH253654   0.392   4.360   0.960 -0.2465  0.6451 -0.7110
 9820TIP3    H153655   0.418   4.432   0.903 -1.3799  1.0154 -0.7784
 9820TIP3    H253656   0.302   4.380   0.985  0.1732  0.4304  1.1099
 9821TIP3   OH253657   4.918   1.805   1.441  0.0859 -0.5331  0.2368
 9821TIP3    H153658   4.986   1.738   1.445  1.6279  0.9449  0.0579
 9821TIP3    H253659   4.948   1.865   1.374 -2.3459 -0.7533 -1.1617
 9822TIP3   OH253660   4.729   3.213   0.443 -0.2372 -0.1237  0.2398
 9822TIP3    H153661   4.722   3.303   0.412  0.4755 -0.3313 -0.5597
 9822TIP3    H253662   4.823   3.193   0.439 -0.2348 -0.5108  1.5441
 9823TIP3   OH253663   1.078   5.960   1.659 -0.2346  0.4567  0.3332
 9823TIP3    H153664   1.028   5.984   1.737  0.0686 -0.4029  0.8058
 9823TIP3    H253665   1.037   5.880   1.627 -0.4504  0.8779 -0.4919
 9824TIP3   OH253666   5.934   5.749   0.992  0.4211  0.0311  1.0326
 9824TIP3    H153667   6.004   5.801   1.030  0.6908  0.3932  0.0652
 9824TIP3    H253668   5.858   5.766   1.047  0.3268  1.9745  0.3493
 9825TIP3   OH253669   4.510   4.158   0.697 -0.3906 -0.1245  0.0915
 9825TIP3    H153670   4.547   4.222   0.758  0.7403 -1.2412  0.6307
 9825TIP3    H253671   4.569   4.083   0.703 -2.1038 -1.5316  0.0604
 9826TIP3   OH253672   0.832   5.188   0.478 -0.3435  0.2420 -0.0174
 9826TIP3    H153673   0.790   5.242   0.411 -2.6523 -0.8535  0.4660
 9826TIP3    H253674   0.762   5.133   0.513  0.9920  0.0580  2.6145
 9827TIP3   OH253675   7.029   7.174   0.862  0.1385  0.2012  0.2112
 9827TIP3    H153676   7.116   7.209   0.883  0.4284 -0.8876  0.9123
 9827TIP3    H253677   7.001   7.130   0.942 -0.5425 -0.5108 -0.4005
 9828TIP3   OH253678   2.280   4.995   1.934  0.2120 -0.1878  0.4614
 9828TIP3    H153679   2.271   5.090   1.945 -2.0057 -0.3548  0.4561
 9828TIP3    H253680   2.369   4.984   1.900  1.5567  1.6264  3.0611
 9829TIP3   OH253681   1.841   4.644   2.105  0.5369 -0.1354 -0.4314
 9829TIP3    H153682   1.837   4.574   2.040  0.0953 -1.2924  0.8073
 9829TIP3    H253683   1.753   4.682   2.105  0.8605  0.6540 -1.3227
 9830TIP3   OH253684   7.297   0.693   1.596 -0.4702  0.0031 -0.1604
 9830TIP3    H153685   7.349   0.614   1.612 -0.1459  0.0852 -0.7646
 9830TIP3    H253686   7.304   0.744   1.677 -0.3860 -0.4194  0.0999
 9831TIP3   OH253687   6.783   2.443   1.289 -0.2509  0.1324 -0.0058
 9831TIP3    H153688   6.725   2.486   1.353  0.3120  1.9975 -0.6816
 9831TIP3    H253689   6.846   2.511   1.265  0.6747 -1.1007 -1.1707
 9832TIP3   OH253690   4.626   7.252   2.184  0.3404 -0.1313  0.0288
 9832TIP3    H153691   4.583   7.166   2.181  0.5870 -0.2920  0.8428
 9832TIP3    H253692   4.569   7.309   2.133 -0.2869 -0.5875  0.2022
 9833TIP3   OH253693   2.358   2.148   1.871  0.2110  0.3873  0.4614
 9833TIP3    H153694   2.408   2.176   1.794  0.2991  1.2513  0.8259
 9833TIP3    H253695   2.342   2.228   1.920 -0.7905 -0.0091  0.7983
 9834TIP3   OH253696   5.696   6.568   3.006  0.1850  0.3394  0.0945
 9834TIP3    H153697   5.611   6.612   3.004  1.4156  2.8161 -0.3175
 9834TIP3    H253698   5.743   6.608   3.079  1.2873 -0.4543 -0.1484
 9835TIP3   OH253699   5.693   2.770   2.321 -0.0916  0.2504 -0.2238
 9835TIP3    H153700   5.614   2.735   2.361  0.4624 -0.8569 -0.0590
 9835TIP3    H253701   5.711   2.850   2.370 -1.0771  0.4999 -0.2381
 9836TIP3   OH253702   4.637   1.706   1.727 -0.0559 -0.4110  0.1511
 9836TIP3    H153703   4.573   1.717   1.798 -0.3165  0.2425 -0.1821
 9836TIP3    H253704   4.714   1.754   1.756  0.3653 -1.3458  0.6329
 9837TIP3   OH253705   6.399   1.134   1.962 -0.0616  0.1459  0.3924
 9837TIP3    H153706   6.450   1.209   1.930 -0.1525  0.1225  0.1920
 9837TIP3    H253707   6.357   1.098   1.884 -1.0717  0.6850  0.6586
 9838TIP3   OH253708   4.927   3.769   2.935  0.4991  0.0303  0.2516
 9838TIP3    H153709   4.914   3.864   2.927 -0.6055 -0.1769 -0.6550
 9838TIP3    H253710   4.845   3.731   2.904  2.1257 -1.3012 -2.9397
 9839TIP3   OH253711   3.522   7.133   0.911  0.0691 -0.5611 -0.0917
 9839TIP3    H153712   3.540   7.227   0.910 -0.0734 -0.5123  1.1284
 9839TIP3    H253713   3.564   7.100   0.831 -0.5081  0.6356 -0.9242
 9840TIP3   OH253714   4.807   2.639   1.946  0.1209  0.3607 -0.3353
 9840TIP3    H153715   4.864   2.716   1.942 -1.1246  1.3461  0.1647
 9840TIP3    H253716   4.785   2.620   1.855 -0.2759  1.1723 -0.4216
 9841TIP3   OH253717   0.831   3.934   1.688  0.0672 -0.0102 -0.0478
 9841TIP3    H153718   0.783   3.978   1.617  0.9192  0.3201 -0.4363
 9841TIP3    H253719   0.923   3.940   1.661  0.3112 -0.8165  0.5767
 9842TIP3   OH253720   2.718   2.999   3.318 -0.1540 -0.1425  0.2606
 9842TIP3    H153721   2.748   3.089   3.303  1.4745 -0.1648  2.8034
 9842TIP3    H253722   2.654   3.007   3.388  1.4870 -1.0865  1.9501
 9843TIP3   OH253723   5.233   4.188   1.085 -0.2804  0.2089  0.5808
 9843TIP3    H153724   5.200   4.099   1.083 -0.0759  0.1098  1.3196
 9843TIP3    H253725   5.327   4.179   1.102 -0.0593  0.5271 -0.4349
 9844TIP3   OH253726   5.555   6.691   1.104  0.2076  0.2494  0.5451
 9844TIP3    H153727   5.497   6.704   1.028  0.4642 -1.6638 -0.0440
 9844TIP3    H253728   5.642   6.711   1.072  0.3395 -0.7328  0.2438
 9845TIP3   OH253729   3.209   1.930   1.031  0.0125 -1.0285 -0.2891
 9845TIP3    H153730   3.230   2.022   1.019 -2.8172 -0.4726 -1.7029
 9845TIP3    H253731   3.272   1.883   0.977 -0.1972  0.2766 -1.7160
 9846TIP3   OH253732   2.137   4.671   0.962 -0.0273  0.0937 -0.5645
 9846TIP3    H153733   2.044   4.660   0.986  0.6197  1.1969  3.2320
 9846TIP3    H253734   2.178   4.588   0.987  0.3104  0.3887 -0.1208
 9847TIP3   OH253735   6.707   2.838   1.801  0.1913 -0.2327  0.6425
 9847TIP3    H153736   6.738   2.845   1.711 -1.9479 -0.5591 -0.1978
 9847TIP3    H253737   6.725   2.747   1.826  3.0736  0.4845  1.5384
 9848TIP3   OH253738   5.854   5.270   2.689  0.0617  0.2399 -0.0666
 9848TIP3    H153739   5.917   5.339   2.668  0.8771  1.6559  5.5574
 9848TIP3    H253740   5.907   5.190   2.692  0.9764  0.8560  1.2722
 9849TIP3   OH253741   4.197   1.907   1.914 -0.5330 -0.0426  0.1327
 9849TIP3    H153742   4.168   1.910   1.822 -0.1534  1.1371  0.0289
 9849TIP3    H253743   4.215   1.999   1.936 -0.7910 -0.2901  1.4506
 9850TIP3   OH253744   6.214   0.254   1.356  0.4360  0.0331 -0.0167
 9850TIP3    H153745   6.238   0.204   1.434  4.2052  0.7615 -0.5166
 9850TIP3    H253746   6.158   0.325   1.389 -1.5998 -2.0155  1.2747
 9851TIP3   OH253747   5.487   6.389   1.487 -0.1641 -0.2582  0.2966
 9851TIP3    H153748   5.454   6.442   1.415  0.6147  0.4582  0.4371
 9851TIP3    H253749   5.486   6.299   1.455  0.5159  0.0909 -0.7460
 9852TIP3   OH253750   2.137   1.296   1.704  0.5647 -0.1337 -0.2636
 9852TIP3    H153751   2.228   1.326   1.694  0.7161 -0.6307 -0.4013
 9852TIP3    H253752   2.123   1.238   1.629 -0.4776  1.4103 -1.3250
 9853TIP3   OH253753   4.700   2.024   0.996 -0.1135  0.3617 -0.0529
 9853TIP3    H153754   4.628   2.058   0.944  1.2637  1.8600 -1.0886
 9853TIP3    H253755   4.706   1.932   0.972 -1.0272  0.4630 -0.7005
 9854TIP3   OH253756   1.574   6.437   2.308 -0.0890  0.2617  0.2262
 9854TIP3    H153757   1.623   6.466   2.386  1.2229 -2.8848  0.7236
 9854TIP3    H253758   1.639   6.391   2.255 -2.0357 -2.3966 -0.0465
 9855TIP3   OH253759   2.528   1.673   0.760  0.3390  0.1138 -0.0299
 9855TIP3    H153760   2.548   1.596   0.814 -0.4500 -1.1029 -1.3899
 9855TIP3    H253761   2.537   1.642   0.670 -2.1369  0.9752 -0.6504
 9856TIP3   OH253762   1.913   5.877   2.329 -0.5273  0.2854 -0.6651
 9856TIP3    H153763   1.988   5.883   2.270 -0.5126 -1.3543 -0.8693
 9856TIP3    H253764   1.859   5.807   2.292 -0.3369 -1.0580  1.4396
 9857TIP3   OH253765   5.434   4.016   0.812 -0.6575 -0.2745 -0.1327
 9857TIP3    H153766   5.387   4.084   0.763  1.3561 -0.1693 -2.0774
 9857TIP3    H253767   5.503   4.063   0.859  0.7521 -0.8781 -1.4957
 9858TIP3   OH253768   5.861   1.629   2.324  0.1121 -0.1797  0.2223
 9858TIP3    H153769   5.849   1.608   2.417  1.8314 -0.7224  0.3459
 9858TIP3    H253770   5.934   1.691   2.323 -1.1297  1.3503 -0.6410
 9859TIP3   OH253771   7.353   4.704   0.507  0.4889 -0.2121  0.3194
 9859TIP3    H153772   7.375   4.723   0.598  0.3844  1.3540  0.0372
 9859TIP3    H253773   7.266   4.743   0.495  0.3302 -0.7489 -0.3531
 9860TIP3   OH253774   2.428   2.377   3.396 -0.1741  0.4372  0.2900
 9860TIP3    H153775   2.467   2.421   3.320 -0.5613 -0.0394 -0.1993
 9860TIP3    H253776   2.350   2.334   3.361  0.2505 -0.7193  0.7225
 9861TIP3   OH253777   0.491   0.451   1.041  0.2525  0.5953  0.0106
 9861TIP3    H153778   0.544   0.515   1.089 -0.1255  0.6060  0.4248
 9861TIP3    H253779   0.513   0.466   0.949  1.8366 -0.1869  0.2267
 9862TIP3   OH253780   3.885   0.102   2.470 -0.4264  0.1484 -0.2053
 9862TIP3    H153781   3.868   0.139   2.383  0.9214 -0.0592 -0.5846
 9862TIP3    H253782   3.933   0.021   2.452 -2.8977 -1.6292  0.6141
 9863TIP3   OH253783   3.093   4.003   3.726  0.4035 -0.2581  0.3242
 9863TIP3    H153784   3.100   3.908   3.715  0.5463 -0.4123  1.6815
 9863TIP3    H253785   3.177   4.028   3.765  0.0361  0.3170  0.7390
 9864TIP3   OH253786   1.942   4.254   1.333  0.0565  0.0972 -0.1942
 9864TIP3    H153787   1.971   4.200   1.406  0.1149 -0.7086 -0.8038
 9864TIP3    H253788   1.854   4.283   1.359 -0.9810 -2.2530 -0.8597
 9865TIP3   OH253789   3.756   2.767   1.910  0.2455  0.2422 -0.5802
 9865TIP3    H153790   3.779   2.728   1.826  0.0848  0.7870 -0.8818
 9865TIP3    H253791   3.840   2.786   1.952  0.3322  0.5685 -0.8988
 9866TIP3   OH253792   6.661   5.797   0.937  0.0267 -0.5559 -1.0443
 9866TIP3    H153793   6.737   5.748   0.906  1.7929  1.0522  0.4739
 9866TIP3    H253794   6.617   5.827   0.857  1.3311 -1.0339 -1.9691
 9867TIP3   OH253795   2.277   2.668   1.790  0.4078  0.1152  0.2221
 9867TIP3    H153796   2.296   2.750   1.744 -1.2775  0.9295  0.9105
 9867TIP3    H253797   2.322   2.678   1.874  0.0450  0.4208  0.3819
 9868TIP3   OH253798   4.340   3.256   0.764 -0.1741  0.2007 -0.0153
 9868TIP3    H153799   4.381   3.298   0.689 -1.0535  1.8060  0.3597
 9868TIP3    H253800   4.325   3.327   0.826 -0.7439 -0.8588  1.0919
 9869TIP3   OH253801   3.972   0.706   1.395  0.5015 -0.2670 -0.7376
 9869TIP3    H153802   4.025   0.669   1.324  0.9115  0.4618 -0.8313
 9869TIP3    H253803   3.996   0.799   1.396  0.5554 -0.2793  0.4089
 9870TIP3   OH253804   3.847   5.406   2.545  0.5858  0.3755 -0.2054
 9870TIP3    H153805   3.787   5.432   2.615  1.2744  1.2035  0.1056
 9870TIP3    H253806   3.806   5.331   2.504 -0.4291  0.6379  0.3015
 9871TIP3   OH253807   2.457   0.296   1.369  0.1887  0.4155 -0.2236
 9871TIP3    H153808   2.387   0.306   1.304  0.5097 -0.5446 -0.7353
 9871TIP3    H253809   2.534   0.275   1.317  0.5650  0.1486  0.4406
 9872TIP3   OH253810   0.429   2.165   1.809  0.2268  0.2255  0.4802
 9872TIP3    H153811   0.464   2.078   1.791  1.6715  1.0013 -0.7401
 9872TIP3    H253812   0.355   2.174   1.749 -0.5980 -0.5249  1.3527
 9873TIP3   OH253813   5.280   5.302   1.588  0.4958  0.5561  0.2543
 9873TIP3    H153814   5.288   5.397   1.577  0.1283  0.6345  0.6329
 9873TIP3    H253815   5.239   5.272   1.507  0.5411  0.7272  0.1666
 9874TIP3   OH253816   3.769   5.804   2.934  0.3014 -0.0193  0.6569
 9874TIP3    H153817   3.789   5.845   3.018  0.9554 -1.2261  1.1173
 9874TIP3    H253818   3.794   5.712   2.945  2.3985  0.1758 -1.4956
 9875TIP3   OH253819   4.951   5.462   3.137 -0.3913 -0.1192  1.0829
 9875TIP3    H153820   4.969   5.399   3.067 -0.9845  0.8809 -0.0190
 9875TIP3    H253821   5.029   5.458   3.193  0.8082  0.1056 -0.4748
 9876TIP3   OH253822   2.252   3.276   1.626 -0.0164  0.1974  0.1198
 9876TIP3    H153823   2.308   3.232   1.562  0.1557 -1.6762  1.4714
 9876TIP3    H253824   2.187   3.211   1.650 -3.0638  2.3660 -1.5554
 9877TIP3   OH253825   0.558   4.174   2.147  0.1318  0.9560 -0.0548
 9877TIP3    H153826   0.614   4.150   2.222 -1.7109 -0.5238  0.9148
 9877TIP3    H253827   0.547   4.093   2.098  0.0755  1.5898 -1.1143
 9878TIP3   OH253828   0.628   5.967   2.156 -0.3621  0.1465 -0.1765
 9878TIP3    H153829   0.618   5.901   2.225 -0.9440 -0.1147 -0.4955
 9878TIP3    H253830   0.650   5.915   2.078 -1.9227  0.1992 -0.6819
 9879TIP3   OH253831   1.058   3.807   3.149  0.0373  0.1602 -0.3274
 9879TIP3    H153832   1.093   3.886   3.191 -1.5073  0.4214  0.5510
 9879TIP3    H253833   1.124   3.740   3.167  0.1950  0.6672  1.1071
 9880TIP3   OH253834   3.450   0.504   0.841 -0.9697  0.4565  0.4725
 9880TIP3    H153835   3.486   0.566   0.905 -0.5587  0.3859  0.3176
 9880TIP3    H253836   3.355   0.513   0.849 -0.9173  0.7791  0.7687
 9881TIP3   OH253837   5.168   3.214   2.172 -0.0039 -0.2084  0.2795
 9881TIP3    H153838   5.106   3.284   2.194  1.5795  0.4332  3.1581
 9881TIP3    H253839   5.228   3.254   2.109 -1.3351 -0.2427 -1.0611
 9882TIP3   OH253840   6.932   2.576   2.574 -0.2333 -0.4934  0.4606
 9882TIP3    H153841   6.876   2.631   2.628 -1.3539 -0.5978 -0.5310
 9882TIP3    H253842   6.871   2.513   2.534  0.8465 -1.6984  0.6541
 9883TIP3   OH253843   2.641   5.723   2.042 -0.2108 -0.2413 -0.5438
 9883TIP3    H153844   2.703   5.715   2.115 -0.1553  0.1740 -0.5373
 9883TIP3    H253845   2.560   5.685   2.075  0.0055 -0.6816 -0.5087
 9884TIP3   OH253846   3.520   4.718   2.989  0.4854 -0.1147 -0.7500
 9884TIP3    H153847   3.588   4.674   3.041  0.6831  1.0088 -0.0075
 9884TIP3    H253848   3.545   4.811   2.992 -1.4451  0.4337  0.1457
 9885TIP3   OH253849   4.728   4.453   1.280 -0.5355 -0.3057  0.3901
 9885TIP3    H153850   4.806   4.485   1.235 -0.6725  0.7068  0.8482
 9885TIP3    H253851   4.759   4.425   1.366 -0.7494  0.5688  0.7583
 9886TIP3   OH253852   7.205   5.682   3.115 -0.8422  0.2803  0.1866
 9886TIP3    H153853   7.260   5.758   3.134 -0.2656  0.4484 -1.8929
 9886TIP3    H253854   7.266   5.615   3.083 -1.5663 -0.3835  0.1628
 9887TIP3   OH253855   3.659   3.366   1.274  0.0088 -0.0800 -0.6198
 9887TIP3    H153856   3.579   3.413   1.249  0.2315 -0.1023 -1.3985
 9887TIP3    H253857   3.710   3.431   1.324  0.3844  0.5661 -1.8167
 9888TIP3   OH253858   7.440   7.085   0.761  0.4850 -0.3828 -0.4522
 9888TIP3    H153859   7.409   7.071   0.850 -0.2908  0.7177 -0.5297
 9888TIP3    H253860   7.450   6.996   0.725  1.0605 -0.8465  0.7895
 9889TIP3   OH253861   0.798   5.516   2.816  0.4190  0.3833  0.5436
 9889TIP3    H153862   0.828   5.583   2.877  0.6037  3.3469 -2.4574
 9889TIP3    H253863   0.879   5.475   2.785  0.7596  1.9597 -0.8078
 9890TIP3   OH253864   6.010   3.660   0.523  0.3639 -0.6859 -0.4760
 9890TIP3    H153865   5.915   3.669   0.531  0.2430 -1.7427 -0.4657
 9890TIP3    H253866   6.028   3.683   0.432  0.3722  1.3914  0.0146
 9891TIP3   OH253867   2.456   3.478   1.695  0.1420 -0.2773 -0.1542
 9891TIP3    H153868   2.381   3.426   1.666  0.5871 -1.2360  0.3356
 9891TIP3    H253869   2.525   3.456   1.633 -0.4204  1.9103 -1.6345
 9892TIP3   OH253870   0.422   0.650   1.813  0.2540  0.2372 -0.2092
 9892TIP3    H153871   0.373   0.569   1.797  0.0435  1.0308 -4.8756
 9892TIP3    H253872   0.514   0.624   1.806  0.3247 -0.0001  1.2360
 9893TIP3   OH253873   2.895   2.300   1.584  0.5225  0.1269 -0.2540
 9893TIP3    H153874   2.852   2.384   1.567  1.3677  0.6669  0.2022
 9893TIP3    H253875   2.916   2.303   1.677  0.8554 -0.4529 -0.3104
 9894TIP3   OH253876   3.788   3.910   1.559  0.3775  0.2648  0.0618
 9894TIP3    H153877   3.754   3.912   1.470 -0.2949  0.8821  0.3246
 9894TIP3    H253878   3.871   3.956   1.554  0.2577  0.4539 -0.2135
 9895TIP3   OH253879   5.380   2.815   0.449  0.8980 -0.4286 -0.4291
 9895TIP3    H153880   5.401   2.726   0.421 -3.3279 -1.1246 -2.0425
 9895TIP3    H253881   5.359   2.807   0.542  0.1852 -1.2409 -0.6484
 9896TIP3   OH253882   2.153   3.367   2.315 -0.0194 -0.1520 -0.0055
 9896TIP3    H153883   2.176   3.329   2.399 -1.5053  2.2237  1.5792
 9896TIP3    H253884   2.223   3.430   2.296 -0.3160  0.2017  0.0669
 9897TIP3   OH253885   2.792   3.158   1.808  0.1973  0.0354  0.5430
 9897TIP3    H153886   2.776   3.071   1.846 -2.1057  0.2248  0.1307
 9897TIP3    H253887   2.806   3.140   1.715  2.3273 -0.0948  0.8480
 9898TIP3   OH253888   3.220   1.076   0.821  0.4900 -0.8642  0.0905
 9898TIP3    H153889   3.184   0.993   0.790  1.5152 -1.5451  0.6762
 9898TIP3    H253890   3.266   1.054   0.902 -1.5056  0.7358  1.7733
 9899TIP3   OH253891   1.326   7.229   2.388 -0.4647 -0.3235 -0.6938
 9899TIP3    H153892   1.321   7.271   2.474  0.0694  0.3660 -0.9901
 9899TIP3    H253893   1.417   7.203   2.379 -0.1903  0.8767 -1.6236
 9900TIP3   OH253894   0.511   0.902   0.687 -0.1801  0.1694  0.1927
 9900TIP3    H153895   0.507   0.912   0.782  0.2524  0.7250  0.1589
 9900TIP3    H253896   0.473   0.816   0.670 -1.3218  0.5432  0.7707
 9901TIP3   OH253897   5.508   2.081   0.792  0.3539  0.0596 -0.9186
 9901TIP3    H153898   5.432   2.134   0.768 -1.6572 -0.9267  2.5079
 9901TIP3    H253899   5.551   2.130   0.862  1.6107 -0.4037 -1.3463
 9902TIP3   OH253900   6.654   0.718   2.215 -0.0022  0.1648  0.1998
 9902TIP3    H153901   6.696   0.715   2.129  3.7417  1.5100  1.7749
 9902TIP3    H253902   6.664   0.629   2.249 -0.5302 -0.0991 -0.3240
 9903TIP3   OH253903   3.300   0.405   2.285 -0.2144  0.2645  0.5350
 9903TIP3    H153904   3.386   0.387   2.321 -0.3543 -1.2599  0.1777
 9903TIP3    H253905   3.240   0.354   2.340 -0.5688 -0.9610 -0.9367
 9904TIP3   OH253906   3.443   6.521   1.782  0.1198  0.3805  0.3203
 9904TIP3    H153907   3.372   6.475   1.825 -1.6595  2.8323  0.1665
 9904TIP3    H253908   3.422   6.517   1.689  1.0685 -0.2428  0.1130
 9905TIP3   OH253909   5.911   6.532   1.289  0.2803 -0.1049 -0.2058
 9905TIP3    H153910   5.894   6.618   1.251 -0.4254  0.6508  1.7085
 9905TIP3    H253911   5.844   6.475   1.252 -1.4092  0.9767  1.0264
 9906TIP3   OH253912   2.552   4.253   0.724  0.3613 -0.2430 -0.2587
 9906TIP3    H153913   2.522   4.168   0.693 -0.3013 -0.4788  0.9707
 9906TIP3    H253914   2.473   4.308   0.725  0.8634  0.5409 -1.4745
 9907TIP3   OH253915   2.778   6.461   1.355 -0.2550  0.1965  0.1112
 9907TIP3    H153916   2.871   6.457   1.336 -0.3019  0.0592 -0.1007
 9907TIP3    H253917   2.737   6.416   1.281 -0.3679 -1.5469  1.1650
 9908TIP3   OH253918   6.224   2.130   2.044 -0.2208 -0.2465  0.1867
 9908TIP3    H153919   6.265   2.112   2.129 -1.8560  0.4825  1.1672
 9908TIP3    H253920   6.249   2.055   1.989  2.4439  0.1849  0.6706
 9909TIP3   OH253921   0.596   1.285   1.746 -0.6360  0.2655 -0.1998
 9909TIP3    H153922   0.549   1.211   1.785  1.6676 -0.6613  0.9852
 9909TIP3    H253923   0.609   1.259   1.655  2.1153 -1.9950  0.6849
 9910TIP3   OH253924   4.124   1.600   2.824  0.8109  0.2796 -0.3086
 9910TIP3    H153925   4.090   1.664   2.885 -0.1335 -0.9364  0.4832
 9910TIP3    H253926   4.178   1.542   2.877 -0.3089 -1.0022 -0.5144
 9911TIP3   OH253927   2.905   4.480   2.525  0.4262 -0.3710  0.5406
 9911TIP3    H153928   2.832   4.420   2.534 -0.3562  0.5075  0.2114
 9911TIP3    H253929   2.867   4.567   2.539  1.4722  0.0816  0.7263
 9912TIP3   OH253930   0.082   2.382   2.564  0.4374 -0.7272  0.6762
 9912TIP3    H153931   0.015   2.337   2.616 -0.4241 -2.1351 -1.5070
 9912TIP3    H253932   0.034   2.453   2.520  0.8305 -0.5080  0.5962
 9913TIP3   OH253933   6.705   3.255   1.244  0.1891  0.0171  0.5681
 9913TIP3    H153934   6.739   3.239   1.156 -0.9838  0.4938  0.0123
 9913TIP3    H253935   6.765   3.320   1.281  0.8626 -0.4050  0.2510
 9914TIP3   OH253936   6.412   4.740   1.791 -0.2772 -0.2433 -0.1487
 9914TIP3    H153937   6.426   4.664   1.847  1.2222 -0.6711 -1.0386
 9914TIP3    H253938   6.331   4.722   1.744 -1.2734 -0.1170  1.4352
 9915TIP3   OH253939   7.655   1.866   3.049  0.5352  0.1176 -0.2758
 9915TIP3    H153940   7.619   1.827   3.129 -0.1121  0.5494 -0.3520
 9915TIP3    H253941   7.655   1.793   2.986  1.5156 -0.3532  0.2502
 9916TIP3   OH253942   2.445   0.975   0.707  0.2477  0.2094 -0.1942
 9916TIP3    H153943   2.381   0.916   0.667  0.0765  0.9784 -1.1021
 9916TIP3    H253944   2.529   0.931   0.695  0.2002  0.4035 -1.4415
 9917TIP3   OH253945   1.375   6.583   2.193  0.0035  0.3133 -1.2102
 9917TIP3    H153946   1.449   6.540   2.237 -0.9801  0.2164  0.4491
 9917TIP3    H253947   1.382   6.556   2.102  0.2596 -2.2042 -0.5203
 9918TIP3   OH253948   7.160   4.375   2.875  0.5500  0.1515  0.2586
 9918TIP3    H153949   7.100   4.304   2.897  1.1097  0.0438  1.4965
 9918TIP3    H253950   7.104   4.453   2.870  0.2388 -0.0144  1.0302
 9919TIP3   OH253951   3.806   5.184   2.031  0.1240  0.6515  0.2083
 9919TIP3    H153952   3.724   5.139   2.009  0.2351  0.3549  0.4012
 9919TIP3    H253953   3.778   5.267   2.068 -0.1419 -0.0874  1.7551
 9920TIP3   OH253954   0.631   4.225   1.881 -0.6237 -0.0124  0.3303
 9920TIP3    H153955   0.634   4.199   1.973  1.1783  0.1287  0.3443
 9920TIP3    H253956   0.634   4.321   1.884 -0.5198 -0.0098  0.1133
 9921TIP3   OH253957   0.871   6.083   2.281 -0.5509 -0.2290  0.3854
 9921TIP3    H153958   0.777   6.067   2.284 -0.4653 -0.6553  1.2506
 9921TIP3    H253959   0.910   5.996   2.286 -0.1109 -0.0317  0.4567
 9922TIP3   OH253960   6.911   5.165   2.407 -0.2329 -0.7190  0.5468
 9922TIP3    H153961   7.007   5.162   2.407 -0.2197 -0.4105  0.0285
 9922TIP3    H253962   6.890   5.254   2.379 -0.6731 -0.9156  0.2540
 9923TIP3   OH253963   5.848   2.532   2.625 -0.1370  0.0202 -0.2525
 9923TIP3    H153964   5.862   2.625   2.642 -0.3617 -0.3197  2.2038
 9923TIP3    H253965   5.784   2.530   2.554 -0.1774  1.7244 -0.3173
 9924TIP3   OH253966   4.148   0.382   0.471  0.2420  0.5745  0.6137
 9924TIP3    H153967   4.075   0.331   0.436  0.0822  0.1979  1.4824
 9924TIP3    H253968   4.214   0.318   0.494 -1.0192  0.4010  4.3030
 9925TIP3   OH253969   1.045   5.359   1.737 -0.1364  0.1338  0.5910
 9925TIP3    H153970   0.975   5.294   1.730  0.0875 -0.0716  0.2299
 9925TIP3    H253971   1.126   5.309   1.723  0.0591  0.4339  0.6289
 9926TIP3   OH253972   7.505   5.057   1.381 -0.4269  0.3416 -0.2428
 9926TIP3    H153973   7.565   5.127   1.407  0.4057 -0.6010  0.4151
 9926TIP3    H253974   7.547   5.017   1.305  1.0546 -1.8254  1.5708
 9927TIP3   OH253975   6.347   3.543   2.409 -0.1278  0.2551  0.6447
 9927TIP3    H153976   6.318   3.455   2.386  2.0534 -0.3335 -0.0697
 9927TIP3    H253977   6.379   3.581   2.327 -0.7724  1.6325  0.9950
 9928TIP3   OH253978   4.921   1.088   2.708  0.3879 -0.4501  0.3565
 9928TIP3    H153979   5.011   1.086   2.740  1.0447  0.5945 -1.3226
 9928TIP3    H253980   4.906   1.180   2.684 -0.0304 -1.1337 -2.2829
 9929TIP3   OH253981   5.139   5.805   2.543  0.1695 -0.5388  0.3034
 9929TIP3    H153982   5.179   5.891   2.530  0.9446 -0.2658  3.5161
 9929TIP3    H253983   5.196   5.744   2.497  1.4402  0.3690  0.6307
 9930TIP3   OH253984   0.178   6.501   0.442 -0.0632  0.2540  0.2375
 9930TIP3    H153985   0.119   6.444   0.491 -0.3614  1.9562  1.9640
 9930TIP3    H253986   0.132   6.518   0.360 -0.8429 -0.4249  0.5186
 9931TIP3   OH253987   7.402   4.598   1.099 -0.3680  0.2094  0.0842
 9931TIP3    H153988   7.376   4.637   1.016  1.5867  0.8255 -0.2913
 9931TIP3    H253989   7.339   4.632   1.162  0.1111  2.5011 -0.5737
 9932TIP3   OH253990   0.978   3.835   0.753  0.3230 -0.1724  0.0337
 9932TIP3    H153991   1.061   3.789   0.763  0.7125  0.6439  0.6656
 9932TIP3    H253992   0.995   3.924   0.785 -0.4781  0.3447 -0.8988
 9933TIP3   OH253993   1.619   6.739   1.272 -0.0061 -0.0592 -0.2766
 9933TIP3    H153994   1.650   6.650   1.257  0.0542 -0.1236  0.2061
 9933TIP3    H253995   1.542   6.748   1.215 -0.0273 -0.4263 -0.3061
 9934TIP3   OH253996   7.205   0.933   0.481 -0.1896 -0.4495  0.1300
 9934TIP3    H153997   7.193   0.951   0.574 -1.1292 -0.6780  0.0732
 9934TIP3    H253998   7.169   1.010   0.436  1.9276  0.4997 -0.0517
 9935TIP3   OH253999   6.200   2.583   2.917 -0.1551  0.4685 -0.1004
 9935TIP3    H154000   6.267   2.637   2.958  0.7175 -0.8832  0.3308
 9935TIP3    H254001   6.132   2.575   2.984 -0.3784  1.1858 -0.2395
 9936TIP3   OH254002   4.821   0.545   1.528 -0.3415 -0.2300 -0.2489
 9936TIP3    H154003   4.906   0.557   1.568 -0.0277 -0.4279 -0.8389
 9936TIP3    H254004   4.840   0.519   1.438 -1.0001 -1.4233 -0.0772
 9937TIP3   OH254005   6.402   4.969   0.740 -0.0851 -0.2420  0.7582
 9937TIP3    H154006   6.355   5.051   0.757 -0.9956 -0.2511 -1.4456
 9937TIP3    H254007   6.337   4.912   0.699  1.0910 -1.3369  0.3615
 9938TIP3   OH254008   4.060   0.412   0.850  0.1595  0.5905 -0.0648
 9938TIP3    H154009   3.988   0.452   0.801  0.7202 -0.6803 -2.0663
 9938TIP3    H254010   4.122   0.483   0.864 -0.1493  1.0562 -0.9742
 9939TIP3   OH254011   5.145   1.505   2.843 -0.3549  0.8528  0.4755
 9939TIP3    H154012   5.051   1.513   2.826 -0.4651 -0.4692  0.3771
 9939TIP3    H254013   5.186   1.536   2.762 -0.6704  2.2057  0.8129
 9940TIP3   OH254014   1.356   6.734   1.139 -0.4162  0.1706 -0.2978
 9940TIP3    H154015   1.326   6.823   1.159 -0.2646  0.4213 -1.1343
 9940TIP3    H254016   1.276   6.683   1.128 -0.5087 -0.0383  1.1329
 9941TIP3   OH254017   4.413   5.309   1.324  0.7843  0.1680  0.6364
 9941TIP3    H154018   4.366   5.289   1.243  0.9975  0.1193  0.5222
 9941TIP3    H254019   4.446   5.398   1.310 -0.4968  0.7634  1.3011
 9942TIP3   OH254020   6.796   3.266   2.344  0.3298 -0.4792  0.0124
 9942TIP3    H154021   6.809   3.229   2.256 -0.4202 -2.9285  0.8623
 9942TIP3    H254022   6.882   3.298   2.369  0.5717  0.2015 -1.5807
 9943TIP3   OH254023   6.292   5.685   1.439 -0.2767 -0.1816 -0.1215
 9943TIP3    H154024   6.370   5.736   1.419 -1.3913  1.1087 -1.5049
 9943TIP3    H254025   6.322   5.594   1.443  1.3203  0.3134 -0.3905
 9944TIP3   OH254026   7.397   2.426   1.203 -0.1150  0.0656  0.9101
 9944TIP3    H154027   7.395   2.364   1.276  0.4272  1.7287  2.4143
 9944TIP3    H254028   7.487   2.422   1.171 -0.0628  0.1269  1.0496
 9945TIP3   OH254029   1.450   4.417   1.050  0.0309  0.1142 -0.8092
 9945TIP3    H154030   1.358   4.392   1.060  0.1912 -0.2619 -0.2223
 9945TIP3    H254031   1.448   4.511   1.032 -0.5112 -0.0497 -1.6612
 9946TIP3   OH254032   7.016   1.866   2.185 -0.7896 -0.3044  0.2849
 9946TIP3    H154033   7.075   1.796   2.213 -0.2408 -0.9144 -2.1302
 9946TIP3    H254034   6.930   1.837   2.214 -0.3576 -1.1707  0.7605
 9947TIP3   OH254035   4.425   1.704   1.902  0.4167 -0.3158 -0.2009
 9947TIP3    H154036   4.361   1.770   1.876  1.0720  0.4683  0.1626
 9947TIP3    H254037   4.425   1.707   1.998 -0.2178 -1.5000 -0.1359
 9948TIP3   OH254038   6.017   1.189   2.361  0.3179  0.2647  0.1504
 9948TIP3    H154039   6.074   1.229   2.426  0.2161 -0.3821  0.6441
 9948TIP3    H254040   5.943   1.249   2.353  0.8176  0.8616 -0.1338
 9949TIP3   OH254041   5.044   4.367   1.878 -0.1116 -0.0674 -0.0907
 9949TIP3    H154042   5.116   4.328   1.827  0.1567  0.3257 -0.0185
 9949TIP3    H254043   5.085   4.440   1.924 -0.4290 -0.2204  0.4328
 9950TIP3   OH254044   1.940   6.764   1.471  0.0728 -0.4472  0.1945
 9950TIP3    H154045   1.972   6.748   1.382 -2.3524 -2.5961 -0.3987
 9950TIP3    H254046   1.948   6.859   1.481  3.0615 -0.4186 -1.1661
 9951TIP3   OH254047   2.460   6.093   1.346 -0.1679 -0.4843 -0.0542
 9951TIP3    H154048   2.373   6.070   1.314 -0.0923  0.1758 -0.7411
 9951TIP3    H254049   2.513   6.016   1.329 -0.0549 -0.0554 -1.8192
 9952TIP3   OH254050   2.581   5.988   0.661  0.5391 -0.5746  0.4500
 9952TIP3    H154051   2.541   6.053   0.604  1.6015 -0.4184 -0.1329
 9952TIP3    H254052   2.528   5.991   0.741 -1.0925 -0.9261 -0.5654
 9953TIP3   OH254053   6.053   4.706   1.019 -1.0620 -0.0310  0.3753
 9953TIP3    H154054   6.106   4.653   0.960 -1.4147  0.1851 -0.1462
 9953TIP3    H254055   5.964   4.672   1.009 -1.1244 -0.0105  0.8098
 9954TIP3   OH254056   4.335   3.925   1.956  0.3792  0.2093  0.7182
 9954TIP3    H154057   4.308   3.842   1.996 -0.3088  0.6041  1.1049
 9954TIP3    H254058   4.421   3.907   1.918 -0.6678 -1.2944 -1.1015
 9955TIP3   OH254059   1.430   4.828   3.650 -0.1071 -0.0800  0.1534
 9955TIP3    H154060   1.425   4.871   3.736 -0.9794 -3.0288  1.7202
 9955TIP3    H254061   1.346   4.785   3.639  0.7433 -1.5315 -1.1704
 9956TIP3   OH254062   0.443   7.146   2.494  0.0356 -0.3346 -0.5502
 9956TIP3    H154063   0.525   7.150   2.444 -1.2104 -1.4208 -2.8906
 9956TIP3    H254064   0.463   7.091   2.569  1.9288  1.0725  0.0367
 9957TIP3   OH254065   1.506   7.173   1.766 -0.2140 -0.3590  0.0723
 9957TIP3    H154066   1.532   7.261   1.795  0.5779 -1.5996  3.6188
 9957TIP3    H254067   1.416   7.165   1.795  0.0174 -1.0207  0.6246
 9958TIP3   OH254068   5.847   4.541   1.286  0.1004 -0.4089 -0.2645
 9958TIP3    H154069   5.800   4.530   1.204 -0.9728 -1.4894  0.4625
 9958TIP3    H254070   5.908   4.467   1.289 -1.0551 -1.3596  0.6643
 9959TIP3   OH254071   1.897   2.989   2.191  0.2214 -0.5868 -0.5618
 9959TIP3    H154072   1.817   3.038   2.171  0.8377  0.3805 -0.7342
 9959TIP3    H254073   1.915   3.009   2.283  0.1558 -0.9759 -0.4617
 9960TIP3   OH254074   2.034   2.797   1.830  0.1098 -0.5325  0.6269
 9960TIP3    H154075   2.099   2.732   1.857 -1.2261 -1.9486  0.5502
 9960TIP3    H254076   1.952   2.767   1.868 -1.1843 -0.7163 -2.0431
 9961TIP3   OH254077   1.424   3.921   0.720 -0.9975  0.3019  0.3693
 9961TIP3    H154078   1.467   3.966   0.647  0.8745 -0.6820  0.8129
 9961TIP3    H254079   1.396   3.991   0.778  1.3478  1.0079  0.7667
 9962TIP3   OH254080   3.198   2.733   1.646  0.1157  0.0999  0.2625
 9962TIP3    H154081   3.103   2.745   1.654 -0.2119 -1.6261 -0.7011
 9962TIP3    H254082   3.227   2.714   1.736 -0.3898  0.9189  0.6125
 9963TIP3   OH254083   3.048   7.649   1.109  0.2462 -0.8083  0.0216
 9963TIP3    H154084   3.125   7.592   1.122  1.5017  1.0119  1.0376
 9963TIP3    H254085   3.084   7.727   1.067 -1.4684 -0.7714 -1.4729
 9964TIP3   OH254086   7.291   1.625   1.264  0.0526  0.3089 -0.1808
 9964TIP3    H154087   7.203   1.639   1.229  0.0678  0.9566  0.0183
 9964TIP3    H254088   7.294   1.681   1.342  0.5467  0.0743 -0.0302
 9965TIP3   OH254089   3.952   4.036   2.178  0.1603  0.0442 -0.3445
 9965TIP3    H154090   3.972   3.970   2.112  1.4562 -0.0912  0.1552
 9965TIP3    H254091   3.979   3.997   2.261 -0.9300  0.4317  0.2176
 9966TIP3   OH254092   0.243   5.957   2.550  0.0576  0.2524 -0.0744
 9966TIP3    H154093   0.264   5.892   2.617  0.0419  1.0959  0.7817
 9966TIP3    H254094   0.148   5.968   2.557 -0.1225 -0.5764 -1.1163
 9967TIP3   OH254095   0.477   2.927   2.551  0.4029 -0.1826 -0.6575
 9967TIP3    H154096   0.500   2.834   2.559  1.5060  0.1856  0.9024
 9967TIP3    H254097   0.443   2.951   2.638  1.1682  1.1271 -0.6967
 9968TIP3   OH254098   0.786   7.640   0.972  0.0002  0.1480  0.8191
 9968TIP3    H154099   0.779   7.643   1.067  0.8231 -0.8061  0.9214
 9968TIP3    H254100   0.792   7.547   0.951  2.1361  0.4129  0.0326
 9969TIP3   OH254101   1.895   6.171   1.396 -0.0082  0.3692  0.1774
 9969TIP3    H154102   1.812   6.175   1.443 -1.2145  0.5169 -1.8245
 9969TIP3    H254103   1.937   6.091   1.427 -2.5536 -1.6558 -1.2549
 9970TIP3   OH254104   5.186   3.073   2.803  1.0286 -0.5264 -0.5110
 9970TIP3    H154105   5.163   3.007   2.869 -1.6528 -1.7324 -2.4996
 9970TIP3    H254106   5.183   3.156   2.851 -0.5833 -1.3709  0.9837
 9971TIP3   OH254107   4.236   5.290   3.356  0.0487  0.4101  0.0409
 9971TIP3    H154108   4.324   5.276   3.390  0.1522 -0.3353 -0.4943
 9971TIP3    H254109   4.186   5.214   3.388 -1.1172  2.0671  2.5421
 9972TIP3   OH254110   2.419   7.041   2.667  0.6805 -0.1879 -0.1100
 9972TIP3    H154111   2.336   7.001   2.639 -1.0356  1.1956  2.6079
 9972TIP3    H254112   2.396   7.132   2.685  2.7434  0.1589  1.0065
 9973TIP3   OH254113   4.273   3.002   0.916 -0.5933 -0.0264  0.3249
 9973TIP3    H154114   4.297   3.040   0.831  2.2929  1.0695  1.5095
 9973TIP3    H254115   4.220   3.070   0.958  1.6391  1.3792  1.0493
 9974TIP3   OH254116   4.818   5.012   1.251 -0.6032  0.2349  0.0451
 9974TIP3    H154117   4.789   5.094   1.210  0.4720  0.4474 -0.3173
 9974TIP3    H254118   4.807   4.946   1.182  1.3250  0.6140 -0.6922
 9975TIP3   OH254119   0.738   4.077   1.476  0.0542 -0.3203 -0.2816
 9975TIP3    H154120   0.672   4.146   1.477 -0.5751 -0.8749 -1.2719
 9975TIP3    H254121   0.723   4.031   1.393  0.4860 -1.6107  0.3223
 9976TIP3   OH254122   7.266   5.760   0.959 -0.0307  0.2266 -0.8026
 9976TIP3    H154123   7.192   5.712   0.921 -0.7851 -0.3805  1.2578
 9976TIP3    H254124   7.328   5.692   0.984  0.3532  0.5864 -0.7647
 9977TIP3   OH254125   3.171   6.836   2.815  0.1580 -0.2327  0.2030
 9977TIP3    H154126   3.246   6.805   2.765  1.3354 -1.0770  2.3768
 9977TIP3    H254127   3.125   6.895   2.755  2.6176  0.4420 -1.1420
 9978TIP3   OH254128   0.775   6.741   2.772  0.6023 -0.0171 -0.0507
 9978TIP3    H154129   0.710   6.709   2.835 -0.7737 -1.0135 -1.8931
 9978TIP3    H254130   0.837   6.669   2.763  1.8112  0.7690  1.3709
 9979TIP3   OH254131   3.329   7.479   0.771  0.3417 -0.0380 -0.2357
 9979TIP3    H154132   3.311   7.553   0.712  0.4264 -0.0466 -0.2722
 9979TIP3    H254133   3.358   7.409   0.713  2.4263  0.5687 -0.0276
 9980TIP3   OH254134   3.037   6.168   2.509 -0.1556 -0.0900  0.0596
 9980TIP3    H154135   3.075   6.082   2.491 -2.5574 -1.4387  0.9901
 9980TIP3    H254136   3.095   6.206   2.576  0.9613 -0.9471 -0.3789
 9981TIP3   OH254137   3.372   5.221   2.515 -0.3417  0.3713 -0.5748
 9981TIP3    H154138   3.449   5.274   2.495 -0.3651  0.4600 -0.4335
 9981TIP3    H254139   3.323   5.218   2.433 -0.1410  0.2382 -0.6895
 9982TIP3   OH254140   1.192   5.321   3.082 -0.2840  0.0597  0.3618
 9982TIP3    H154141   1.266   5.360   3.128  0.5049  0.2412 -1.0057
 9982TIP3    H254142   1.165   5.247   3.138 -1.0418  1.7724  2.3930
 9983TIP3   OH254143   3.494   6.212   1.344 -0.2089 -1.1881 -0.0328
 9983TIP3    H154144   3.538   6.245   1.423  0.2576 -1.3688 -0.2171
 9983TIP3    H254145   3.423   6.157   1.378 -0.3733 -0.7985  0.2660
 9984TIP3   OH254146   6.435   1.943   1.242  0.5481 -0.5959  0.6938
 9984TIP3    H154147   6.465   1.948   1.151  1.8290  1.6179  1.1895
 9984TIP3    H254148   6.514   1.929   1.293  0.4068  1.9194  1.7383
 9985TIP3   OH254149   2.357   7.569   1.494 -0.1499  0.1327 -0.0647
 9985TIP3    H154150   2.278   7.525   1.465 -0.7204 -0.5127  2.2216
 9985TIP3    H254151   2.334   7.606   1.580  1.6853  0.9030  0.1514
 9986TIP3   OH254152   1.619   4.048   1.727  0.5888 -0.3937 -0.1750
 9986TIP3    H154153   1.605   4.135   1.763  0.1152 -1.0298  1.2469
 9986TIP3    H254154   1.536   4.003   1.741  0.5821 -0.8677 -1.5673
 9987TIP3   OH254155   5.908   7.349   1.602 -0.0053  0.5722 -0.1055
 9987TIP3    H154156   5.845   7.282   1.578 -1.9135  2.4162 -0.4444
 9987TIP3    H254157   5.940   7.321   1.689  1.3675 -2.1512 -1.3437
 9988TIP3   OH254158   7.194   1.189   2.918  0.2842  0.1824  0.2677
 9988TIP3    H154159   7.183   1.226   2.830 -4.4775  2.5314  1.5372
 9988TIP3    H254160   7.154   1.102   2.913  0.5057  0.0937  0.0056
 9989TIP3   OH254161   0.507   7.411   1.873 -0.2381 -0.1832  0.0061
 9989TIP3    H154162   0.533   7.368   1.954 -0.6958  2.0676  1.4208
 9989TIP3    H254163   0.569   7.483   1.863 -1.0508  0.4205 -0.8632
 9990TIP3   OH254164   3.122   3.736   2.769 -0.1843 -0.3625  0.2894
 9990TIP3    H154165   3.120   3.786   2.688 -0.4497  0.6886  0.9219
 9990TIP3    H254166   3.112   3.802   2.838  1.0401 -1.1125  1.2255
 9991TIP3   OH254167   2.938   1.766   1.716  0.2038 -0.3084  0.0237
 9991TIP3    H154168   2.879   1.714   1.662 -0.0111  1.0718 -1.1432
 9991TIP3    H254169   3.018   1.713   1.722 -0.1176 -0.9202 -0.8421
 9992TIP3   OH254170   2.514   0.365   2.200  0.3895 -0.1909  0.0356
 9992TIP3    H154171   2.425   0.352   2.231  1.0212 -0.7307  1.8009
 9992TIP3    H254172   2.515   0.452   2.161 -0.8517 -0.1043  0.1822
 9993TIP3   OH254173   6.170   1.688   2.858 -0.1208 -0.8037  0.1625
 9993TIP3    H154174   6.236   1.627   2.892  0.6686  0.4192  0.8983
 9993TIP3    H254175   6.093   1.634   2.841  0.2986 -1.8738  1.5398
 9994TIP3   OH254176   1.022   1.279   1.343  0.1682 -0.2173 -0.3520
 9994TIP3    H154177   1.063   1.341   1.405 -1.9685 -0.7536  1.7401
 9994TIP3    H254178   1.026   1.195   1.388  2.0188 -1.5000 -2.6973
 9995TIP3   OH254179   6.056   1.658   0.533 -0.1623 -0.2946  0.0239
 9995TIP3    H154180   6.070   1.565   0.515  0.3719 -0.2046 -0.0548
 9995TIP3    H254181   5.962   1.671   0.523 -0.0777 -0.5628 -1.2330
 9996TIP3   OH254182   4.715   5.136   1.721  0.6360 -0.1598  0.1484
 9996TIP3    H154183   4.787   5.198   1.734 -0.2679  1.6400 -2.5495
 9996TIP3    H254184   4.742   5.085   1.645 -0.3775 -0.3733 -0.0693
 9997TIP3   OH254185   5.393   1.342   1.856 -0.3197  0.5578 -0.5318
 9997TIP3    H154186   5.431   1.410   1.800  1.0249  1.2705  1.1565
 9997TIP3    H254187   5.336   1.390   1.916  0.7616  0.2560  0.7748
 9998TIP3   OH254188   0.948   3.539   2.723  0.1625  0.3351  0.1155
 9998TIP3    H154189   0.877   3.515   2.782 -0.2594  1.5229  0.1226
 9998TIP3    H254190   1.006   3.463   2.723 -0.7451 -0.3760  0.6576
 9999TIP3   OH254191   1.160   4.563   1.431 -0.1806  0.1823 -0.3220
 9999TIP3    H154192   1.068   4.574   1.409  0.1520 -0.8405 -2.5588
 9999TIP3    H254193   1.196   4.652   1.428 -1.0806  0.6119  0.7547
10000TIP3   OH254194   5.577   7.609   2.272 -0.3782  0.2630 -1.1960
10000TIP3    H154195   5.482   7.610   2.280 -0.4929 -3.7229  0.3309
10000TIP3    H254196   5.596   7.539   2.210  1.5593 -0.4679  0.1275
10001TIP3   OH254197   2.117   5.173   1.733 -0.6582  0.6462  0.1204
10001TIP3    H154198   2.034   5.149   1.775 -1.3513  0.6515 -1.1825
10001TIP3    H254199   2.126   5.110   1.662  0.6985  0.3795  0.5066
10002TIP3   OH254200   5.147   3.943   3.194 -0.0091 -0.5061  0.1363
10002TIP3    H154201   5.233   3.982   3.210  0.6671 -1.0353 -1.8990
10002TIP3    H254202   5.089   4.017   3.177  1.2436 -0.2089 -3.6166
10003TIP3   OH254203   2.847   2.835   1.483  0.2891  0.3043  0.5409
10003TIP3    H154204   2.895   2.804   1.407  2.3536  1.7055  1.1885
10003TIP3    H254205   2.832   2.757   1.536 -1.5027 -0.7626 -1.3864
10004TIP3   OH254206   6.609   2.029   1.644  0.4395 -0.0659 -0.2498
10004TIP3    H154207   6.660   2.104   1.614 -1.5415  2.3103  1.9150
10004TIP3    H254208   6.614   2.032   1.739  2.0150 -4.0763  0.0102
10005TIP3   OH254209   5.462   5.842   2.130  0.4729 -0.5985 -0.2891
10005TIP3    H154210   5.485   5.891   2.209 -1.2643  0.2100 -0.2325
10005TIP3    H254211   5.513   5.761   2.136 -0.2089 -0.9317  2.0834
10006TIP3   OH254212   6.816   7.306   2.360 -0.0394  0.3449  0.0054
10006TIP3    H154213   6.908   7.304   2.387 -0.4257  2.5652  1.7835
10006TIP3    H254214   6.818   7.287   2.266  1.9765 -1.8545  0.4044
10007TIP3   OH254215   5.271   1.905   2.268 -0.5390  0.0311  0.4106
10007TIP3    H154216   5.291   1.934   2.179  0.6075  0.4196  0.7785
10007TIP3    H254217   5.177   1.884   2.266 -0.8587  1.3956 -0.5206
10008TIP3   OH254218   2.802   6.910   1.371  0.0259 -0.2381  0.3792
10008TIP3    H154219   2.807   6.923   1.276 -0.3312 -1.4783  0.1714
10008TIP3    H254220   2.881   6.951   1.405 -0.0749  0.6480 -0.3975
10009TIP3   OH254221   5.231   4.082   1.797  0.3931 -0.3331 -0.3477
10009TIP3    H154222   5.322   4.110   1.808  0.7898 -0.9001 -1.9349
10009TIP3    H254223   5.200   4.132   1.722 -0.5325 -0.3338  0.0298
10010TIP3   OH254224   3.213   0.773   2.146  0.0544 -0.4255  0.6029
10010TIP3    H154225   3.156   0.697   2.136 -0.6651  0.0720  0.8259
10010TIP3    H254226   3.205   0.820   2.063 -0.9375  0.3563  1.1237
10011TIP3   OH254227   4.451   6.789   1.534 -0.1587 -0.1618  1.0088
10011TIP3    H154228   4.521   6.841   1.495 -0.5667  0.2498  0.8090
10011TIP3    H254229   4.454   6.705   1.489  0.1847 -0.1375  0.9839
10012TIP3   OH254230   2.370   0.049   1.749 -0.0093  0.1280 -0.0250
10012TIP3    H154231   2.433  -0.022   1.764  1.5354  1.6132  0.9122
10012TIP3    H254232   2.401   0.120   1.805 -0.6833  2.0448 -1.9479
10013TIP3   OH254233   0.615   5.568   2.383 -0.0262  0.4702 -0.4965
10013TIP3    H154234   0.592   5.564   2.290 -0.4907  0.1443 -0.3767
10013TIP3    H254235   0.642   5.658   2.398 -2.0904  1.1443 -0.4753
10014TIP3   OH254236   6.838   3.679   2.604  0.3219 -0.4154  0.3655
10014TIP3    H154237   6.871   3.671   2.694  0.1328 -1.0915  0.3782
10014TIP3    H254238   6.744   3.663   2.611 -0.4234  3.1987  0.5913
10015TIP3   OH254239   3.160   0.028   0.830 -0.1270 -0.0895  0.3562
10015TIP3    H154240   3.195  -0.061   0.831  0.3657  0.0274 -1.5725
10015TIP3    H254241   3.234   0.082   0.801 -1.2646  0.4443 -1.7762
10016TIP3   OH254242   6.582   2.502   1.084 -0.5385 -0.1123  0.0584
10016TIP3    H154243   6.615   2.555   1.011  0.8877 -0.3959  0.4587
10016TIP3    H254244   6.660   2.460   1.120 -1.4892 -1.6027  0.4627
10017TIP3   OH254245   0.952   0.800   1.373 -0.2286 -0.1804  0.1538
10017TIP3    H154246   0.958   0.785   1.279  0.8520  1.3953 -0.0793
10017TIP3    H254247   0.948   0.712   1.411  0.7208 -0.8935 -1.2880
10018TIP3   OH254248   4.016   2.994   1.217 -0.3524  0.2266  0.3950
10018TIP3    H154249   3.960   2.945   1.156  0.8094 -2.0472  1.0604
10018TIP3    H254250   3.982   2.972   1.304 -0.5602  1.6246  0.6904
10019TIP3   OH254251   2.309   3.774   1.319 -0.5039  0.0033  0.0571
10019TIP3    H154252   2.263   3.736   1.393 -0.0898 -2.2654 -0.7552
10019TIP3    H254253   2.400   3.779   1.347 -0.3477 -0.8524 -0.2757
10020TIP3   OH254254   1.026   6.669   1.006  0.3430  0.3682  0.1291
10020TIP3    H154255   0.947   6.699   0.961  1.0974  0.4242 -1.2184
10020TIP3    H254256   0.994   6.608   1.072 -0.7944 -0.1570 -0.8603
10021TIP3   OH254257   4.862   0.093   0.472 -0.5714 -0.3604 -0.4773
10021TIP3    H154258   4.934   0.152   0.492 -1.3082  1.0610 -1.7838
10021TIP3    H254259   4.897   0.005   0.487  0.5378  0.3754  1.5502
10022TIP3   OH254260   4.941   5.985   0.920 -0.8432  0.5188 -0.2970
10022TIP3    H154261   4.882   6.052   0.885 -0.7578 -0.0983 -1.7175
10022TIP3    H254262   5.023   6.031   0.934 -0.7413  0.7001 -1.4000
10023TIP3   OH254263   2.965   4.706   0.710 -0.3036  0.2243  0.3150
10023TIP3    H154264   2.982   4.615   0.683  0.1823  0.3561  0.1705
10023TIP3    H254265   3.041   4.730   0.762 -0.7704  0.3088  0.9759
10024TIP3   OH254266   0.969   4.772   2.385 -0.1595 -0.1956  0.1961
10024TIP3    H154267   1.058   4.772   2.421 -0.6038 -0.0671  1.3247
10024TIP3    H254268   0.980   4.805   2.296  1.1074 -1.5662 -0.1856
10025TIP3   OH254269   6.788   4.063   1.068 -0.2648  0.6925  0.1215
10025TIP3    H154270   6.814   3.975   1.095  2.4613  0.9874 -1.1256
10025TIP3    H254271   6.844   4.121   1.121  0.4024  1.4951 -1.4072
10026TIP3   OH254272   1.537   5.675   1.648  0.5478 -0.3019  0.5532
10026TIP3    H154273   1.472   5.743   1.670 -0.1884 -0.3358 -1.3495
10026TIP3    H254274   1.488   5.593   1.652  0.2176 -0.2663 -1.5941
10027TIP3   OH254275   2.060   3.513   1.752  0.1022  0.1669  0.0326
10027TIP3    H154276   2.079   3.459   1.829 -0.0582 -0.4355 -0.3383
10027TIP3    H254277   2.019   3.452   1.690 -0.4921  0.8170 -0.2323
10028TIP3   OH254278   0.520   7.115   1.651 -0.1913  0.1655 -0.1003
10028TIP3    H154279   0.437   7.157   1.628 -0.2299  1.4122  2.0048
10028TIP3    H254280   0.497   7.056   1.724  0.5371 -0.6164 -0.4879
10029TIP3   OH254281   0.707   6.762   3.090  0.5858  0.1798  0.5454
10029TIP3    H154282   0.629   6.817   3.097  0.3916 -0.2271  1.8369
10029TIP3    H254283   0.674   6.678   3.057  0.6918  0.4022 -0.1602
10030TIP3   OH254284   7.172   2.215   2.005 -0.6386  0.0335 -0.0354
10030TIP3    H154285   7.167   2.166   2.087 -3.1250 -0.4137 -0.3855
10030TIP3    H254286   7.259   2.254   2.007  0.0100 -1.3131  2.0243
10031TIP3   OH254287   1.111   7.279   1.943  0.2603  0.3919  0.1382
10031TIP3    H154288   1.160   7.328   2.009  0.6427  1.8673 -1.1819
10031TIP3    H254289   1.042   7.339   1.913 -0.5687 -0.6214 -0.0791
10032TIP3   OH254290   7.207   2.573   2.223  0.2525 -0.0999 -0.2594
10032TIP3    H154291   7.176   2.488   2.254 -0.7569 -0.8733 -3.1060
10032TIP3    H254292   7.301   2.560   2.210 -0.0880 -1.2581 -1.8860
10033TIP3   OH254293   2.326   5.313   1.564  0.2342  0.8523  0.3612
10033TIP3    H154294   2.246   5.318   1.616 -0.0549 -1.2185  0.1895
10033TIP3    H254295   2.320   5.229   1.517  1.8145  1.3360 -0.8050
10034TIP3   OH254296   0.611   1.636   2.131 -0.4080  0.8697  0.3108
10034TIP3    H154297   0.651   1.587   2.059 -2.6455 -0.7415  0.0538
10034TIP3    H254298   0.551   1.698   2.089  0.1002  1.6671  0.7376
10035TIP3   OH254299   7.423   6.857   1.432 -0.3146 -0.1949  0.0931
10035TIP3    H154300   7.475   6.777   1.431 -0.0866 -0.0788  1.1328
10035TIP3    H254301   7.428   6.887   1.523 -1.8183  0.0689  0.1102
10036TIP3   OH254302   4.267   6.434   2.564  0.2444  0.1946 -0.0136
10036TIP3    H154303   4.224   6.411   2.482  2.0461 -0.5508 -0.7921
10036TIP3    H254304   4.255   6.357   2.620  3.1048 -1.3796 -1.3334
10037TIP3   OH254305   7.501   5.523   0.821  0.6483 -0.1819 -0.4604
10037TIP3    H154306   7.460   5.445   0.783 -0.3714  0.4557 -0.7161
10037TIP3    H254307   7.476   5.521   0.913  2.2038 -1.1357 -0.0068
10038TIP3   OH254308   0.312   5.232   2.256 -0.4403  0.3230  0.9955
10038TIP3    H154309   0.279   5.321   2.245 -0.3005  0.1703 -1.1231
10038TIP3    H254310   0.256   5.178   2.199  2.2076 -0.2060 -1.3640
10039TIP3   OH254311   6.697   1.110   1.578  0.5840 -0.1559  0.2433
10039TIP3    H154312   6.792   1.114   1.593  0.5903  0.8694 -0.0429
10039TIP3    H254313   6.688   1.118   1.483  0.1882  0.0704  0.3007
10040TIP3   OH254314   6.345   5.067   2.247  0.9527 -0.9009  0.3228
10040TIP3    H154315   6.419   5.126   2.241  0.2141  0.0991  0.7431
10040TIP3    H254316   6.273   5.121   2.280  0.5310 -2.2632  1.8310
10041TIP3   OH254317   7.582   1.216   2.069  0.2017  0.0208 -0.1536
10041TIP3    H154318   7.553   1.125   2.072  1.8105 -0.5772 -1.4206
10041TIP3    H254319   7.621   1.231   2.155  2.3171 -1.3688 -0.8047
10042TIP3   OH254320   7.146   1.767   0.672  0.0028  0.3318  0.5615
10042TIP3    H154321   7.154   1.853   0.631  1.6089 -0.2236 -0.3748
10042TIP3    H254322   7.089   1.717   0.613  0.2413  0.3143  0.3465
10043TIP3   OH254323   0.129   5.603   2.396  0.3738  0.2783 -0.1408
10043TIP3    H154324   0.174   5.647   2.468 -2.6060  1.1256  1.3718
10043TIP3    H254325   0.199   5.574   2.338  2.7746  2.0525  1.6681
10044TIP3   OH254326   0.761   3.277   1.659  0.2035 -0.0336 -0.3573
10044TIP3    H154327   0.816   3.217   1.709 -1.1271  0.7868  2.2326
10044TIP3    H254328   0.723   3.336   1.724  0.2787  2.7317 -2.6063
10045TIP3   OH254329   6.105   4.536   0.794  0.3586 -0.3178  0.1419
10045TIP3    H154330   6.179   4.496   0.749 -0.6701 -1.2704 -0.7777
10045TIP3    H254331   6.030   4.481   0.770 -0.0795 -1.9567  4.3284
10046TIP3   OH254332   2.442   2.134   1.023 -0.5098 -0.2218 -0.2283
10046TIP3    H154333   2.495   2.063   1.059 -0.1922  0.6148  1.0217
10046TIP3    H254334   2.360   2.092   0.997 -0.8458 -0.8604  1.7037
10047TIP3   OH254335   5.588   3.571   1.123  1.0909  0.3855 -0.2494
10047TIP3    H154336   5.545   3.578   1.038 -0.1083  0.3299  0.3265
10047TIP3    H254337   5.635   3.488   1.120 -0.5762 -0.6051 -0.1658
10048TIP3   OH254338   0.426   7.549   0.610  0.7340 -0.3016 -0.5080
10048TIP3    H154339   0.336   7.529   0.586  0.7531  0.4754 -1.2703
10048TIP3    H254340   0.479   7.486   0.562  0.7267  0.7754 -2.0096
10049TIP3   OH254341   3.865   2.856   2.847  0.0176  0.1990 -0.2403
10049TIP3    H154342   3.945   2.860   2.900  0.0669 -1.1812 -0.1690
10049TIP3    H254343   3.897   2.850   2.757  0.1313 -2.3588 -0.1221
10050TIP3   OH254344   0.271   2.628   2.129 -0.8133 -0.3647 -0.5081
10050TIP3    H154345   0.263   2.607   2.221  0.1128 -0.8228 -0.5180
10050TIP3    H254346   0.276   2.724   2.127  2.0922 -0.4025  0.2369
10051TIP3   OH254347   2.347   6.846   0.628  0.0602 -0.0823 -0.1744
10051TIP3    H154348   2.312   6.933   0.610 -0.3160 -0.1465  0.2270
10051TIP3    H254349   2.269   6.791   0.640  0.2659 -0.0787  1.4815
10052TIP3   OH254350   3.811   7.391   2.405 -0.5752  0.7952  0.7502
10052TIP3    H154351   3.746   7.433   2.348  1.1847  0.4945 -1.6719
10052TIP3    H254352   3.802   7.297   2.386 -1.9007  0.3153  3.2711
10053TIP3   OH254353   2.885   7.095   2.232 -0.4061 -0.0940 -0.0527
10053TIP3    H154354   2.832   7.018   2.212  2.0532 -1.4817 -1.7173
10053TIP3    H254355   2.949   7.065   2.296 -1.3770  1.5123  1.8092
10054TIP3   OH254356   6.256   2.114   0.974  0.3553  0.1357 -0.1067
10054TIP3    H154357   6.279   2.025   1.004 -3.4341 -0.9528  0.1245
10054TIP3    H254358   6.199   2.099   0.898  0.9722  2.4791 -1.0879
10055TIP3   OH254359   7.137   4.015   2.352 -0.6555 -0.1372  0.6097
10055TIP3    H154360   7.126   3.924   2.382  0.4535  0.0671  1.6985
10055TIP3    H254361   7.212   4.011   2.292 -0.7304  0.0330  0.5044
10056TIP3   OH254362   5.051   3.657   2.264 -0.0916 -0.2116 -0.6053
10056TIP3    H154363   5.102   3.660   2.183  1.6197 -1.7390  0.3379
10056TIP3    H254364   4.990   3.584   2.252  0.0814 -0.3630 -0.5686
10057TIP3   OH254365   3.274   6.201   1.655  0.1718 -0.2138 -0.3330
10057TIP3    H154366   3.369   6.207   1.648  0.3041 -1.6772 -0.2615
10057TIP3    H254367   3.244   6.200   1.564  0.1741  0.6772 -0.3524
10058TIP3   OH254368   4.422   3.788   1.266 -0.4150  0.4456  0.2457
10058TIP3    H154369   4.437   3.741   1.348  0.4782  0.5947  0.1773
10058TIP3    H254370   4.507   3.789   1.223 -1.0241 -0.2983 -1.0537
10059TIP3   OH254371   3.846   0.894   1.634  0.8337 -0.3460  0.1313
10059TIP3    H154372   3.774   0.925   1.688 -0.3764 -0.0463 -1.5606
10059TIP3    H254373   3.919   0.880   1.695  0.2273  2.0380  1.5114
10060TIP3   OH254374   3.250   5.123   0.833 -0.3257 -0.1350 -0.1167
10060TIP3    H154375   3.206   5.205   0.809  0.0113  0.5928  1.6166
10060TIP3    H254376   3.315   5.149   0.897 -0.1080 -1.7569  0.3497
10061TIP3   OH254377   2.395   2.588   2.592 -0.0212 -0.2426  0.0347
10061TIP3    H154378   2.356   2.643   2.523  1.0531 -0.3703 -0.7132
10061TIP3    H254379   2.421   2.650   2.660  2.3508  0.4526 -1.3508
10062TIP3   OH254380   3.248   2.270   1.649  0.5313  0.0581  0.1397
10062TIP3    H154381   3.319   2.211   1.622  1.0196  0.1204  1.2437
10062TIP3    H254382   3.188   2.213   1.698  1.2539  0.5497  1.6393
10063TIP3   OH254383   3.996   1.000   0.896 -0.2860 -0.0110 -0.2322
10063TIP3    H154384   3.952   0.920   0.927  0.4058 -0.5688 -0.6751
10063TIP3    H254385   3.983   1.063   0.967  0.7507 -1.0818  0.9630
10064TIP3   OH254386   1.245   7.471   0.764  0.1766 -0.0909 -0.6696
10064TIP3    H154387   1.237   7.565   0.748 -1.9544 -0.1842 -0.4025
10064TIP3    H254388   1.162   7.434   0.735  0.7371 -1.8290 -0.2066
10065TIP3   OH254389   3.098   2.170   1.109 -0.2576  0.8141  0.1198
10065TIP3    H154390   3.044   2.221   1.048 -0.4126 -0.2780 -0.6983
10065TIP3    H254391   3.054   2.180   1.194 -2.5677 -1.0398 -0.7227
10066TIP3   OH254392   1.006   1.970   1.753  0.1852 -0.6242  0.4753
10066TIP3    H154393   0.970   2.058   1.768  0.2608 -0.5754  0.3704
10066TIP3    H254394   1.041   1.974   1.664 -0.3302 -0.9352  0.2551
10067TIP3   OH254395   7.558   0.613   2.646 -0.2284 -0.5425  0.4257
10067TIP3    H154396   7.490   0.655   2.699 -3.1732 -0.3446 -3.0622
10067TIP3    H254397   7.585   0.680   2.584  0.8484 -1.5818 -0.2825
10068TIP3   OH254398   3.342   4.108   1.343  0.1577 -0.2229  0.7849
10068TIP3    H154399   3.373   4.104   1.433  1.7514 -1.3530  0.2333
10068TIP3    H254400   3.422   4.121   1.291 -0.7364  0.4651 -0.4627
10069TIP3   OH254401   1.240   4.965   3.107 -0.1573  0.2204 -0.1617
10069TIP3    H154402   1.223   5.018   3.185 -0.4863 -0.8808  0.5406
10069TIP3    H254403   1.335   4.955   3.106 -0.1180  0.5723 -0.1278
10070TIP3   OH254404   7.216   7.500   1.326 -0.4194  0.4368  0.1256
10070TIP3    H154405   7.178   7.550   1.397 -0.6235 -0.0435  0.3559
10070TIP3    H254406   7.141   7.473   1.273 -0.5715 -1.6600  1.3149
10071TIP3   OH254407   2.676   0.430   0.831  0.2077 -0.0844 -0.4716
10071TIP3    H154408   2.646   0.453   0.918  1.0496  0.6010 -0.3510
10071TIP3    H254409   2.596   0.427   0.778 -0.4298 -1.5258  0.5199
10072TIP3   OH254410   7.337   0.129   1.417 -0.2980  0.0171  0.5643
10072TIP3    H154411   7.306   0.097   1.333  0.6754 -0.8242  0.4996
10072TIP3    H254412   7.303   0.218   1.423 -0.0343  0.2477 -0.9201
10073TIP3   OH254413   5.647   5.629   1.023 -0.1572  0.2578 -0.3137
10073TIP3    H154414   5.637   5.704   1.082 -0.6010 -0.3382  0.3840
10073TIP3    H254415   5.559   5.615   0.987 -0.1626 -0.1780 -0.1335
10074TIP3   OH254416   2.365   1.040   1.166 -0.1750 -0.2340  0.8957
10074TIP3    H154417   2.396   1.121   1.125  0.7011 -0.4476  1.1239
10074TIP3    H254418   2.330   0.988   1.093  0.3871 -0.1608  0.5693
10075TIP3   OH254419   0.563   0.166   1.260  0.3047 -0.3800  0.0262
10075TIP3    H154420   0.534   0.103   1.194  0.7441 -0.1586 -0.3830
10075TIP3    H254421   0.482   0.203   1.295  0.0378  1.5883 -2.4022
10076TIP3   OH254422   7.130   4.181   1.585 -0.6335 -0.2210  0.1582
10076TIP3    H154423   7.107   4.238   1.512 -1.0142  1.3904  1.4490
10076TIP3    H254424   7.046   4.165   1.630 -0.3950 -1.0884  0.2985
10077TIP3   OH254425   0.838   5.646   1.107  0.4458 -0.2378  0.0377
10077TIP3    H154426   0.812   5.737   1.124 -0.6828  0.2480 -3.4707
10077TIP3    H254427   0.756   5.601   1.086  0.9873 -2.1617  1.7558
10078TIP3   OH254428   1.790   4.419   3.506  0.4167  0.3467 -0.7413
10078TIP3    H154429   1.826   4.378   3.428  1.2218 -1.3257  0.4529
10078TIP3    H254430   1.705   4.453   3.479  1.1361  0.7517 -2.5886
10079TIP3   OH254431   6.421   3.826   2.048 -0.0406  0.3796  0.3026
10079TIP3    H154432   6.348   3.863   2.097 -0.3644 -0.6458  0.6207
10079TIP3    H254433   6.380   3.765   1.986  0.5397 -0.2239  0.5015
10080TIP3   OH254434   5.622   1.975   0.561 -0.6985 -0.1578  0.2762
10080TIP3    H154435   5.585   1.894   0.527  0.1465 -0.1822 -0.6591
10080TIP3    H254436   5.582   1.986   0.647 -1.3667 -1.1848  0.1164
10081TIP3   OH254437   2.469   0.388   0.613 -0.0312 -0.1508  0.2392
10081TIP3    H154438   2.399   0.352   0.559  0.7631 -0.1408 -0.8242
10081TIP3    H254439   2.540   0.323   0.606  0.7335  0.7183 -0.1979
10082TIP3   OH254440   2.815   5.257   3.305  0.0901  0.0933 -0.1021
10082TIP3    H154441   2.906   5.263   3.334  0.4132 -0.6492 -0.8940
10082TIP3    H254442   2.766   5.313   3.365  1.2527  1.5507 -0.4549
10083TIP3   OH254443   1.801   5.789   2.564  0.1834  0.4609  0.4696
10083TIP3    H154444   1.788   5.875   2.604 -1.4331  0.3821  0.1592
10083TIP3    H254445   1.839   5.808   2.478  0.1407  0.8418  0.5341
10084TIP3   OH254446   2.805   7.084   1.814  0.1829  0.1277 -0.1813
10084TIP3    H154447   2.830   7.162   1.863  0.7755 -0.3069  0.2270
10084TIP3    H254448   2.888   7.050   1.779  0.2943 -1.6834  1.6947
10085TIP3   OH254449   2.548   1.322   2.973  0.2273 -0.1973 -0.4243
10085TIP3    H154450   2.555   1.262   2.899  0.9038 -0.1875 -0.3708
10085TIP3    H254451   2.453   1.334   2.985  0.0701 -1.4825 -0.2478
10086TIP3   OH254452   0.550   5.642   1.697  0.4966 -0.3036 -0.0567
10086TIP3    H154453   0.604   5.564   1.687  0.9138  0.0402 -0.6132
10086TIP3    H254454   0.599   5.697   1.758  0.6752 -0.0840 -0.3927
10087TIP3   OH254455   7.337   0.640   0.859 -0.0462  0.5715  0.2155
10087TIP3    H154456   7.356   0.733   0.868 -1.3562  0.9385 -0.5761
10087TIP3    H254457   7.292   0.632   0.775 -0.2169 -0.7360  0.4059
10088TIP3   OH254458   6.080   2.399   1.802 -0.8080 -0.1112  1.1856
10088TIP3    H154459   6.103   2.396   1.895  0.9427  1.2115  0.8436
10088TIP3    H254460   6.154   2.359   1.757 -1.4761 -0.4130  0.3066
10089TIP3   OH254461   1.113   4.210   1.535  1.0229 -0.2670 -0.0426
10089TIP3    H154462   1.106   4.166   1.620  1.4078 -0.9177 -0.3441
10089TIP3    H254463   1.030   4.258   1.526  0.9097 -0.3296  0.6190
10090TIP3   OH254464   3.352   0.765   1.279  0.7585 -0.2948 -0.9481
10090TIP3    H154465   3.288   0.837   1.277  1.2527  0.2251  0.7483
10090TIP3    H254466   3.402   0.779   1.359  1.1868 -2.2790 -0.8242
10091TIP3   OH254467   6.228   4.203   0.516  0.0224 -0.0850  0.1579
10091TIP3    H154468   6.167   4.158   0.458  1.5175 -1.8854 -0.1144
10091TIP3    H254469   6.196   4.184   0.604  0.2046 -1.0814  0.0214
10092TIP3   OH254470   2.444   4.821   2.884 -0.7596 -0.0953  0.6288
10092TIP3    H154471   2.454   4.893   2.823 -0.0079 -0.9908 -0.3375
10092TIP3    H254472   2.521   4.766   2.869 -2.3890 -2.2758 -0.2705
10093TIP3   OH254473   1.420   7.072   2.113 -0.3409  0.5606  0.3533
10093TIP3    H154474   1.434   7.134   2.184 -1.2679  2.1219 -0.7769
10093TIP3    H254475   1.508   7.045   2.087  0.0154  0.1619  1.8821
10094TIP3   OH254476   2.113   3.299   2.792  0.0955 -0.1923 -0.2336
10094TIP3    H154477   2.043   3.344   2.745 -0.6646 -0.2546  0.7987
10094TIP3    H254478   2.070   3.265   2.871  1.6961  1.6368  1.5483
10095TIP3   OH254479   2.064   4.915   1.529  0.4705 -0.5651  0.1588
10095TIP3    H154480   2.078   4.860   1.606 -0.1083  0.0184  0.6997
10095TIP3    H254481   1.985   4.965   1.550  0.3935 -0.2870 -0.7560
10096TIP3   OH254482   6.057   0.056   1.129 -0.1188  0.4918 -0.1166
10096TIP3    H154483   6.035   0.107   1.207 -0.1776  0.8026 -0.3368
10096TIP3    H254484   6.123   0.107   1.083 -2.7027  2.2247 -2.2294
10097TIP3   OH254485   3.511   2.794   2.007 -0.0082  0.0329  0.2179
10097TIP3    H154486   3.595   2.790   1.960 -1.1204 -1.3197 -1.7795
10097TIP3    H254487   3.470   2.874   1.974  0.7060  1.0574  1.6904
10098TIP3   OH254488   1.315   3.702   2.130 -0.2040 -0.0900  0.2869
10098TIP3    H154489   1.262   3.781   2.124  0.5076  0.3770  0.1221
10098TIP3    H254490   1.398   3.731   2.170  0.8032 -0.3685 -1.5052
10099TIP3   OH254491   3.102   6.720   0.465 -0.1370 -0.1320 -0.3839
10099TIP3    H154492   3.105   6.783   0.537 -2.1545  1.3498 -1.4928
10099TIP3    H254493   3.041   6.652   0.496  0.0583 -0.2185 -0.1836
10100TIP3   OH254494   0.384   3.440   0.863  0.4933 -0.5688  0.1028
10100TIP3    H154495   0.376   3.508   0.930  0.4622 -1.0179  0.5615
10100TIP3    H254496   0.434   3.482   0.793  0.7665 -0.1781  0.5206
10101TIP3   OH254497   7.486   1.635   1.071 -0.0188  0.1385 -0.2374
10101TIP3    H154498   7.440   1.679   1.000 -0.1058 -2.1716 -1.7366
10101TIP3    H254499   7.427   1.641   1.146 -0.8196  0.9293 -0.9057
10102TIP3   OH254500   6.287   4.789   1.200  0.0567  0.2119  0.7544
10102TIP3    H154501   6.340   4.867   1.217 -1.4508  1.5889 -0.5690
10102TIP3    H254502   6.282   4.784   1.105  0.1902 -1.5802  0.8163
10103TIP3   OH254503   3.952   4.846   1.400  0.4860  0.0899 -0.4167
10103TIP3    H154504   3.919   4.827   1.312  0.5739  0.6094 -0.5630
10103TIP3    H254505   3.980   4.761   1.433 -0.4101 -0.2645 -0.5281
10104TIP3   OH254506   5.096   1.742   2.079 -0.5912 -0.4705  0.4967
10104TIP3    H154507   5.015   1.763   2.125 -1.1568 -0.5233 -0.4469
10104TIP3    H254508   5.072   1.740   1.986  1.0642  2.2875 -0.1148
10105TIP3   OH254509   4.582   3.263   1.075  0.1042 -0.1290  0.5401
10105TIP3    H154510   4.661   3.285   1.125  1.2685 -2.9439  0.1465
10105TIP3    H254511   4.614   3.206   1.005 -2.3235 -1.6799  0.5961
10106TIP3   OH254512   4.592   7.244   1.600  0.2592  0.1955  0.0310
10106TIP3    H154513   4.561   7.315   1.543 -0.1429  1.6515  1.9379
10106TIP3    H254514   4.567   7.164   1.555  0.8529  1.2217 -2.2969
10107TIP3   OH254515   1.869   7.453   0.998 -0.0325 -0.3140 -0.0254
10107TIP3    H154516   1.961   7.479   1.008  0.2672 -1.8312  1.6081
10107TIP3    H254517   1.826   7.532   0.965  1.7503  0.5906 -0.3357
10108TIP3   OH254518   1.456   0.554   1.901  0.2769 -0.2667  0.2360
10108TIP3    H154519   1.398   0.478   1.898 -0.6135  0.4234 -1.6389
10108TIP3    H254520   1.404   0.622   1.945  0.4664 -0.2586  0.4492
10109TIP3   OH254521   5.387   7.561   2.037  0.1476  0.5587  0.5442
10109TIP3    H154522   5.419   7.501   1.970  0.8577  0.2713  1.1178
10109TIP3    H254523   5.323   7.510   2.086  0.4765  0.3853  0.7980
10110TIP3   OH254524   1.115   2.826   1.252  0.1914  0.3466  0.7397
10110TIP3    H154525   1.165   2.906   1.271 -1.4497  1.7109 -0.4277
10110TIP3    H254526   1.170   2.779   1.189 -0.1315  2.0845 -0.9443
10111TIP3   OH254527   3.762   3.657   1.661  0.4126  0.0776  0.0531
10111TIP3    H154528   3.774   3.740   1.615 -0.5320 -0.1959 -0.7197
10111TIP3    H254529   3.727   3.681   1.746  1.8804  0.5703  0.5536
10112TIP3   OH254530   3.040   5.559   0.979 -0.2489 -0.2729 -0.6760
10112TIP3    H154531   3.060   5.483   0.924  2.1784 -0.3451  0.1867
10112TIP3    H254532   3.125   5.586   1.015 -1.3712  1.4186  0.8981
10113TIP3   OH254533   1.869   5.257   1.318  0.3305 -0.1046  0.2296
10113TIP3    H154534   1.792   5.202   1.302  0.2675  0.2678 -0.8551
10113TIP3    H254535   1.916   5.256   1.234  0.5266  1.1750  0.3091
10114TIP3   OH254536   5.985   7.489   1.221 -0.0047  0.1207 -0.2983
10114TIP3    H154537   5.990   7.575   1.178  2.3110  0.2785  0.1897
10114TIP3    H254538   6.009   7.507   1.312  0.7472 -1.0712 -0.2503
10115TIP3   OH254539   1.927   1.753   1.575 -0.0406 -0.4735 -0.1915
10115TIP3    H154540   1.888   1.769   1.489 -1.6031 -0.0877  0.5449
10115TIP3    H254541   1.859   1.705   1.623  0.7018 -0.4445  0.9047
10116TIP3   OH254542   3.485   1.823   1.328  0.2084  0.8128  0.0526
10116TIP3    H154543   3.513   1.750   1.272  0.5929 -0.3077  1.6334
10116TIP3    H254544   3.556   1.887   1.320  1.8092 -0.6391  1.5324
10117TIP3   OH254545   0.244   2.237   1.610 -0.0918  0.7007 -0.0416
10117TIP3    H154546   0.182   2.208   1.543  0.0016  1.8744 -0.6764
10117TIP3    H254547   0.287   2.313   1.571  1.3642  0.2399  0.6066
10118TIP3   OH254548   2.444   3.493   2.690  0.0091 -0.3486  0.7625
10118TIP3    H154549   2.510   3.459   2.630  0.5146 -1.5191  1.9229
10118TIP3    H254550   2.407   3.415   2.732 -1.4278  0.3506  0.8397
10119TIP3   OH254551   0.413   2.655   1.040  0.7903 -0.5852 -0.6717
10119TIP3    H154552   0.449   2.637   1.127  2.6622  0.6243 -1.1277
10119TIP3    H254553   0.350   2.726   1.055 -0.6486 -1.9392 -0.0254
10120TIP3   OH254554   7.623   0.517   0.766  0.1035 -0.5565 -0.2077
10120TIP3    H154555   7.606   0.493   0.857 -1.6261  1.6084  0.1437
10120TIP3    H254556   7.594   0.609   0.760  1.7026 -0.1214 -2.5442
10121TIP3   OH254557   1.772   5.605   1.562 -0.0210 -0.3083  0.7703
10121TIP3    H154558   1.764   5.616   1.467  1.8551 -1.6368  0.3813
10121TIP3    H254559   1.683   5.613   1.595 -0.6589  0.6436 -1.0435
10122TIP3   OH254560   2.115   2.742   0.620 -0.0938  0.1011  0.2605
10122TIP3    H154561   2.027   2.779   0.622 -0.7357 -1.2548 -0.8291
10122TIP3    H254562   2.102   2.649   0.602  1.5114 -0.4127  1.4728
10123TIP3   OH254563   5.665   1.537   1.972 -1.2538  0.1201 -0.1006
10123TIP3    H154564   5.697   1.548   1.883 -0.6976 -1.2316 -0.0883
10123TIP3    H254565   5.693   1.616   2.018  0.9574 -0.4260 -0.4165
10124TIP3   OH254566   2.013   7.006   3.195  0.4879 -0.2441 -0.4143
10124TIP3    H154567   1.952   7.068   3.234  0.6351  0.0409 -0.6260
10124TIP3    H254568   1.977   6.986   3.109  0.8380  0.1558 -0.6610
10125TIP3   OH254569   6.850   5.930   1.763 -0.1236  0.1761 -0.1015
10125TIP3    H154570   6.786   5.889   1.705 -1.2221 -0.4980  1.5008
10125TIP3    H254571   6.898   5.856   1.801 -0.0240  0.5397  0.4995
10126TIP3   OH254572   6.255   4.048   1.859  0.0767 -0.1324  0.1991
10126TIP3    H154573   6.335   3.998   1.842  0.2868  0.0133  0.7305
10126TIP3    H254574   6.235   4.091   1.776  0.1760 -0.6963 -0.1210
10127TIP3   OH254575   7.251   1.783   1.492  0.1107  0.4490 -0.1401
10127TIP3    H154576   7.334   1.769   1.537  0.9438  1.1793 -1.3935
10127TIP3    H254577   7.222   1.870   1.520  1.0374  1.2566 -1.5553
10128TIP3   OH254578   2.896   6.419   3.161 -0.1353  0.4664 -0.3784
10128TIP3    H154579   2.953   6.426   3.083  0.8250 -3.6141 -0.2614
10128TIP3    H254580   2.957   6.419   3.234 -0.6194 -0.2215  0.0287
10129TIP3   OH254581   0.368   6.936   1.487  0.2495 -0.4833  0.4079
10129TIP3    H154582   0.312   6.865   1.458  1.6414 -0.9217 -1.3324
10129TIP3    H254583   0.336   7.013   1.440  0.0832 -0.3867  0.6750
10130TIP3   OH254584   5.012   6.062   2.257  0.2606  0.1054 -0.0410
10130TIP3    H154585   5.039   6.056   2.165  1.1159  0.0956  0.2031
10130TIP3    H254586   5.084   6.022   2.306 -0.8617 -1.2694  0.5498
10131TIP3   OH254587   3.197   5.492   1.547  0.5781 -0.0237  0.4991
10131TIP3    H154588   3.251   5.570   1.555  0.3210  0.0297  1.8186
10131TIP3    H254589   3.109   5.525   1.529  0.4709 -0.0053  1.0493
10132TIP3   OH254590   6.533   6.467   0.712 -0.7461  0.4563 -0.0072
10132TIP3    H154591   6.524   6.394   0.773  0.0003  0.3044 -0.0729
10132TIP3    H254592   6.622   6.499   0.726 -1.3465  1.9418  0.6752
10133TIP3   OH254593   4.248   4.176   2.040 -0.3091  0.7299  0.2183
10133TIP3    H154594   4.268   4.083   2.032  0.8386  0.8925  0.9549
10133TIP3    H254595   4.160   4.185   2.005  0.3507 -0.2834 -1.8406
10134TIP3   OH254596   4.989   4.492   3.263 -0.0123 -0.4391  0.0233
10134TIP3    H154597   4.962   4.410   3.304  0.4784  0.4691  2.3250
10134TIP3    H254598   4.909   4.544   3.257  0.0777 -0.1922  0.8328
10135TIP3   OH254599   4.957   2.598   0.949  0.4523  0.0988  0.0216
10135TIP3    H154600   4.950   2.596   0.854 -1.5917  1.5188  0.0859
10135TIP3    H254601   4.888   2.540   0.980 -1.7930  2.8681  0.6017
10136TIP3   OH254602   6.932   7.156   0.444  0.2339  0.4474  0.0595
10136TIP3    H154603   7.010   7.157   0.500 -0.4927  0.1446  1.1004
10136TIP3    H254604   6.946   7.082   0.385 -0.3396 -1.1848  1.8544
10137TIP3   OH254605   3.407   2.281   1.050 -0.6860  0.4020  0.1472
10137TIP3    H154606   3.338   2.308   0.989  0.1079  2.7354  0.1886
10137TIP3    H254607   3.382   2.320   1.133  0.0080  0.1385  0.4844
10138TIP3   OH254608   5.833   5.463   1.138 -0.1260  0.1155  0.0939
10138TIP3    H154609   5.768   5.526   1.108  0.1852 -0.1294 -1.1466
10138TIP3    H254610   5.904   5.469   1.074  1.3395  0.7592  1.7122
10139TIP3   OH254611   0.999   4.875   2.133 -0.1330 -0.2460 -0.4273
10139TIP3    H154612   1.029   4.950   2.081 -1.9880  1.3585  0.6918
10139TIP3    H254613   1.032   4.798   2.085  0.9227  1.2287 -2.2024
10140TIP3   OH254614   2.428   6.705   1.170  0.0398  0.9808 -0.8959
10140TIP3    H154615   2.427   6.796   1.138  0.5328  0.4560 -2.5118
10140TIP3    H254616   2.352   6.664   1.128 -0.0703  0.5874 -0.3245
10141TIP3   OH254617   7.612   3.053   2.499  0.2941  0.0121  0.3464
10141TIP3    H154618   7.600   3.028   2.591 -0.4618  0.5806  0.4158
10141TIP3    H254619   7.706   3.066   2.490  0.2869  0.9365  1.3151
10142TIP3   OH254620   7.544   0.147   2.143 -0.9069  0.0965  0.1987
10142TIP3    H154621   7.534   0.076   2.206 -0.1030 -1.1450 -1.0045
10142TIP3    H254622   7.637   0.169   2.146 -0.5644 -0.9005 -1.4188
10143TIP3   OH254623   5.483   1.314   1.423  0.1113 -0.1205 -0.6180
10143TIP3    H154624   5.486   1.242   1.361  0.7233 -0.6631  0.0216
10143TIP3    H254625   5.395   1.310   1.460 -0.0617 -0.1531 -1.0252
10144TIP3   OH254626   1.885   4.977   2.484  0.0757  0.5240 -0.0693
10144TIP3    H154627   1.889   4.891   2.441  1.5957  0.7203 -0.3816
10144TIP3    H254628   1.847   4.958   2.570  1.9287 -0.7839  0.5291
10145TIP3   OH254629   3.063   1.525   1.653 -0.6482 -0.4014  0.2086
10145TIP3    H154630   3.069   1.431   1.637 -1.3811 -0.1722 -1.6319
10145TIP3    H254631   2.974   1.548   1.628  0.1445  1.1096 -1.5065
10146TIP3   OH254632   5.834   5.710   2.451  0.2097 -0.2847 -0.5082
10146TIP3    H154633   5.741   5.691   2.442  0.2591 -1.2708  0.7390
10146TIP3    H254634   5.838   5.800   2.485 -0.3145 -0.4650  0.0313
10147TIP3   OH254635   0.384   6.138   1.547 -0.1154 -0.4208 -0.2211
10147TIP3    H154636   0.419   6.110   1.631 -0.1121 -0.3740 -0.2068
10147TIP3    H254637   0.452   6.114   1.484 -0.6647 -1.6377 -0.3825
10148TIP3   OH254638   6.397   5.450   1.502  0.3757 -0.1928  0.5836
10148TIP3    H154639   6.492   5.436   1.496  0.5145  0.1415  1.8018
10148TIP3    H254640   6.374   5.425   1.592 -0.6572 -0.0364  0.3792
10149TIP3   OH254641   0.619   2.845   1.856  0.0724 -0.3303 -0.4578
10149TIP3    H154642   0.594   2.869   1.767 -0.7705 -2.0019 -0.6923
10149TIP3    H254643   0.677   2.770   1.846 -1.9948 -2.1522  0.4511
10150TIP3   OH254644   2.998   5.861   1.111  0.3112  0.2453  0.2589
10150TIP3    H154645   2.945   5.933   1.077  0.3166  1.4707  2.6573
10150TIP3    H254646   3.060   5.842   1.040 -0.2521  2.0133 -0.7727
10151TIP3   OH254647   0.870   3.078   2.271  0.9261 -0.4973  0.2936
10151TIP3    H154648   0.780   3.066   2.241  1.2558  1.3406 -1.6389
10151TIP3    H254649   0.922   3.078   2.191  2.4582  0.0818  1.2401
10152TIP3   OH254650   3.133   1.959   2.302  0.4718  0.0318 -0.0988
10152TIP3    H154651   3.074   1.932   2.373  2.3545 -0.7697  1.2662
10152TIP3    H254652   3.215   1.981   2.347  1.9350 -1.0488 -2.0661
10153TIP3   OH254653   1.638   5.670   1.908 -0.2393 -0.2794 -0.2167
10153TIP3    H154654   1.580   5.681   1.832 -0.8707 -0.9477  0.1521
10153TIP3    H254655   1.662   5.759   1.932 -1.4321  0.0493 -0.1570
10154TIP3   OH254656   4.207   2.172   1.987  0.4948  0.0981 -0.1405
10154TIP3    H154657   4.211   2.184   2.082 -0.0701 -0.5041 -0.0286
10154TIP3    H254658   4.211   2.260   1.951 -1.1897  0.4836  0.5294
10155TIP3   OH254659   1.619   3.667   1.046 -0.2638 -0.2347  0.0826
10155TIP3    H154660   1.697   3.613   1.037 -0.5625 -0.4391 -1.7276
10155TIP3    H254661   1.651   3.757   1.050  0.0889 -0.3022 -0.8749
10156TIP3   OH254662   6.358   0.626   0.955  0.0009  0.8880  0.3575
10156TIP3    H154663   6.401   0.704   0.990  1.6137  0.2968 -0.2079
10156TIP3    H254664   6.271   0.655   0.930  0.6051  2.5302  0.0790
10157TIP3   OH254665   1.050   5.791   3.240  0.3387 -0.3029 -0.2688
10157TIP3    H154666   1.008   5.736   3.306 -1.1494 -0.4270 -1.2821
10157TIP3    H254667   1.070   5.731   3.168 -0.7680  0.3384 -1.1442
10158TIP3   OH254668   4.067   2.613   0.751 -0.0569  0.0123 -0.4484
10158TIP3    H154669   4.020   2.632   0.832 -1.9956  0.7709 -1.6777
10158TIP3    H254670   4.107   2.697   0.727 -1.2477  0.3631 -1.3168
10159TIP3   OH254671   3.427   6.714   0.742 -0.0973  0.0396 -0.2268
10159TIP3    H154672   3.416   6.704   0.836  1.7428  1.4274  0.1984
10159TIP3    H254673   3.339   6.702   0.706 -0.7450 -1.0618  1.5878
10160TIP3   OH254674   7.211   2.052   1.576 -0.3436 -0.2820 -0.0594
10160TIP3    H154675   7.274   2.114   1.615  0.0155  0.6688 -2.0239
10160TIP3    H254676   7.128   2.076   1.616 -0.7761  3.4908 -2.6600
10161TIP3   OH254677   1.135   1.806   0.997 -0.2028 -0.2023  0.0639
10161TIP3    H154678   1.046   1.827   0.967 -0.4065 -0.2432  0.6256
10161TIP3    H254679   1.191   1.828   0.923 -0.3534  2.7018  0.7078
10162TIP3   OH254680   1.661   3.862   1.996  0.1710 -0.0479  0.9177
10162TIP3    H154681   1.668   3.938   1.938 -0.3818  0.2875  1.2862
10162TIP3    H254682   1.717   3.883   2.071 -0.4473  0.2527  1.2957
10163TIP3   OH254683   1.319   3.454   1.443 -0.3504 -0.0766  0.0841
10163TIP3    H154684   1.413   3.435   1.447 -0.1575  0.0113 -2.5307
10163TIP3    H254685   1.276   3.370   1.455  0.2689 -0.9870 -3.0998
10164TIP3   OH254686   2.064   3.037   2.923 -0.3774 -0.1549 -0.2582
10164TIP3    H154687   2.054   2.949   2.960  1.1387 -1.0057 -1.7512
10164TIP3    H254688   2.135   3.076   2.974  0.8445 -0.8575 -1.3719
10165TIP3   OH254689   2.067   5.719   1.854  0.1107 -0.2195  0.7805
10165TIP3    H154690   2.003   5.768   1.803  1.5229  0.4259 -0.4510
10165TIP3    H254691   2.064   5.630   1.818 -0.2121 -0.2401  0.8563
10166TIP3   OH254692   4.682   7.320   1.855 -0.0374  0.3591 -0.5057
10166TIP3    H154693   4.698   7.414   1.855 -0.6563  0.4832  0.8816
10166TIP3    H254694   4.635   7.304   1.773 -2.0502  1.6714  0.3054
10167TIP3   OH254695   5.643   0.829   3.545  0.2089  0.1321 -0.1962
10167TIP3    H154696   5.571   0.847   3.486  0.6001  0.7132 -0.5132
10167TIP3    H254697   5.712   0.889   3.517  0.6604 -0.1107  0.3735
10168TIP3   OH254698   5.873   2.640   1.528 -0.1670 -0.0746 -0.7555
10168TIP3    H154699   5.912   2.586   1.459 -0.6664 -0.2845 -0.8818
10168TIP3    H254700   5.947   2.671   1.580  0.1176 -0.9812 -0.6138
10169TIP3   OH254701   1.370   0.199   0.583  0.1696  0.0801  0.1098
10169TIP3    H154702   1.401   0.289   0.592 -0.7673  0.2696  1.9794
10169TIP3    H254703   1.308   0.202   0.510 -1.9914  1.6396  1.8886
10170TIP3   OH254704   3.585   5.722   1.166  0.0741  0.2866 -0.1607
10170TIP3    H154705   3.501   5.688   1.138  0.3150 -0.1439 -0.3582
10170TIP3    H254706   3.643   5.711   1.091  0.4558  0.0626  0.1615
10171TIP3   OH254707   1.340   0.536   2.344  0.9440 -0.3673 -0.3593
10171TIP3    H154708   1.349   0.444   2.320  0.9301 -0.6503  0.6557
10171TIP3    H254709   1.251   0.543   2.378  1.4087 -0.3079  0.8807
10172TIP3   OH254710   6.037   1.466   2.799  0.4650 -0.1293 -0.0894
10172TIP3    H154711   5.957   1.489   2.846 -0.4001 -1.1159 -1.0213
10172TIP3    H254712   6.021   1.377   2.766  1.7978 -0.2058 -0.6122
10173TIP3   OH254713   1.934   1.847   0.994 -0.2621 -0.3998  0.7178
10173TIP3    H154714   1.977   1.779   1.045  1.5698 -0.5311 -0.8722
10173TIP3    H254715   1.913   1.916   1.057  3.7114  0.3568  1.4658
10174TIP3   OH254716   6.890   0.461   2.615 -0.1187  0.1732 -0.1616
10174TIP3    H154717   6.921   0.547   2.644  0.5468  0.7889 -2.5350
10174TIP3    H254718   6.797   0.461   2.637  0.0288  1.1918  0.5466
10175TIP3   OH254719   7.315   0.311   1.160  0.4610  0.3433 -0.0801
10175TIP3    H154720   7.309   0.216   1.168  2.1890  0.0904 -1.2872
10175TIP3    H254721   7.225   0.342   1.172 -0.4725 -1.5969 -1.5056
10176TIP3   OH254722   5.247   3.638   2.758 -0.1016 -0.2549  0.0855
10176TIP3    H154723   5.174   3.637   2.696 -0.3097  0.6864  0.3053
10176TIP3    H254724   5.278   3.547   2.760 -0.6767 -0.4755 -0.7008
10177TIP3   OH254725   0.990   7.570   2.695  0.0334  0.1727  0.4864
10177TIP3    H154726   0.947   7.619   2.766 -1.0790 -0.3654  0.2016
10177TIP3    H254727   1.005   7.483   2.732  2.1038  0.7039  1.0269
10178TIP3   OH254728   2.599   6.604   2.864 -0.0481 -0.4600  0.2646
10178TIP3    H154729   2.614   6.692   2.828  3.9414 -0.3668  1.7021
10178TIP3    H254730   2.580   6.550   2.787 -0.2307  1.2164 -0.9324
10179TIP3   OH254731   6.525   6.182   3.075 -0.1413 -0.5176 -0.2335
10179TIP3    H154732   6.545   6.232   3.154  1.8728  0.0611 -1.0455
10179TIP3    H254733   6.547   6.241   3.002  0.3583 -1.8687 -1.2212
10180TIP3   OH254734   7.655   5.780   0.778  0.0641 -0.0177 -0.2084
10180TIP3    H154735   7.577   5.727   0.764  0.1479 -0.2533  0.1969
10180TIP3    H254736   7.725   5.717   0.796  0.6940  0.1046 -2.0855
10181TIP3   OH254737   5.264   3.474   1.237  0.1578  0.7639 -0.1817
10181TIP3    H154738   5.356   3.456   1.257 -0.2822  0.3788  1.6059
10181TIP3    H254739   5.215   3.406   1.283 -1.0266  0.8029 -1.3287
10182TIP3   OH254740   6.342   3.863   1.656  0.1862  0.3256  0.2083
10182TIP3    H154741   6.266   3.903   1.615 -0.9351 -3.3102 -1.7168
10182TIP3    H254742   6.414   3.882   1.596 -0.3558 -0.5797 -0.7572
10183TIP3   OH254743   3.717   1.957   1.010  0.0252 -0.4532  0.2886
10183TIP3    H154744   3.675   1.986   1.091  0.6541 -0.8434  0.7719
10183TIP3    H254745   3.663   1.993   0.940 -0.5884 -0.1936  0.8839
10184TIP3   OH254746   0.240   6.149   0.893  0.0536 -0.2672 -0.0112
10184TIP3    H154747   0.232   6.120   0.983 -1.8104 -0.4189 -0.1881
10184TIP3    H254748   0.282   6.235   0.899  1.2343 -0.8800  0.8687
10185TIP3   OH254749   1.591   5.525   2.164 -0.1021 -0.2828  0.3707
10185TIP3    H154750   1.585   5.465   2.238  0.2376 -1.7353 -0.7254
10185TIP3    H254751   1.541   5.481   2.095  0.4107  0.5614 -0.5483
10186TIP3   OH254752   3.297   4.190   0.711  0.0974 -0.5999 -0.1485
10186TIP3    H154753   3.377   4.235   0.685  0.2551 -0.3371  0.7506
10186TIP3    H254754   3.240   4.260   0.744 -1.2922 -0.4971 -2.5803
10187TIP3   OH254755   7.259   2.812   1.637  0.0535 -0.0015  0.0375
10187TIP3    H154756   7.284   2.720   1.636 -0.6446 -0.1936 -0.5205
10187TIP3    H254757   7.342   2.860   1.640  0.4191 -0.6431  0.3448
10188TIP3   OH254758   0.832   5.372   0.702  0.5296  0.5503  0.1489
10188TIP3    H154759   0.767   5.385   0.634 -0.1554  0.3851  0.7559
10188TIP3    H254760   0.788   5.316   0.766  1.4563 -0.0119  0.3066
10189TIP3   OH254761   7.025   0.337   0.589 -0.1143 -0.8970  0.1944
10189TIP3    H154762   6.961   0.382   0.645  0.1107 -1.2589  0.7497
10189TIP3    H254763   6.982   0.256   0.564  0.6626 -1.8379  1.7756
10190TIP3   OH254764   1.628   6.896   2.598  0.1692 -0.0152 -0.0214
10190TIP3    H154765   1.564   6.831   2.627  0.0002 -0.3890 -1.1855
10190TIP3    H254766   1.608   6.974   2.651  0.7085 -1.0312  1.7620
10191TIP3   OH254767   7.143   5.227   0.702  0.2220 -0.1867  0.1765
10191TIP3    H154768   7.111   5.142   0.673  1.0008 -0.5230  0.3009
10191TIP3    H254769   7.065   5.270   0.738 -0.3955 -0.4352 -0.8187
10192TIP3   OH254770   6.018   4.170   1.959 -0.5534  0.2366  0.1665
10192TIP3    H154771   6.025   4.232   1.887 -0.0401 -0.8747 -0.7885
10192TIP3    H254772   6.109   4.146   1.978 -0.6330  1.0971  1.7302
10193TIP3   OH254773   1.812   0.388   2.974 -0.5729  0.1198 -0.3768
10193TIP3    H154774   1.796   0.293   2.969 -1.6456  0.3418 -1.2832
10193TIP3    H254775   1.737   0.428   2.932  0.0248  1.3873 -0.2872
10194TIP3   OH254776   2.203   4.741   2.250  0.1283  0.0242  0.4739
10194TIP3    H154777   2.277   4.709   2.302 -0.9628  0.8329  2.6715
10194TIP3    H254778   2.135   4.675   2.261 -1.4713  1.9089  3.4808
10195TIP3   OH254779   1.655   2.677   2.292  0.4469  0.3718  0.6742
10195TIP3    H154780   1.571   2.702   2.252 -0.9353  2.0938  4.2203
10195TIP3    H254781   1.650   2.582   2.299 -0.5727  0.3111 -0.4031
10196TIP3   OH254782   6.286   0.050   0.946 -0.4785 -0.6221 -0.2592
10196TIP3    H154783   6.204   0.038   0.898 -0.7713 -0.2177  0.1330
10196TIP3    H254784   6.342   0.100   0.885 -1.6143  1.8408  0.5647
10197TIP3   OH254785   5.882   4.130   1.174  0.2534 -0.0584  0.9299
10197TIP3    H154786   5.808   4.136   1.113  0.5819  1.7710  0.6319
10197TIP3    H254787   5.949   4.081   1.126  0.1114  0.4289  0.2219
10198TIP3   OH254788   3.492   5.380   0.893 -0.6410  0.5314  0.2522
10198TIP3    H154789   3.470   5.350   0.981 -0.2299 -0.4986  0.0114
10198TIP3    H254790   3.571   5.433   0.905 -0.1178 -0.2800  0.3946
10199TIP3   OH254791   1.480   4.829   2.580  0.0886  0.1128  0.3329
10199TIP3    H154792   1.418   4.857   2.513  0.6923  2.2193  0.5834
10199TIP3    H254793   1.519   4.749   2.544 -0.5495  0.4721 -1.2328
10200TIP3   OH254794   0.021   3.792   2.556  0.2661 -0.2001  0.5246
10200TIP3    H154795   0.047   3.704   2.530 -1.0754 -0.7670  1.0432
10200TIP3    H254796   0.074   3.811   2.633  1.9842  0.2572 -0.6970
10201TIP3   OH254797   0.653   3.243   2.690 -0.1965 -0.7569 -0.2256
10201TIP3    H154798   0.667   3.244   2.784  0.9199  0.0535 -0.3827
10201TIP3    H254799   0.738   3.220   2.653 -0.0253  1.0792 -1.0969
10202TIP3   OH254800   0.806   2.599   2.530  0.1071  0.3906 -0.2354
10202TIP3    H154801   0.749   2.571   2.602 -0.9454  0.3145 -1.0732
10202TIP3    H254802   0.806   2.525   2.469  0.2737  0.7951 -0.7322
10203TIP3   OH254803   5.981   2.257   1.555 -0.1027  0.2493  0.8524
10203TIP3    H154804   5.983   2.163   1.540 -0.9167  0.4072 -0.4895
10203TIP3    H254805   5.917   2.269   1.625 -0.6464 -0.1508  0.4319
10204TIP3   OH254806   1.755   3.172   2.094  0.3668  0.5520 -0.1378
10204TIP3    H154807   1.696   3.219   2.035  0.1083 -0.5545 -0.7854
10204TIP3    H254808   1.815   3.240   2.126 -0.6452  1.5172 -0.2081
10205TIP3   OH254809   5.707   4.345   3.324 -0.6891  0.5627 -0.0030
10205TIP3    H154810   5.759   4.426   3.329 -2.2987  1.6723 -0.3954
10205TIP3    H254811   5.772   4.277   3.306  0.7020  1.7945  0.0902
10206TIP3   OH254812   3.309   3.935   2.372 -0.3569 -0.9369 -0.4254
10206TIP3    H154813   3.234   3.915   2.429 -0.8111 -0.9733 -1.0311
10206TIP3    H254814   3.327   3.853   2.327 -0.0480 -0.8840 -0.4008
10207TIP3   OH254815   7.171   5.645   1.576 -0.1017  0.0270 -0.0991
10207TIP3    H154816   7.109   5.575   1.553 -0.9317  0.3027  1.1868
10207TIP3    H254817   7.257   5.603   1.573 -0.5074 -0.8259 -0.2198
10208TIP3   OH254818   2.461   7.223   2.933  0.4818  0.1905 -0.7215
10208TIP3    H154819   2.370   7.203   2.954  0.9221 -1.0423  0.1129
10208TIP3    H254820   2.493   7.271   3.009  1.2153 -1.6090  0.1663
10209TIP3   OH254821   4.644   6.679   2.268  0.2870 -0.0460  0.1353
10209TIP3    H154822   4.679   6.595   2.239 -0.5594  0.0751 -1.3282
10209TIP3    H254823   4.626   6.728   2.188 -0.1124  1.1814  0.9249
10210TIP3   OH254824   0.404   7.396   1.596 -0.2682  0.3800 -0.1022
10210TIP3    H154825   0.352   7.332   1.645  0.1422 -0.1804 -0.3928
10210TIP3    H254826   0.468   7.428   1.659  1.5756 -1.8111 -0.7455
10211TIP3   OH254827   0.682   5.929   0.813 -1.0080  0.5242 -0.3370
10211TIP3    H154828   0.712   5.866   0.747  0.7390  1.8316 -0.8647
10211TIP3    H254829   0.601   5.965   0.777 -0.7947  0.2413 -1.1173
10212TIP3   OH254830   2.946   0.697   1.403 -0.9212  0.0575  0.2991
10212TIP3    H154831   2.956   0.663   1.314 -3.2708  1.4609 -0.5861
10212TIP3    H254832   2.852   0.693   1.420 -0.5570 -0.0642  2.7189
10213TIP3   OH254833   6.885   2.370   2.286 -0.2531  0.5963  0.0923
10213TIP3    H154834   6.978   2.364   2.308 -0.6328  0.4410  1.8144
10213TIP3    H254835   6.840   2.363   2.371 -1.8370  0.5613 -0.7158
10214TIP3   OH254836   2.287   0.550   3.171 -0.4997 -0.1770 -0.2916
10214TIP3    H154837   2.214   0.539   3.110 -0.0504  1.1019 -1.1014
10214TIP3    H254838   2.349   0.481   3.147 -1.4736 -1.3584  0.4911
10215TIP3   OH254839   5.010   4.136   3.040 -0.0053  0.6848 -0.6008
10215TIP3    H154840   5.047   4.220   3.066  0.7228  0.4841 -0.9732
10215TIP3    H254841   4.918   4.141   3.066  0.4330  0.9062  0.9825
10216TIP3   OH254842   2.066   5.281   1.117 -0.5203  0.4377  0.4928
10216TIP3    H154843   2.107   5.328   1.044  0.7829 -0.4120  0.6449
10216TIP3    H254844   2.108   5.317   1.195 -0.2234 -0.2863  0.6691
10217TIP3   OH254845   7.574   5.832   1.686 -0.1436  0.0346 -0.4146
10217TIP3    H154846   7.513   5.905   1.681 -1.9129 -1.3055  0.3294
10217TIP3    H254847   7.566   5.800   1.776  1.5056 -0.3415 -0.3621
10218TIP3   OH254848   5.107   1.699   3.245 -0.3369 -0.1148  0.3921
10218TIP3    H154849   5.043   1.681   3.176 -0.2455 -0.5036  0.4054
10218TIP3    H254850   5.112   1.794   3.248 -1.5088 -0.0486  0.9308
10219TIP3   OH254851   5.728   1.238   1.749  0.1696 -0.6407  0.4841
10219TIP3    H154852   5.708   1.234   1.842 -0.1299 -0.2530  0.4376
10219TIP3    H254853   5.813   1.282   1.744  0.1446 -0.5839  0.5684
10220TIP3   OH254854   1.536   0.184   2.699 -0.6912  0.1957 -0.0820
10220TIP3    H154855   1.448   0.177   2.737 -0.7568  3.6819  0.7187
10220TIP3    H254856   1.587   0.117   2.744 -2.2007  0.1984  1.7442
10221TIP3   OH254857   6.615   5.339   1.109  0.2096  0.1423 -0.0891
10221TIP3    H154858   6.550   5.294   1.163 -0.4338  0.9608 -0.1771
10221TIP3    H254859   6.578   5.425   1.092  1.7793  1.0308  0.7578
10222TIP3   OH254860   4.578   5.665   2.638 -0.1687  0.4887 -0.0917
10222TIP3    H154861   4.590   5.708   2.722  0.7771 -0.0658  0.0707
10222TIP3    H254862   4.492   5.696   2.607 -0.2412  1.1855  0.7698
10223TIP3   OH254863   3.776   3.509   0.891 -0.0220  0.0559  0.5470
10223TIP3    H154864   3.688   3.475   0.876 -0.1635  1.1002 -1.1700
10223TIP3    H254865   3.785   3.583   0.831  1.8794  0.2491  0.9879
10224TIP3   OH254866   0.830   3.194   1.042  0.5712  0.5231 -0.3315
10224TIP3    H154867   0.809   3.153   1.126  1.0940  0.4250 -0.2457
10224TIP3    H254868   0.746   3.199   0.996 -0.2578  3.0733  1.2593
10225TIP3   OH254869   2.992   7.022   2.704 -0.3531  0.3265  0.3141
10225TIP3    H154870   2.944   7.104   2.718 -1.6443 -0.7096  2.4730
10225TIP3    H254871   2.971   6.997   2.614 -0.4542  2.0174 -0.1617
10226TIP3   OH254872   2.665   5.818   1.785  0.4119  0.0228  0.1636
10226TIP3    H154873   2.659   5.748   1.719  2.9066 -0.8303  0.7108
10226TIP3    H254874   2.661   5.772   1.868 -1.3462  0.9498  0.6158
10227TIP3   OH254875   4.995   7.126   2.566  0.6220  0.2821 -0.0091
10227TIP3    H154876   4.922   7.092   2.515  0.4602 -1.1123  1.0899
10227TIP3    H254877   5.004   7.217   2.538 -1.2421  0.3558 -0.4803
10228TIP3   OH254878   1.614   1.344   3.295  0.3267 -0.0863  0.0542
10228TIP3    H154879   1.647   1.265   3.252  0.3560  0.3250 -0.6876
10228TIP3    H254880   1.682   1.366   3.359  0.0638 -0.9687  0.6580
10229TIP3   OH254881   3.597   5.093   1.872 -0.6643 -0.0597  0.0557
10229TIP3    H154882   3.506   5.118   1.856 -0.3662 -0.2587 -2.2335
10229TIP3    H254883   3.623   5.045   1.794  1.0747 -1.0242  1.1616
10230TIP3   OH254884   7.378   3.586   2.723 -0.5488  0.3358 -0.7567
10230TIP3    H154885   7.454   3.527   2.725 -0.4004  0.5332 -0.3216
10230TIP3    H254886   7.382   3.632   2.807 -2.0411 -0.7709 -0.0306
10231TIP3   OH254887   1.421   6.435   0.818  0.1595  0.3488  0.1141
10231TIP3    H154888   1.354   6.420   0.752  0.4172  2.1622 -0.6199
10231TIP3    H254889   1.477   6.358   0.813 -2.7961 -2.1729  2.0682
10232TIP3   OH254890   1.611   1.472   2.828  0.9301  0.4522 -0.3360
10232TIP3    H154891   1.566   1.433   2.903  0.9709 -1.1441 -1.1110
10232TIP3    H254892   1.671   1.404   2.798  1.7262  1.4768 -1.1512
10233TIP3   OH254893   4.188   1.085   0.733 -0.1286  0.2506  0.1012
10233TIP3    H154894   4.208   0.998   0.698  0.1039  0.0740  0.6552
10233TIP3    H254895   4.117   1.069   0.796  0.3811  0.3537  0.7137
10234TIP3   OH254896   4.181   7.003   1.428 -0.0012  0.5911  0.2627
10234TIP3    H154897   4.129   6.926   1.450  0.4814  0.4877  1.0752
10234TIP3    H254898   4.155   7.025   1.338 -1.1205  0.2911  0.5050
10235TIP3   OH254899   0.744   0.541   1.752  0.5175  0.1712  0.4159
10235TIP3    H154900   0.800   0.510   1.823  0.5853  2.6768  1.5709
10235TIP3    H254901   0.803   0.554   1.678  0.5372 -1.9671  0.0078
10236TIP3   OH254902   1.785   1.104   0.800 -0.9861  0.4848  1.1857
10236TIP3    H154903   1.769   1.195   0.776 -0.0875  0.2140 -0.6262
10236TIP3    H254904   1.745   1.053   0.730  0.2800 -0.4352  1.0895
10237TIP3   OH254905   3.693   1.479   1.234 -0.4551  0.6214  0.1092
10237TIP3    H154906   3.678   1.568   1.201 -1.1667 -0.3397 -2.4439
10237TIP3    H254907   3.672   1.422   1.159 -0.4367 -1.7281  1.7850
10238TIP3   OH254908   0.799   5.317   2.517 -0.0834  0.3474 -0.6498
10238TIP3    H154909   0.802   5.405   2.479  1.9168  0.3734 -0.4870
10238TIP3    H254910   0.853   5.263   2.459 -0.4875 -0.5767 -0.1914
10239TIP3   OH254911   0.067   7.221   0.886 -0.1894 -0.7955 -0.3174
10239TIP3    H154912   0.037   7.176   0.807 -0.0282  0.4574 -1.1129
10239TIP3    H254913   0.004   7.195   0.954 -1.6275 -0.1697 -1.3633
10240TIP3   OH254914   4.074   2.384   1.453  0.3957 -0.3281 -0.0130
10240TIP3    H154915   4.170   2.386   1.452  0.4324 -1.6698 -0.6327
10240TIP3    H254916   4.049   2.400   1.363  0.1012 -1.7539 -0.2007
10241TIP3   OH254917   1.510   4.902   3.017  0.5278  0.4718  0.2683
10241TIP3    H154918   1.522   4.827   2.959 -2.3364  1.6784 -2.1274
10241TIP3    H254919   1.553   4.877   3.099 -1.0062 -4.1074 -0.0916
10242TIP3   OH254920   7.432   6.597   0.700  0.3125  0.9715  0.1055
10242TIP3    H154921   7.494   6.575   0.770 -1.9673  0.3482  2.0796
10242TIP3    H254922   7.375   6.520   0.694 -0.0797  1.3690 -1.8979
10243TIP3   OH254923   0.573   1.591   2.949 -0.0290 -0.2426  0.4045
10243TIP3    H154924   0.495   1.603   3.004 -0.6583  1.8500 -0.8247
10243TIP3    H254925   0.572   1.498   2.927  0.6775 -1.3946  4.3997
10244TIP3   OH254926   0.372   6.991   0.831 -0.3239 -0.3992 -0.6820
10244TIP3    H154927   0.328   7.049   0.892  1.9575 -0.1889  0.8928
10244TIP3    H254928   0.380   7.041   0.750  0.7978  1.1913  0.3656
10245TIP3   OH254929   3.966   7.012   2.763  0.7097 -0.1029  0.0243
10245TIP3    H154930   4.036   6.950   2.744  1.5563  0.7080  0.4428
10245TIP3    H254931   3.989   7.050   2.848 -0.2727  0.1311  0.2050
10246TIP3   OH254932   0.472   7.148   1.134  0.6605 -1.2460  0.3186
10246TIP3    H154933   0.393   7.190   1.101  1.8731  2.0046  1.2400
10246TIP3    H254934   0.445   7.106   1.215 -0.3206 -1.0026  0.1251
10247TIP3   OH254935   6.594   0.841   1.540 -0.0165  0.3727 -0.4288
10247TIP3    H154936   6.592   0.837   1.444  0.4094  1.6307 -0.5033
10247TIP3    H254937   6.622   0.930   1.560  1.4434 -0.3368  0.8730
10248TIP3   OH254938   4.890   4.894   1.808  0.1969 -0.0988  0.4771
10248TIP3    H154939   4.878   4.929   1.720 -0.4319  0.6307  0.8425
10248TIP3    H254940   4.932   4.808   1.794  0.4954  0.1897 -0.4985
10249TIP3   OH254941   1.465   5.456   1.421  0.0951  0.3705  0.0581
10249TIP3    H154942   1.412   5.385   1.383 -0.1394 -0.6124  2.0833
10249TIP3    H254943   1.461   5.526   1.356 -2.9233 -0.0092 -0.3367
10250TIP3   OH254944   1.218   2.296   1.178 -1.2101 -0.6461 -0.1578
10250TIP3    H154945   1.183   2.208   1.159 -1.8701 -0.3227 -0.4760
10250TIP3    H254946   1.211   2.343   1.095  1.1884 -0.9403 -0.5918
10251TIP3   OH254947   5.460   1.579   1.058 -0.0397  0.9008 -0.2687
10251TIP3    H154948   5.435   1.668   1.034  1.0632  1.5041  0.7104
10251TIP3    H254949   5.534   1.590   1.118 -0.3550 -0.6508  0.4670
10252TIP3   OH254950   4.461   1.380   1.122  0.5510  0.1156 -0.4236
10252TIP3    H154951   4.494   1.432   1.049  0.9237 -0.5759 -0.7539
10252TIP3    H254952   4.410   1.310   1.081  1.9208 -1.1077 -0.1087
10253TIP3   OH254953   5.601   6.299   2.259 -0.4774  0.2832  0.1408
10253TIP3    H154954   5.515   6.271   2.293 -0.7308 -0.8614 -1.3402
10253TIP3    H254955   5.587   6.389   2.229 -1.1969  0.0606 -0.2047
10254TIP3   OH254956   5.732   2.926   0.698 -0.4823  0.6747  0.5490
10254TIP3    H154957   5.778   3.009   0.710  0.5765  0.6620 -2.7122
10254TIP3    H254958   5.650   2.951   0.655  0.8406  0.0031 -2.6358
10255TIP3   OH254959   5.526   3.011   0.978  0.3127 -0.1734  0.6605
10255TIP3    H154960   5.622   3.001   0.978  0.3711  0.2531 -0.5455
10255TIP3    H254961   5.495   2.937   0.926  0.0111 -0.1024  0.7427
10256TIP3   OH254962   1.253   1.291   0.791  0.5537 -0.7513 -0.1580
10256TIP3    H154963   1.259   1.355   0.862  0.1600 -0.7160 -0.1537
10256TIP3    H254964   1.179   1.320   0.739  0.0582 -1.4709  0.1188
10257TIP3   OH254965   0.147   0.440   1.946 -0.4113 -0.4459 -0.3631
10257TIP3    H154966   0.063   0.395   1.960  0.0398 -1.5569 -1.1193
10257TIP3    H254967   0.170   0.420   1.855  0.7052 -0.2229 -0.1405
10258TIP3   OH254968   3.561   4.148   0.963 -0.4718 -0.0408  0.0433
10258TIP3    H154969   3.643   4.196   0.966 -0.6957  0.3077  1.6950
10258TIP3    H254970   3.568   4.093   0.885  1.8741 -0.9751  0.8171
10259TIP3   OH254971   0.326   3.943   2.374 -0.6704 -0.6569 -0.1214
10259TIP3    H154972   0.376   3.862   2.371  0.1707 -0.2391  1.5742
10259TIP3    H254973   0.370   4.001   2.311  0.2323 -0.7107  0.4454
10260TIP3   OH254974   6.583   7.138   2.383 -0.5184 -0.1127 -0.7171
10260TIP3    H154975   6.636   7.058   2.384  0.5873  0.4958 -2.9311
10260TIP3    H254976   6.648   7.209   2.380 -1.4808  0.8013 -0.3086
10261TIP3   OH254977   3.293   1.251   1.734 -0.3031 -0.7070 -0.0492
10261TIP3    H154978   3.235   1.265   1.660 -0.5491 -0.0020  0.2667
10261TIP3    H254979   3.283   1.158   1.755  0.6257 -1.1755 -1.5887
10262TIP3   OH254980   4.746   5.792   3.078 -0.4669  0.2371  0.3203
10262TIP3    H154981   4.732   5.699   3.061  1.4580 -0.2202  1.0153
10262TIP3    H254982   4.781   5.795   3.167  0.8018  1.4734 -0.1880
10263TIP3   OH254983   2.795   4.060   1.813  0.1926  0.0082 -0.7158
10263TIP3    H154984   2.876   4.023   1.779 -1.3305 -3.2899 -1.1242
10263TIP3    H254985   2.762   3.994   1.874 -2.1273  1.3021 -0.4581
10264TIP3   OH254986   7.567   2.334   2.787 -0.2623  0.2526 -0.1013
10264TIP3    H154987   7.598   2.276   2.857 -0.8624 -0.6021 -0.5325
10264TIP3    H254988   7.472   2.326   2.789 -0.3555  1.2053 -0.1964
10265TIP3   OH254989   3.580   0.946   0.832 -0.1468 -0.5121  0.4179
10265TIP3    H154990   3.502   0.968   0.883  0.0106  1.1222 -0.0050
10265TIP3    H254991   3.551   0.951   0.741  0.4450  0.0575  0.2597
10266TIP3   OH254992   0.786   2.058   0.792 -0.6365  0.0774  0.0334
10266TIP3    H154993   0.794   2.125   0.724  2.2209 -0.3502 -0.1754
10266TIP3    H254994   0.784   2.108   0.874 -0.0458  0.4669 -0.1860
10267TIP3   OH254995   7.637   0.077   0.863 -0.2463  0.1375  0.1180
10267TIP3    H154996   7.557   0.128   0.870  0.3193  1.1194 -0.4439
10267TIP3    H254997   7.696   0.131   0.810  0.3671 -1.0865 -0.4926
10268TIP3   OH254998   1.487   4.972   1.311 -0.4005 -0.2246  0.0401
10268TIP3    H154999   1.434   4.989   1.389 -0.8365 -1.0346 -0.0639
10268TIP3    H255000   1.459   4.884   1.282 -0.2940  0.0829 -1.0544
10269TIP3   OH255001   4.989   7.401   2.741 -0.3719 -0.7140 -0.2208
10269TIP3    H155002   5.037   7.360   2.813  0.9483  0.2736 -0.5030
10269TIP3    H255003   5.032   7.368   2.662  1.1576  1.6050 -0.4502
10270TIP3   OH255004   6.653   3.164   2.016  0.1971  0.5151  0.0893
10270TIP3    H155005   6.591   3.135   1.949 -0.0429 -1.4155  1.0764
10270TIP3    H255006   6.602   3.221   2.074  0.5763  2.8074 -1.6565
10271TIP3   OH255007   5.026   3.607   2.584  0.1278 -0.2666 -0.0913
10271TIP3    H155008   5.015   3.578   2.494  0.0969 -0.5129 -0.0078
10271TIP3    H255009   4.982   3.692   2.588  0.0429 -0.3023 -0.2820
10272TIP3   OH255010   1.753   3.315   2.354  0.3095  0.0140  0.0862
10272TIP3    H155011   1.748   3.357   2.440 -0.1488 -0.9712  0.5503
10272TIP3    H255012   1.677   3.347   2.307  0.2467  0.1098  0.2512
10273TIP3   OH255013   2.131   1.515   2.378 -0.3777 -0.3585  0.2750
10273TIP3    H155014   2.134   1.538   2.471 -0.8006  0.0690  0.1877
10273TIP3    H255015   2.110   1.597   2.333 -1.5965 -0.8305 -0.0713
10274TIP3   OH255016   6.195   1.566   2.221 -0.0527 -0.1705 -0.1056
10274TIP3    H155017   6.257   1.516   2.168 -0.0348 -1.0313  0.7068
10274TIP3    H255018   6.247   1.638   2.256  0.0703  0.0856 -0.7904
10275TIP3   OH255019   4.551   1.184   1.524  0.0604  0.1615 -0.3762
10275TIP3    H155020   4.533   1.096   1.555  1.4571  0.3748  1.1823
10275TIP3    H255021   4.466   1.217   1.494 -0.2341 -2.1943 -2.4345
10276TIP3   OH255022   7.279   4.982   1.250 -0.0830 -0.4019  0.2179
10276TIP3    H155023   7.365   5.019   1.272  0.5241 -0.5145 -1.6881
10276TIP3    H255024   7.281   4.975   1.154 -1.8702 -1.2994  0.2095
10277TIP3   OH255025   4.802   3.319   0.851  0.7155 -0.4681  0.2423
10277TIP3    H155026   4.723   3.372   0.862  0.9429  0.3836 -1.7386
10277TIP3    H255027   4.773   3.229   0.863  0.3631 -0.0016  3.9568
10278TIP3   OH255028   4.538   5.118   2.379 -0.0697  0.5085  0.1464
10278TIP3    H155029   4.549   5.071   2.296  1.0563 -0.9317  1.0741
10278TIP3    H255030   4.443   5.114   2.395 -0.0834 -0.9755 -0.0986
10279TIP3   OH255031   5.629   6.115   1.703 -0.1514 -0.0353 -0.2428
10279TIP3    H155032   5.559   6.176   1.724 -0.2159 -0.0706 -0.3550
10279TIP3    H255033   5.682   6.160   1.637 -0.7556 -0.4848 -1.0544
10280TIP3   OH255034   0.290   6.768   2.036  0.0069  0.5187  0.4263
10280TIP3    H155035   0.222   6.712   1.999  0.3826 -0.3013  0.9645
10280TIP3    H255036   0.273   6.770   2.130  0.8517  0.1251  0.5994
10281TIP3   OH255037   5.350   0.439   1.598 -0.2895  0.3338  0.3828
10281TIP3    H155038   5.325   0.470   1.686  1.3096  0.5053  0.8126
10281TIP3    H255039   5.268   0.442   1.548 -1.8142 -1.9967  2.4473
10282TIP3   OH255040   6.548   7.678   1.248  0.0130  0.0391 -0.2550
10282TIP3    H155041   6.509   7.610   1.193  0.3190  0.0961 -0.5428
10282TIP3    H255042   6.642   7.662   1.243 -0.0169 -1.2545  1.9168
10283TIP3   OH255043   4.952   1.207   2.408 -0.3032 -0.3100 -0.1262
10283TIP3    H155044   5.047   1.202   2.418 -0.3172 -0.5684 -0.1312
10283TIP3    H255045   4.925   1.272   2.472 -0.0248  0.4155 -0.7266
10284TIP3   OH255046   4.456   7.469   1.439  0.2354  0.0178  0.1159
10284TIP3    H155047   4.501   7.553   1.437  1.1649 -0.4848 -0.3667
10284TIP3    H255048   4.409   7.465   1.356  2.8030 -1.3131 -1.3905
10285TIP3   OH255049   7.041   1.897   1.909 -0.0750 -0.6164 -0.2698
10285TIP3    H155050   7.074   1.813   1.878 -0.4446 -0.8849  0.0473
10285TIP3    H255051   7.045   1.889   2.005 -2.1552 -1.1222 -0.1843
10286TIP3   OH255052   3.719   3.833   0.998 -0.3747  0.5725 -0.3318
10286TIP3    H155053   3.737   3.739   0.990 -0.6948  0.5160 -0.4353
10286TIP3    H255054   3.644   3.847   0.940 -1.6077  0.5064  1.1684
10287TIP3   OH255055   2.857   4.519   2.040 -0.1470 -0.0718  0.6456
10287TIP3    H155056   2.929   4.502   2.101  1.6967 -0.2241 -1.4512
10287TIP3    H255057   2.832   4.433   2.007  0.3672  0.1580 -0.3854
10288TIP3   OH255058   4.958   0.007   2.645  0.1538 -0.1042  0.0581
10288TIP3    H155059   4.957  -0.080   2.686  0.1860 -0.2946 -0.3417
10288TIP3    H255060   4.901  -0.002   2.569 -2.8552  1.2190  1.9661
10289TIP3   OH255061   4.558   2.792   1.575 -0.1156 -0.0703  0.7736
10289TIP3    H155062   4.489   2.858   1.576 -0.0158  0.0571 -0.2670
10289TIP3    H255063   4.538   2.736   1.501  1.3197  0.4353 -0.0430
10290TIP3   OH255064   7.482   0.436   0.996  0.2636  0.3812  0.0208
10290TIP3    H155065   7.433   0.383   1.059  0.0565 -2.1455 -2.1120
10290TIP3    H255066   7.427   0.513   0.982 -0.7525 -0.0760  1.2667
10291TIP3   OH255067   0.592   6.276   2.801 -0.9628  0.1762 -0.0859
10291TIP3    H155068   0.506   6.242   2.777 -1.1857  0.6161  0.0757
10291TIP3    H255069   0.636   6.203   2.845 -0.9829 -0.2717 -0.7945
10292TIP3   OH255070   3.256   6.921   0.350 -0.8170 -0.1524 -0.3899
10292TIP3    H155071   3.178   6.869   0.369 -1.0027  0.7031  1.4022
10292TIP3    H255072   3.292   6.882   0.270 -2.9949 -0.6445 -1.1937
10293TIP3   OH255073   0.724   4.845   2.734  1.2245 -0.2362  0.1250
10293TIP3    H155074   0.812   4.882   2.735  0.5781  1.4795 -0.7233
10293TIP3    H255075   0.715   4.806   2.647  0.4509  1.6001 -0.6870
10294TIP3   OH255076   5.331   5.128   1.874  0.1025 -0.0266  0.2353
10294TIP3    H155077   5.271   5.073   1.925  0.9476  1.1368  2.6490
10294TIP3    H255078   5.317   5.217   1.908  1.7499  0.5801 -0.5463
10295TIP3   OH255079   3.302   0.964   1.848  0.6732 -0.2079 -0.4238
10295TIP3    H155080   3.353   0.886   1.830 -0.2551 -1.1071  0.7053
10295TIP3    H255081   3.225   0.933   1.896  0.0343  1.3311 -0.3715
10296TIP3   OH255082   6.488   0.151   1.668 -0.0285 -0.4561  0.4106
10296TIP3    H155083   6.572   0.120   1.633 -0.4042  0.4874 -1.4269
10296TIP3    H255084   6.513   0.210   1.739  0.8206 -0.9606  0.5584
10297TIP3   OH255085   4.746   3.089   2.153  0.3913 -0.0531 -0.9125
10297TIP3    H155086   4.686   3.015   2.146  1.0340 -1.0479  2.3854
10297TIP3    H255087   4.833   3.049   2.160  1.1174  1.2057 -2.2768
10298TIP3   OH255088   6.967   5.735   2.860 -0.1337 -0.3062 -0.3896
10298TIP3    H155089   6.937   5.802   2.799 -0.9784 -1.4064 -1.2249
10298TIP3    H255090   7.044   5.697   2.818 -0.0723 -0.3323 -0.2545
10299TIP3   OH255091   0.381   1.518   2.510  0.1905 -0.6568  0.3201
10299TIP3    H155092   0.428   1.465   2.445 -0.6672  0.0411 -0.9074
10299TIP3    H255093   0.448   1.576   2.546  0.1867  1.0145 -2.1221
10300TIP3   OH255094   2.222   5.405   1.317 -0.2663  0.3833 -0.1883
10300TIP3    H155095   2.286   5.378   1.251  0.1920  0.6927  0.1236
10300TIP3    H255096   2.263   5.382   1.401 -0.9121 -0.1544 -0.0135
10301TIP3   OH255097   5.022   4.579   0.859 -0.1351 -0.2533  0.0209
10301TIP3    H155098   5.009   4.485   0.867 -1.6197 -0.2127 -1.3597
10301TIP3    H255099   4.981   4.602   0.775 -0.1637  1.6777  0.5074
10302TIP3   OH255100   3.143   2.194   2.958  0.1600  0.0178 -0.0497
10302TIP3    H155101   3.203   2.255   2.913 -0.0625 -0.9381 -1.7202
10302TIP3    H255102   3.150   2.113   2.908 -3.9782  0.4051 -1.6107
10303TIP3   OH255103   7.071   3.743   0.817 -0.2252 -0.1222 -0.2742
10303TIP3    H155104   7.149   3.688   0.806  0.8498  0.7547  2.2222
10303TIP3    H255105   7.004   3.682   0.846 -0.7124 -0.9805 -2.9621
10304TIP3   OH255106   6.398   6.710   0.705  0.5510  0.3375 -0.1580
10304TIP3    H155107   6.440   6.624   0.700  1.4514  0.7857 -0.6264
10304TIP3    H255108   6.421   6.742   0.792 -2.7565 -1.3222  1.5089
10305TIP3   OH255109   4.299   4.233   1.748 -0.4214 -0.0142  0.0774
10305TIP3    H155110   4.290   4.141   1.721 -2.2037 -0.0866  0.7601
10305TIP3    H255111   4.347   4.229   1.831 -0.3296 -0.3119  0.0105
10306TIP3   OH255112   0.724   2.960   0.547  0.7962 -0.4086 -0.3706
10306TIP3    H155113   0.776   2.938   0.624  0.9422 -0.4718 -0.4850
10306TIP3    H255114   0.634   2.968   0.579  0.6785 -1.5365 -0.3940
10307TIP3   OH255115   4.188   1.333   2.490  0.7306  0.0075 -0.1921
10307TIP3    H155116   4.236   1.257   2.522  2.2627  1.3090  0.7785
10307TIP3    H255117   4.128   1.355   2.561  1.9410  1.0513  0.5467
10308TIP3   OH255118   3.537   4.882   2.351 -0.3583 -0.2611  0.2356
10308TIP3    H155119   3.487   4.843   2.422  0.9374  0.9969  1.9262
10308TIP3    H255120   3.592   4.810   2.318 -1.4290 -1.0142  0.0359
10309TIP3   OH255121   1.003   2.498   1.280 -0.5289  0.1392  0.1278
10309TIP3    H155122   1.064   2.571   1.269 -1.0894  0.6750  0.5386
10309TIP3    H255123   1.058   2.420   1.269 -0.1907  0.5921 -1.7788
10310TIP3   OH255124   4.568   6.850   0.905  0.0386 -0.0013  0.1636
10310TIP3    H155125   4.645   6.803   0.874 -0.0267  0.3305 -0.5197
10310TIP3    H255126   4.494   6.804   0.866 -0.0549  0.2980 -0.0186
10311TIP3   OH255127   4.910   5.233   2.680  0.1157 -0.1151  0.2951
10311TIP3    H155128   4.990   5.270   2.643 -0.3396 -1.4606 -2.2365
10311TIP3    H255129   4.839   5.266   2.624 -0.9093 -0.4013  1.3831
10312TIP3   OH255130   3.143   4.572   2.125  0.2466  0.2517 -0.0175
10312TIP3    H155131   3.082   4.621   2.180  0.5165 -0.5803  1.0506
10312TIP3    H255132   3.230   4.599   2.156  0.4004 -0.3393  0.0706
10313TIP3   OH255133   1.329   0.599   1.320  0.1675  0.5090 -0.0762
10313TIP3    H155134   1.328   0.627   1.412  0.4534  0.2831 -0.0016
10313TIP3    H255135   1.259   0.649   1.279  0.0475  0.6236  0.2628
10314TIP3   OH255136   0.733   5.298   1.788 -0.0567  0.4219 -0.5018
10314TIP3    H155137   0.765   5.355   1.718 -0.2996 -0.3730 -1.2761
10314TIP3    H255138   0.683   5.230   1.743  1.5490 -1.3505  0.2039
10315TIP3   OH255139   6.671   1.108   2.112  0.3552  0.8647 -0.2286
10315TIP3    H155140   6.626   1.166   2.173 -0.0819  0.6449 -0.3407
10315TIP3    H255141   6.762   1.109   2.142  0.2829  1.3248 -0.0140
10316TIP3   OH255142   6.196   3.253   1.409 -0.2027 -0.2843 -0.1246
10316TIP3    H155143   6.138   3.182   1.438 -1.7754  0.9920 -0.0445
10316TIP3    H255144   6.262   3.209   1.355 -1.0300 -1.8241  0.0547
10317TIP3   OH255145   5.820   5.968   2.546  0.6420  0.2636 -1.2278
10317TIP3    H155146   5.877   5.993   2.619 -0.2417 -0.2573 -0.3325
10317TIP3    H255147   5.784   6.051   2.514 -0.3305  0.3820  0.0936
10318TIP3   OH255148   6.310   2.629   2.631 -0.0735 -0.2319  0.3852
10318TIP3    H155149   6.239   2.667   2.683 -1.6951 -0.2824 -1.6793
10318TIP3    H255150   6.277   2.543   2.606  0.4732 -0.0434 -1.0519
10319TIP3   OH255151   5.971   1.556   2.015 -0.5660 -0.1894  0.0424
10319TIP3    H155152   6.035   1.545   2.086  1.7036  0.9549 -1.6938
10319TIP3    H255153   5.943   1.648   2.022  1.2699  0.5633 -1.7080
10320TIP3   OH255154   7.627   7.103   3.320  0.2908  0.2964  0.1946
10320TIP3    H155155   7.533   7.119   3.329 -0.1181 -1.7369  0.1635
10320TIP3    H255156   7.633   7.031   3.257  1.8576  0.2177  0.3923
10321TIP3   OH255157   6.157   4.963   1.830  0.2754  0.2274 -0.3135
10321TIP3    H155158   6.108   4.890   1.869  1.4760  0.5386  1.9573
10321TIP3    H255159   6.161   4.942   1.736 -0.6242 -1.8985  0.0646
10322TIP3   OH255160   2.698   6.787   0.993 -0.2982  0.3773 -0.2098
10322TIP3    H155161   2.728   6.782   0.902 -1.1621 -0.6311 -0.4544
10322TIP3    H255162   2.603   6.780   0.987 -0.3998  0.7959  0.7453
10323TIP3   OH255163   3.598   1.207   2.383  0.2419 -0.1177 -0.3865
10323TIP3    H155164   3.579   1.201   2.477  1.2213 -0.9868 -0.2301
10323TIP3    H255165   3.690   1.182   2.376  0.0132 -0.6244 -1.6528
10324TIP3   OH255166   7.588   3.149   1.377  0.0953 -0.3217  0.4654
10324TIP3    H155167   7.540   3.071   1.403  0.9575 -0.9007  0.3688
10324TIP3    H255168   7.558   3.218   1.437 -0.3924 -0.8226  0.7972
10325TIP3   OH255169   0.544   1.183   2.048  0.3038 -0.5181  0.4255
10325TIP3    H155170   0.610   1.252   2.040  0.6229 -0.6928  1.3995
10325TIP3    H255171   0.593   1.106   2.079  0.0262 -1.3149 -1.0153
10326TIP3   OH255172   2.378   3.161   1.057 -0.3902 -0.4488 -0.7711
10326TIP3    H155173   2.286   3.163   1.031 -0.6223  0.7216  0.0736
10326TIP3    H255174   2.417   3.236   1.013 -0.1543 -0.1227 -0.0195
10327TIP3   OH255175   1.363   5.280   1.058 -0.6687  0.4353  0.6042
10327TIP3    H155176   1.451   5.249   1.079 -1.3842 -3.2906 -1.1038
10327TIP3    H255177   1.374   5.328   0.977 -0.0659  1.1041  1.0685
10328TIP3   OH255178   0.482   6.547   1.339  0.5083 -0.4575  0.1574
10328TIP3    H155179   0.514   6.616   1.397  0.9444 -1.7955  1.5954
10328TIP3    H255180   0.530   6.561   1.257  1.0130  0.5902  0.6110
10329TIP3   OH255181   0.697   1.007   2.933 -0.0740 -0.1869 -0.3620
10329TIP3    H155182   0.617   0.984   2.886 -0.0548 -0.0612 -0.4555
10329TIP3    H255183   0.698   0.949   3.009 -0.9085  0.6707  0.3280
10330TIP3   OH255184   7.300   3.129   0.729 -0.3294  0.1118 -0.3335
10330TIP3    H155185   7.305   3.178   0.811  2.5533 -0.3882 -0.1227
10330TIP3    H255186   7.380   3.152   0.682 -0.2875 -2.2017 -1.5079
10331TIP3   OH255187   2.377   6.571   3.064 -0.1319  0.4208 -0.3128
10331TIP3    H155188   2.473   6.574   3.055  0.1853 -1.5341  1.6304
10331TIP3    H255189   2.355   6.479   3.058 -1.9265  0.8470 -0.7081
10332TIP3   OH255190   4.717   6.436   2.148  0.0523  0.1360  0.3155
10332TIP3    H155191   4.761   6.379   2.211  0.1112 -1.0911 -0.8029
10332TIP3    H255192   4.670   6.376   2.090  0.5027  1.1865 -1.1976
10333TIP3   OH255193   0.244   0.435   2.551 -0.7185 -0.5179  0.0760
10333TIP3    H155194   0.325   0.482   2.571 -0.8432  0.0048 -0.6173
10333TIP3    H255195   0.223   0.388   2.632 -0.4956  0.4750  0.7196
10334TIP3   OH255196   7.417   7.305   1.301  0.4068  0.0181 -0.0932
10334TIP3    H155197   7.359   7.380   1.306  1.6455  1.1371 -1.6827
10334TIP3    H255198   7.361   7.230   1.320 -0.9695  1.2680  0.9897
10335TIP3   OH255199   1.775   6.830   2.028  0.2348  0.9845  0.1477
10335TIP3    H155200   1.719   6.795   1.959 -0.3131  0.2590  0.9327
10335TIP3    H255201   1.758   6.924   2.027  0.4749  1.0270 -0.8986
10336TIP3   OH255202   3.259   0.289   1.398 -0.1776  0.1707  0.4715
10336TIP3    H155203   3.319   0.357   1.369  0.3852  0.3493  2.0075
10336TIP3    H255204   3.312   0.231   1.452 -0.7959 -1.1684 -0.2993
10337TIP3   OH255205   6.586   6.268   1.317 -0.1632 -0.4260  0.6855
10337TIP3    H155206   6.643   6.301   1.247 -0.5008 -0.2906  0.4723
10337TIP3    H255207   6.537   6.196   1.276 -0.4135 -0.2991  0.7610
10338TIP3   OH255208   1.330   4.048   2.273  0.1669  0.1653  0.3368
10338TIP3    H155209   1.242   4.087   2.276 -0.3519 -0.7734 -1.4317
10338TIP3    H255210   1.357   4.043   2.365 -0.7930  2.2723  0.7970
10339TIP3   OH255211   0.512   4.868   1.247 -0.4472 -0.2756 -0.1044
10339TIP3    H155212   0.587   4.843   1.193 -1.5738 -1.5373 -1.1525
10339TIP3    H255213   0.438   4.821   1.208 -1.8463  1.1657  0.7090
10340TIP3   OH255214   2.831   1.289   2.542  0.5851  0.0800  0.3828
10340TIP3    H155215   2.861   1.284   2.633 -0.8826  3.0687  1.1333
10340TIP3    H255216   2.768   1.217   2.534 -0.6544  0.8709  2.3377
10341TIP3   OH255217   4.022   6.784   1.516  0.6800  0.4619 -0.3955
10341TIP3    H155218   3.932   6.805   1.492  0.7995 -0.9591 -2.3256
10341TIP3    H255219   4.017   6.752   1.606 -0.3527  2.5972  0.3776
10342TIP3   OH255220   4.740   5.290   1.269  0.4091  0.5068  0.7772
10342TIP3    H155221   4.675   5.359   1.270  1.2064  1.3386 -0.8279
10342TIP3    H255222   4.777   5.291   1.357  1.1752  2.9293  0.5079
10343TIP3   OH255223   1.820   5.199   3.686  0.2868 -0.4887 -0.0031
10343TIP3    H155224   1.840   5.286   3.722 -3.4896  0.0631  1.1889
10343TIP3    H255225   1.851   5.138   3.753  0.1619  0.1229  0.6256
10344TIP3   OH255226   3.400   6.028   1.943  0.5022 -0.4796  0.3301
10344TIP3    H155227   3.424   6.121   1.947 -0.1844 -0.1364 -2.2190
10344TIP3    H255228   3.478   5.981   1.973  1.8276  0.8298 -0.9632
10345TIP3   OH255229   7.383   4.869   1.798 -0.1656  0.0168  0.0869
10345TIP3    H155230   7.312   4.919   1.760  0.6728  2.9894  2.0863
10345TIP3    H255231   7.451   4.866   1.730  0.3507  3.0547  0.3420
10346TIP3   OH255232   4.434   6.901   2.615  0.2817  0.5997 -1.0461
10346TIP3    H155233   4.413   6.816   2.574  1.7656  0.0233 -0.6796
10346TIP3    H255234   4.349   6.939   2.635 -0.5976 -2.5117  2.3160
10347TIP3   OH255235   0.760   5.417   1.532 -0.4500  0.3576  0.1269
10347TIP3    H155236   0.722   5.387   1.449 -0.5483 -3.2508  1.2993
10347TIP3    H255237   0.837   5.467   1.506 -2.0334  1.8432 -2.1231
10348TIP3   OH255238   6.654   1.949   2.756 -0.2556 -0.0520 -0.0185
10348TIP3    H155239   6.699   2.032   2.742  0.8534 -0.6287  0.0032
10348TIP3    H255240   6.634   1.917   2.669  0.0357 -0.1329 -0.0579
10349TIP3   OH255241   2.960   1.493   0.832  0.1398  0.6287 -0.4143
10349TIP3    H155242   2.869   1.464   0.825  0.2677 -0.4525  1.6149
10349TIP3    H255243   2.999   1.472   0.747 -1.3299  0.4980 -1.0790
10350TIP3   OH255244   6.749   4.379   2.474  0.6268  0.8672 -0.4661
10350TIP3    H155245   6.783   4.291   2.490 -1.8570  0.0970  1.2601
10350TIP3    H255246   6.733   4.414   2.562 -1.5279  1.6870 -1.1201
10351TIP3   OH255247   5.353   0.593   1.954 -0.2928  0.1378 -0.1098
10351TIP3    H155248   5.290   0.555   1.893  0.0958  2.0246 -1.8121
10351TIP3    H255249   5.432   0.541   1.941 -0.4096  0.1123 -0.7864
10352TIP3   OH255250   4.467   2.577   0.749  0.2950 -0.7650  0.1576
10352TIP3    H155251   4.522   2.513   0.703  0.3857  0.0950 -0.9789
10352TIP3    H255252   4.389   2.527   0.775  0.4706 -1.3945 -0.4919
10353TIP3   OH255253   5.194   5.418   3.265 -0.2638 -0.1029  0.1730
10353TIP3    H155254   5.228   5.353   3.204 -1.5547 -1.2665  0.6464
10353TIP3    H255255   5.273   5.457   3.304  0.5446 -0.4450 -1.0627
10354TIP3   OH255256   5.014   7.081   0.660  0.1033  0.3337 -0.2312
10354TIP3    H155257   4.996   7.173   0.675 -0.6908  0.3337 -1.0770
10354TIP3    H255258   4.976   7.063   0.574 -1.2911 -1.1793  0.6436
10355TIP3   OH255259   0.842   5.105   2.742  0.6922 -0.2099  0.1957
10355TIP3    H155260   0.904   5.125   2.812 -3.0797  0.6426  3.6797
10355TIP3    H255261   0.828   5.189   2.698  0.9033 -0.0801  0.3731
10356TIP3   OH255262   2.541   2.892   2.280 -0.5820  0.0841 -0.0560
10356TIP3    H155263   2.599   2.964   2.255 -1.1649  0.5155 -0.1704
10356TIP3    H255264   2.578   2.816   2.234  1.1960 -0.1280  1.6117
10357TIP3   OH255265   2.910   2.333   0.975  0.0173 -0.1979 -0.2360
10357TIP3    H155266   2.855   2.407   1.000  1.7591  0.1523  3.1610
10357TIP3    H255267   2.853   2.277   0.922 -2.4588  1.7755  0.1607
10358TIP3   OH255268   0.712   2.522   0.821  0.2950 -0.0955 -0.1184
10358TIP3    H155269   0.807   2.532   0.808  0.2508  0.4753 -0.0682
10358TIP3    H255270   0.684   2.608   0.853 -0.5528  0.3572 -1.9338
10359TIP3   OH255271   3.350   7.464   2.164 -0.2240 -0.6527  0.7104
10359TIP3    H155272   3.264   7.422   2.155 -1.0332  0.8913  0.7235
10359TIP3    H255273   3.332   7.557   2.148  1.9694 -0.6294 -2.5311
10360TIP3   OH255274   2.827   2.629   2.369 -0.7030  0.2375 -0.6149
10360TIP3    H155275   2.906   2.575   2.362  1.2028  2.7211  0.0870
10360TIP3    H255276   2.784   2.596   2.448  0.7775  0.1424  0.2080
10361TIP3   OH255277   7.257   3.207   1.184 -0.0461  0.6138 -0.3487
10361TIP3    H155278   7.337   3.254   1.159  0.0712  1.2733  1.1733
10361TIP3    H255279   7.217   3.262   1.251  0.2544 -1.5815  1.7666
10362TIP3   OH255280   2.582   2.847   1.376 -0.2663 -0.3326  0.0079
10362TIP3    H155281   2.674   2.855   1.401 -0.1225 -1.3763 -0.1386
10362TIP3    H255282   2.555   2.762   1.411 -1.1650 -0.0579  0.0059
10363TIP3   OH255283   4.464   6.379   2.002  0.4925 -0.1216 -0.4237
10363TIP3    H155284   4.447   6.397   2.094 -0.1405  1.2762 -0.7941
10363TIP3    H255285   4.499   6.462   1.967  1.8413 -0.9609 -1.1893
10364TIP3   OH255286   1.949   5.569   1.005 -0.1597  0.1658  0.4523
10364TIP3    H155287   2.005   5.492   1.013 -0.3040  0.2343  2.7536
10364TIP3    H255288   1.860   5.534   0.998  0.0013  0.0868 -2.2390
10365TIP3   OH255289   7.098   7.244   1.534 -0.1195 -0.0046 -0.1021
10365TIP3    H155290   7.131   7.185   1.466 -0.1372 -0.9634  0.6963
10365TIP3    H255291   7.172   7.300   1.555  0.1119 -0.1968 -0.3868
10366TIP3   OH255292   4.113   2.064   0.676 -0.1167 -0.5286  0.3615
10366TIP3    H155293   4.168   1.986   0.686  0.6205  0.1149  1.6162
10366TIP3    H255294   4.076   2.078   0.763 -0.8203  0.1103 -0.0355
10367TIP3   OH255295   6.269   2.628   1.910 -0.0557  0.0551  0.3054
10367TIP3    H155296   6.211   2.688   1.956  0.8757  0.5523  0.8610
10367TIP3    H255297   6.254   2.543   1.953  0.5343  0.4378  1.3230
10368TIP3   OH255298   1.661   1.198   2.623  0.6125 -0.6152 -0.0032
10368TIP3    H155299   1.575   1.210   2.583  1.1107 -0.6416 -1.1324
10368TIP3    H255300   1.720   1.182   2.549  1.6945  0.0102  0.6927
10369TIP3   OH255301   3.239   4.168   2.251  0.0529 -0.1671  0.2590
10369TIP3    H155302   3.261   4.085   2.293 -0.2180 -0.9515 -1.0677
10369TIP3    H255303   3.163   4.201   2.298  0.8086 -0.1241  1.4753
10370TIP3   OH255304   3.688   2.039   1.299  0.1822  0.4002 -0.0302
10370TIP3    H155305   3.662   2.119   1.344 -0.5698  0.7466 -1.0320
10370TIP3    H255306   3.777   2.057   1.267  0.1430  0.7133  0.0342
10371TIP3   OH255307   1.482   6.981   0.845 -0.7002 -0.0131  0.1171
10371TIP3    H155308   1.576   7.000   0.837 -0.6038  2.2227  4.1855
10371TIP3    H255309   1.478   6.890   0.872  0.2217 -0.3199 -0.7113
10372TIP3   OH255310   3.182   4.939   1.180 -0.4707 -0.2847 -0.5415
10372TIP3    H155311   3.151   4.859   1.221 -0.4246 -2.0197 -3.5800
10372TIP3    H255312   3.277   4.934   1.187 -0.5031  0.5642  0.9742
10373TIP3   OH255313   1.989   0.020   0.533 -0.3717 -0.1984 -0.1887
10373TIP3    H155314   1.946   0.089   0.584 -0.6805  0.5756 -1.4501
10373TIP3    H255315   2.000   0.058   0.446 -0.1756 -1.6060 -0.8047
10374TIP3   OH255316   0.081   0.668   1.563  0.0034 -0.2783  0.5426
10374TIP3    H155317   0.123   0.671   1.477 -0.1044  0.3916  0.5065
10374TIP3    H255318   0.009   0.607   1.552 -0.4520  0.3511 -0.0509
10375TIP3   OH255319   6.481   4.493   0.738 -0.4306  0.2454 -0.1352
10375TIP3    H155320   6.571   4.462   0.739 -0.8911 -1.1743  0.5543
10375TIP3    H255321   6.484   4.579   0.778  0.5597  0.0055  0.3293
10376TIP3   OH255322   3.986   3.180   1.832 -0.4107 -0.1990  0.0143
10376TIP3    H155323   3.947   3.192   1.746 -0.3594  0.2608  0.0553
10376TIP3    H255324   4.079   3.161   1.814  0.1567  2.2191  0.0275
10377TIP3   OH255325   6.665   4.758   1.315 -0.4634 -0.1696 -0.1996
10377TIP3    H155326   6.582   4.730   1.353 -0.9077  0.8399 -0.3745
10377TIP3    H255327   6.673   4.707   1.235 -3.2036  2.7888 -2.6271
10378TIP3   OH255328   3.803   2.699   1.354 -0.1987 -0.0615  0.1068
10378TIP3    H155329   3.718   2.675   1.318  0.2501 -1.3392 -0.1630
10378TIP3    H255330   3.785   2.775   1.410 -1.7210 -1.0714  1.0566
10379TIP3   OH255331   3.773   6.405   0.779 -0.6441 -0.5398  0.0436
10379TIP3    H155332   3.837   6.395   0.850 -0.1062  2.2385  0.0659
10379TIP3    H255333   3.701   6.348   0.804  0.3323 -1.0761  1.8557
10380TIP3   OH255334   7.444   7.509   1.035  0.3619  0.1949  0.3598
10380TIP3    H155335   7.433   7.584   0.977  1.0234  0.4491  0.5469
10380TIP3    H255336   7.529   7.473   1.011  1.0313  0.7921  1.6876
10381TIP3   OH255337   3.384   3.607   3.294 -0.3290  0.2152 -0.2560
10381TIP3    H155338   3.364   3.690   3.337 -0.4963  0.1424 -0.1904
10381TIP3    H255339   3.319   3.601   3.223 -2.1962 -1.1635  1.4395
10382TIP3   OH255340   0.827   0.744   0.669  0.0500 -0.4170  0.4016
10382TIP3    H155341   0.776   0.782   0.741  2.8600 -1.3028  3.0764
10382TIP3    H255342   0.778   0.666   0.644 -1.6673  0.6096  0.3587
10383TIP3   OH255343   5.323   7.655   2.350  0.7686 -0.2696 -0.4996
10383TIP3    H155344   5.284   7.570   2.328 -0.4469 -0.5006  2.1382
10383TIP3    H255345   5.259   7.696   2.407  2.1751  1.6363 -0.2051
10384TIP3   OH255346   5.916   5.087   1.530  0.1009  1.2391 -0.2791
10384TIP3    H155347   5.922   5.174   1.570  0.3008  1.7038 -1.2940
10384TIP3    H255348   5.877   5.102   1.444 -0.4027  0.2461 -0.2507
10385TIP3   OH255349   7.314   5.980   0.819 -0.2864  0.3565  0.2800
10385TIP3    H155350   7.233   5.949   0.859  0.7964 -1.1207  1.4348
10385TIP3    H255351   7.382   5.922   0.854  1.0840  0.6190 -1.7742
10386TIP3   OH255352   3.081   4.372   1.750  0.3732 -0.4203 -0.1219
10386TIP3    H155353   3.052   4.461   1.772 -0.8817 -0.6280 -0.8475
10386TIP3    H255354   3.116   4.337   1.832 -0.3528  0.2657  0.4962
10387TIP3   OH255355   3.748   6.121   2.324  0.2737  0.2523 -0.3875
10387TIP3    H155356   3.697   6.185   2.374 -1.1239 -0.1117 -1.2907
10387TIP3    H255357   3.739   6.150   2.233  0.7665 -0.4539 -0.6663
10388TIP3   OH255358   3.071   0.188   2.395 -0.4086 -0.0297 -0.4226
10388TIP3    H155359   3.030   0.240   2.463 -1.7841 -1.2037 -0.3216
10388TIP3    H255360   3.065   0.098   2.426  0.4284 -0.4291 -1.3472
10389TIP3   OH255361   7.041   4.942   1.508 -0.0417  0.1031  0.2557
10389TIP3    H155362   7.017   4.856   1.543  0.2714  0.0346  0.3070
10389TIP3    H255363   6.973   4.962   1.444 -1.1488  0.6452  1.5645
10390TIP3   OH255364   0.097   2.037   2.389  0.4845  0.0420 -0.6222
10390TIP3    H155365   0.025   2.076   2.437  0.9512 -0.6281  0.6705
10390TIP3    H255366   0.114   2.097   2.317  1.2891  2.3775  1.3788
10391TIP3   OH255367   4.321   1.833   1.113 -0.0369 -0.1579  0.7373
10391TIP3    H155368   4.341   1.839   1.206  0.1442 -2.1249  0.8728
10391TIP3    H255369   4.278   1.748   1.103  1.1665 -0.6091 -1.1705
10392TIP3   OH255370   4.201   0.798   0.736  0.1599  0.2103  0.0705
10392TIP3    H155371   4.178   0.759   0.652 -0.2590 -0.2534  0.3947
10392TIP3    H255372   4.128   0.775   0.793 -0.7287  2.4694 -0.0287
10393TIP3   OH255373   1.657   4.972   0.609 -0.0223 -0.6112 -0.6545
10393TIP3    H155374   1.583   4.929   0.567 -0.2419  0.2752 -1.2120
10393TIP3    H255375   1.642   4.960   0.703 -1.2747  0.1808 -0.7307
10394TIP3   OH255376   7.404   3.553   1.863 -0.1677 -0.4380  0.1829
10394TIP3    H155377   7.481   3.593   1.823 -0.4469  0.3583  0.4160
10394TIP3    H255378   7.440   3.491   1.927  0.2828 -0.1511  0.2124
10395TIP3   OH255379   6.261   6.519   2.413 -0.3113 -0.0656  0.2442
10395TIP3    H155380   6.340   6.571   2.395  0.8392 -2.8152 -4.0303
10395TIP3    H255381   6.205   6.534   2.337 -2.4742 -0.8529  1.5871
10396TIP3   OH255382   1.293   1.630   0.562 -0.6320 -0.1407  0.4437
10396TIP3    H155383   1.266   1.630   0.653  0.5946  0.0949  0.8280
10396TIP3    H255384   1.381   1.668   0.563 -1.2120  1.3213 -1.0232
10397TIP3   OH255385   1.721   0.791   2.101 -0.1474  0.3842  0.2503
10397TIP3    H155386   1.653   0.767   2.165 -0.7361  2.5769  0.5053
10397TIP3    H255387   1.673   0.808   2.020  0.5773 -2.1739 -0.8150
10398TIP3   OH255388   0.436   4.652   2.607 -0.5286  0.1997 -0.4531
10398TIP3    H155389   0.531   4.656   2.606 -0.4896 -0.7685 -0.7781
10398TIP3    H255390   0.408   4.743   2.593  0.3400  0.7519  1.1276
10399TIP3   OH255391   1.659   2.397   1.361  0.6129  0.6711  0.1039
10399TIP3    H155392   1.710   2.442   1.429 -0.0633  1.1151  0.3352
10399TIP3    H255393   1.647   2.308   1.396  0.1027  0.9523  0.6682
10400TIP3   OH255394   5.014   1.050   1.396  0.4426  0.4962  0.1528
10400TIP3    H155395   5.096   1.024   1.438  0.0384 -1.2052 -0.0780
10400TIP3    H255396   5.040   1.079   1.308  0.8426  0.4486  0.2547
10401TIP3   OH255397   7.611   0.268   2.476 -0.7902  0.2663 -0.2345
10401TIP3    H155398   7.646   0.319   2.402 -3.3334  0.1330 -1.6337
10401TIP3    H255399   7.639   0.317   2.553  0.9366  1.0803 -1.2878
10402TIP3   OH255400   2.740   1.603   2.688  0.2493 -0.6307 -0.1310
10402TIP3    H155401   2.730   1.673   2.753 -0.7071  0.4872 -1.4453
10402TIP3    H255402   2.833   1.580   2.693  0.2117 -0.5822  1.6104
10403TIP3   OH255403   5.821   5.615   2.838 -0.2432  0.6017  0.1929
10403TIP3    H155404   5.811   5.525   2.869 -2.1980  1.3474  1.9577
10403TIP3    H255405   5.858   5.661   2.913  0.8079  1.3132 -0.7237
10404TIP3   OH255406   7.523   3.079   2.087 -0.4862 -0.0952 -0.0107
10404TIP3    H155407   7.428   3.078   2.076 -0.4503  0.2999 -0.3829
10404TIP3    H255408   7.553   2.998   2.045 -0.5547  0.3539 -0.9508
10405TIP3   OH255409   5.052   0.452   0.839  0.4450  0.8273  0.0648
10405TIP3    H155410   4.999   0.515   0.790 -2.2807  0.0457  1.7864
10405TIP3    H255411   5.109   0.506   0.894  0.5907  1.7156 -0.9221
10406TIP3   OH255412   1.260   0.073   0.817  0.0748  0.3662  0.0722
10406TIP3    H155413   1.213   0.138   0.869 -1.3178  1.1465 -2.0529
10406TIP3    H255414   1.285   0.120   0.737 -0.7844 -1.6025 -1.4346
10407TIP3   OH255415   2.526   5.452   2.866  0.8008  0.3566  0.8197
10407TIP3    H155416   2.619   5.434   2.878  1.2902  2.1185 -0.0649
10407TIP3    H255417   2.501   5.402   2.788  1.2848  0.7449  0.4123
10408TIP3   OH255418   3.530   2.862   0.503 -0.3495 -0.2537 -0.5603
10408TIP3    H155419   3.501   2.805   0.575 -0.4690 -2.7422 -2.4215
10408TIP3    H255420   3.453   2.915   0.483 -0.3626  0.3646  1.0078
10409TIP3   OH255421   6.147   0.358   2.020 -0.3750  0.3983 -0.5185
10409TIP3    H155422   6.097   0.331   1.943 -0.9979 -2.6770  0.8333
10409TIP3    H255423   6.235   0.375   1.986 -0.3990 -1.7341 -1.8259
10410TIP3   OH255424   5.830   3.891   2.088 -0.1516 -0.1912  0.1893
10410TIP3    H155425   5.819   3.979   2.123 -0.4709 -0.2441  0.2276
10410TIP3    H255426   5.899   3.900   2.022 -0.4939  0.1868 -0.1319
10411TIP3   OH255427   0.448   3.639   1.067 -0.1103  0.0231 -0.3725
10411TIP3    H155428   0.422   3.595   1.148 -0.0452 -1.8233 -1.3151
10411TIP3    H255429   0.382   3.708   1.055 -0.6975 -0.3367  0.7093
10412TIP3   OH255430   4.184   4.426   0.838 -0.7425 -0.6859 -0.2582
10412TIP3    H155431   4.254   4.456   0.780  0.4320 -0.2014  1.3346
10412TIP3    H255432   4.169   4.335   0.811  0.4812 -0.7926 -0.6645
10413TIP3   OH255433   6.838   1.362   1.233  0.1485 -0.0362 -0.9120
10413TIP3    H155434   6.805   1.431   1.176  0.9328  0.3897 -0.8686
10413TIP3    H255435   6.900   1.406   1.291 -1.1092 -0.3308  0.7275
10414TIP3   OH255436   2.917   6.628   2.039  0.1774 -0.2840  0.1944
10414TIP3    H155437   2.875   6.657   1.958  0.4194 -0.8653 -0.1454
10414TIP3    H255438   2.886   6.538   2.051  0.2724 -0.2563  0.6565
10415TIP3   OH255439   1.712   6.040   2.715  0.0310 -0.6816  0.1222
10415TIP3    H155440   1.774   6.031   2.787 -1.4535 -2.0222  1.2991
10415TIP3    H255441   1.630   6.064   2.756 -0.7373 -0.9559 -1.1816
10416TIP3   OH255442   2.085   0.423   3.022  0.2471 -0.2661  0.2044
10416TIP3    H155443   2.104   0.329   3.030 -1.2087 -0.5024  1.2368
10416TIP3    H255444   1.990   0.428   3.010  0.2487  1.0903  0.5746
10417TIP3   OH255445   2.881   5.552   1.198 -0.0485  0.3203  0.4946
10417TIP3    H155446   2.931   5.596   1.266 -2.6444  0.1123  2.6760
10417TIP3    H255447   2.937   5.558   1.120  1.4721  3.8487  1.6624
10418TIP3   OH255448   2.352   6.486   1.650 -0.2807  0.3101  0.2901
10418TIP3    H155449   2.403   6.522   1.577  0.0803 -0.8604 -0.0550
10418TIP3    H255450   2.263   6.479   1.616  0.2169 -1.9682 -0.7409
10419TIP3   OH255451   7.373   2.196   0.588  0.7273  0.3351  0.1386
10419TIP3    H155452   7.435   2.263   0.561  0.4273  0.8711  0.7654
10419TIP3    H255453   7.359   2.212   0.681 -0.1434  0.0543  0.0654
10420TIP3   OH255454   2.802   5.520   1.730  0.5635  0.2315 -0.1399
10420TIP3    H155455   2.709   5.498   1.732  0.8054 -0.8448 -0.2233
10420TIP3    H255456   2.840   5.458   1.667  1.0228  1.9212 -1.6177
10421TIP3   OH255457   0.593   5.422   0.590 -0.7649  0.0157 -0.2228
10421TIP3    H155458   0.569   5.344   0.541  0.0062 -0.3057 -0.1042
10421TIP3    H255459   0.525   5.431   0.657 -0.7004 -0.7099 -0.0609
10422TIP3   OH255460   0.997   2.913   2.433  0.0031  0.5417 -0.4204
10422TIP3    H155461   0.951   2.973   2.375  0.6640  1.6178  0.1208
10422TIP3    H255462   1.074   2.886   2.384  0.4627  1.3022 -0.1370
10423TIP3   OH255463   2.046   4.559   1.417  0.3008 -0.3773 -0.6758
10423TIP3    H155464   2.130   4.539   1.377 -0.0338  1.1571 -2.2667
10423TIP3    H255465   2.018   4.641   1.376 -0.9909  0.2842  1.3485
10424TIP3   OH255466   5.900   3.320   1.675  0.3932 -0.4000 -0.0199
10424TIP3    H155467   5.892   3.331   1.580  2.5757 -0.7506 -0.2858
10424TIP3    H255468   5.982   3.364   1.697 -1.0204  1.4106  2.0562
10425TIP3   OH255469   3.796   1.381   0.680 -0.4298 -0.3774 -0.2058
10425TIP3    H155470   3.812   1.291   0.710  0.0476 -0.0633  0.5069
10425TIP3    H255471   3.823   1.381   0.589  1.4523 -0.4903  0.3003
10426TIP3   OH255472   1.116   1.491   2.199 -0.2969  0.3280  0.2344
10426TIP3    H155473   1.140   1.531   2.115 -0.5591  0.1224  0.0583
10426TIP3    H255474   1.188   1.429   2.217 -0.8909 -0.6217 -0.5174
10427TIP3   OH255475   4.330   5.250   1.707 -0.6940 -0.2375  0.1534
10427TIP3    H155476   4.365   5.183   1.765 -2.0580 -0.0129  1.3066
10427TIP3    H255477   4.249   5.279   1.750  0.6525  3.3502  0.6488
10428TIP3   OH255478   7.186   2.124   1.272  0.4168  0.2931 -0.2443
10428TIP3    H155479   7.252   2.110   1.339  0.8735  1.5910 -0.3913
10428TIP3    H255480   7.111   2.159   1.319  0.0480 -0.5816 -0.1654
10429TIP3   OH255481   6.198   2.410   1.485  0.6260 -0.6326 -0.0888
10429TIP3    H155482   6.280   2.361   1.496  0.6227 -0.4827  0.6450
10429TIP3    H255483   6.138   2.369   1.547  0.2052 -0.6013 -0.4721
10430TIP3   OH255484   0.253   1.804   2.198  0.2745  0.1425  0.2252
10430TIP3    H155485   0.275   1.836   2.110 -0.4611  0.8350  0.2769
10430TIP3    H255486   0.281   1.875   2.256  0.2002 -0.0494  0.4957
10431TIP3   OH255487   3.693   3.586   2.677 -0.3262 -0.1867 -0.1869
10431TIP3    H155488   3.775   3.583   2.628 -0.4804 -0.8324 -0.4142
10431TIP3    H255489   3.625   3.573   2.611 -0.5035 -1.7521  0.2655
10432TIP3   OH255490   4.426   6.180   2.950 -0.1127  0.0654 -0.2613
10432TIP3    H155491   4.485   6.250   2.922  1.0621 -0.0899  1.6726
10432TIP3    H255492   4.431   6.181   3.045 -2.2584 -0.8261 -0.0767
10433TIP3   OH255493   7.097   1.309   2.624  0.2209 -0.0768 -0.3976
10433TIP3    H155494   7.031   1.270   2.567  0.5286 -0.5033 -0.4589
10433TIP3    H255495   7.180   1.298   2.578  0.2016  1.4748 -0.8442
10434TIP3   OH255496   3.403   7.176   2.868 -0.5907  0.0025  0.4077
10434TIP3    H155497   3.360   7.206   2.947  1.6038  2.2241  0.8630
10434TIP3    H255498   3.348   7.209   2.797 -0.6204  1.2310  0.9765
10435TIP3   OH255499   3.639   3.997   0.508 -0.4019  0.0448  0.3693
10435TIP3    H155500   3.721   3.947   0.515  0.0400  0.7795  0.5903
10435TIP3    H255501   3.590   3.953   0.438 -0.4385 -1.2560  1.1719
10436TIP3   OH255502   7.614   6.138   1.104  0.2256 -0.6223 -0.0574
10436TIP3    H155503   7.608   6.230   1.128  0.1870 -1.1721  2.3418
10436TIP3    H255504   7.524   6.113   1.082 -0.0322 -0.4241  0.7469
10437TIP3   OH255505   1.258   1.061   1.853  0.4247  0.2880  0.0263
10437TIP3    H155506   1.209   1.142   1.839 -0.4426 -0.1614  0.3734
10437TIP3    H255507   1.310   1.050   1.774 -1.7833 -0.4146 -1.4043
10438TIP3   OH255508   2.182   4.259   0.539 -0.3186  0.1963  0.2533
10438TIP3    H155509   2.090   4.285   0.536 -0.2146  0.6463  0.7278
10438TIP3    H255510   2.229   4.340   0.560  0.1520 -0.1013  0.3756
10439TIP3   OH255511   3.311   3.063   2.735  0.1606  0.8510 -0.5968
10439TIP3    H155512   3.359   3.069   2.817  1.0151  0.9695 -1.0880
10439TIP3    H255513   3.252   2.988   2.747  0.9704  0.2554 -0.2178
   7.68049   7.68049  30.00000
