Title
55513
    1DOPE     N    1   3.867   3.888   6.877
    1DOPE   HN1    2   3.944   3.833   6.920
    1DOPE   HN2    3   3.908   3.966   6.821
    1DOPE   HN3    4   3.809   3.927   6.954
    1DOPE   C12    5   3.785   3.792   6.796
    1DOPE  H12A    6   3.800   3.815   6.689
    1DOPE  H12B    7   3.678   3.808   6.823
    1DOPE   C11    8   3.825   3.646   6.826
    1DOPE  H11A    9   3.926   3.627   6.785
    1DOPE  H11B   10   3.755   3.579   6.772
    1DOPE     P   11   3.943   3.609   7.059
    1DOPE   O13   12   4.001   3.473   7.051
    1DOPE   O14   13   3.906   3.661   7.192
    1DOPE   O11   14   4.035   3.716   6.987
    1DOPE   O12   15   3.815   3.618   6.966
    1DOPE    C1   16   4.175   3.725   7.013
    1DOPE    HA   17   4.214   3.641   7.075
    1DOPE    HB   18   4.195   3.818   7.070
    1DOPE    C2   19   4.261   3.732   6.883
    1DOPE    HS   20   4.362   3.765   6.916
    1DOPE   O21   21   4.202   3.827   6.791
    1DOPE   C21   22   4.287   3.866   6.697
    1DOPE   O22   23   4.403   3.833   6.688
    1DOPE   C22   24   4.217   3.964   6.602
    1DOPE   H2R   25   4.142   4.021   6.662
    1DOPE   H2S   26   4.163   3.906   6.525
    1DOPE    C3   27   4.280   3.591   6.818
    1DOPE    HX   28   4.321   3.525   6.897
    1DOPE    HY   29   4.357   3.598   6.738
    1DOPE   O31   30   4.156   3.538   6.765
    1DOPE   C31   31   4.167   3.412   6.724
    1DOPE   O32   32   4.269   3.344   6.729
    1DOPE   C32   33   4.033   3.361   6.670
    1DOPE   H2X   34   4.034   3.251   6.685
    1DOPE   H2Y   35   3.951   3.404   6.732
    1DOPE   C23   36   4.316   4.064   6.537
    1DOPE   H3R   37   4.387   4.100   6.615
    1DOPE   H3S   38   4.260   4.153   6.500
    1DOPE   C24   39   4.396   4.007   6.419
    1DOPE   H4R   40   4.435   3.907   6.447
    1DOPE   H4S   41   4.484   4.072   6.399
    1DOPE   C25   42   4.314   3.997   6.289
    1DOPE   H5R   43   4.286   4.100   6.258
    1DOPE   H5S   44   4.219   3.942   6.310
    1DOPE   C26   45   4.387   3.928   6.173
    1DOPE   H6R   46   4.479   3.985   6.149
    1DOPE   H6S   47   4.322   3.932   6.083
    1DOPE   C27   48   4.425   3.781   6.199
    1DOPE   H7R   49   4.499   3.776   6.281
    1DOPE   H7S   50   4.474   3.741   6.108
    1DOPE   C28   51   4.303   3.692   6.232
    1DOPE   H8R   52   4.230   3.701   6.150
    1DOPE   H8S   53   4.254   3.731   6.323
    1DOPE   C29   54   4.343   3.549   6.258
    1DOPE   H9R   55   4.398   3.533   6.352
    1DOPE  C210   56   4.321   3.442   6.179
    1DOPE  H10R   57   4.356   3.344   6.212
    1DOPE  C211   58   4.251   3.441   6.045
    1DOPE  H11R   59   4.226   3.544   6.011
    1DOPE  H11S   60   4.156   3.385   6.050
    1DOPE  C212   61   4.340   3.378   5.936
    1DOPE  H12R   62   4.434   3.437   5.927
    1DOPE  H12S   63   4.286   3.388   5.839
    1DOPE  C213   64   4.374   3.230   5.958
    1DOPE  H13R   65   4.280   3.180   5.987
    1DOPE  H13S   66   4.445   3.218   6.042
    1DOPE  C214   67   4.428   3.160   5.832
    1DOPE  H14R   68   4.391   3.214   5.742
    1DOPE  H14S   69   4.387   3.057   5.826
    1DOPE  C215   70   4.582   3.150   5.826
    1DOPE  H15R   71   4.612   3.046   5.854
    1DOPE  H15S   72   4.626   3.218   5.902
    1DOPE  C216   73   4.641   3.185   5.689
    1DOPE  H16R   74   4.620   3.293   5.668
    1DOPE  H16S   75   4.590   3.126   5.610
    1DOPE  C217   76   4.792   3.161   5.681
    1DOPE  H17R   77   4.810   3.053   5.659
    1DOPE  H17S   78   4.837   3.182   5.781
    1DOPE  C218   79   4.867   3.248   5.579
    1DOPE  H18R   80   4.876   3.352   5.616
    1DOPE  H18S   81   4.814   3.252   5.481
    1DOPE  H18T   82   4.969   3.208   5.562
    1DOPE   C33   83   4.013   3.393   6.520
    1DOPE   H3X   84   3.926   3.335   6.484
    1DOPE   H3Y   85   4.101   3.358   6.462
    1DOPE   C34   86   3.987   3.541   6.491
    1DOPE   H4X   87   3.899   3.575   6.551
    1DOPE   H4Y   88   4.075   3.601   6.523
    1DOPE   C35   89   3.959   3.568   6.343
    1DOPE   H5X   90   3.870   3.509   6.311
    1DOPE   H5Y   91   4.045   3.534   6.283
    1DOPE   C36   92   3.933   3.717   6.313
    1DOPE   H6X   93   4.021   3.776   6.345
    1DOPE   H6Y   94   3.845   3.751   6.371
    1DOPE   C37   95   3.906   3.742   6.163
    1DOPE   H7X   96   3.995   3.712   6.103
    1DOPE   H7Y   97   3.822   3.676   6.132
    1DOPE   C38   98   3.867   3.887   6.130
    1DOPE   H8X   99   3.783   3.916   6.197
    1DOPE   H8Y  100   3.826   3.887   6.026
    1DOPE   C39  101   3.980   3.986   6.146
    1DOPE   H9X  102   4.023   3.989   6.247
    1DOPE  C310  103   4.032   4.068   6.052
    1DOPE  H10X  104   4.116   4.133   6.080
    1DOPE  C311  105   3.989   4.082   5.908
    1DOPE  H11X  106   3.896   4.024   5.888
    1DOPE  H11Y  107   3.965   4.188   5.887
    1DOPE  C312  108   4.096   4.036   5.807
    1DOPE  H12X  109   4.044   4.015   5.711
    1DOPE  H12Y  110   4.142   3.941   5.840
    1DOPE  C313  111   4.204   4.141   5.778
    1DOPE  H13X  112   4.155   4.234   5.741
    1DOPE  H13Y  113   4.259   4.167   5.872
    1DOPE  C314  114   4.305   4.092   5.672
    1DOPE  H14X  115   4.248   4.046   5.589
    1DOPE  H14Y  116   4.368   4.013   5.717
    1DOPE  C315  117   4.393   4.203   5.611
    1DOPE  H15X  118   4.329   4.277   5.559
    1DOPE  H15Y  119   4.459   4.157   5.535
    1DOPE  C316  120   4.481   4.276   5.714
    1DOPE  H16X  121   4.539   4.203   5.774
    1DOPE  H16Y  122   4.415   4.331   5.783
    1DOPE  C317  123   4.579   4.377   5.650
    1DOPE  H17X  124   4.546   4.399   5.546
    1DOPE  H17Y  125   4.574   4.472   5.707
    1DOPE  C318  126   4.725   4.331   5.647
    1DOPE  H18X  127   4.789   4.408   5.600
    1DOPE  H18Y  128   4.762   4.313   5.750
    1DOPE  H18Z  129   4.736   4.237   5.589
    2DOPE     N  130   4.612   4.469   6.970
    2DOPE   HN1  131   4.560   4.552   7.006
    2DOPE   HN2  132   4.707   4.472   7.012
    2DOPE   HN3  133   4.625   4.476   6.867
    2DOPE   C12  134   4.539   4.344   7.010
    2DOPE  H12A  135   4.436   4.348   6.968
    2DOPE  H12B  136   4.533   4.343   7.121
    2DOPE   C11  137   4.613   4.219   6.961
    2DOPE  H11A  138   4.612   4.218   6.850
    2DOPE  H11B  139   4.561   4.129   6.997
    2DOPE     P  140   4.852   4.121   6.954
    2DOPE   O13  141   4.798   3.983   6.965
    2DOPE   O14  142   4.982   4.148   7.019
    2DOPE   O11  143   4.857   4.167   6.802
    2DOPE   O12  144   4.746   4.222   7.013
    2DOPE    C1  145   4.913   4.296   6.775
    2DOPE    HA  146   5.019   4.301   6.809
    2DOPE    HB  147   4.859   4.376   6.830
    2DOPE    C2  148   4.915   4.334   6.623
    2DOPE    HS  149   4.949   4.439   6.615
    2DOPE   O21  150   4.785   4.321   6.561
    2DOPE   C21  151   4.683   4.388   6.604
    2DOPE   O22  152   4.678   4.463   6.701
    2DOPE   C22  153   4.562   4.355   6.515
    2DOPE   H2R  154   4.509   4.272   6.566
    2DOPE   H2S  155   4.599   4.318   6.417
    2DOPE    C3  156   5.016   4.245   6.543
    2DOPE    HX  157   5.105   4.228   6.608
    2DOPE    HY  158   5.053   4.303   6.456
    2DOPE   O31  159   4.963   4.116   6.504
    2DOPE   C31  160   4.900   4.116   6.386
    2DOPE   O32  161   4.898   4.210   6.308
    2DOPE   C32  162   4.824   3.984   6.367
    2DOPE   H2X  163   4.860   3.912   6.444
    2DOPE   H2Y  164   4.717   4.006   6.388
    2DOPE   C23  165   4.465   4.474   6.494
    2DOPE   H3R  166   4.457   4.535   6.587
    2DOPE   H3S  167   4.363   4.433   6.474
    2DOPE   C24  168   4.502   4.565   6.376
    2DOPE   H4R  169   4.610   4.589   6.378
    2DOPE   H4S  170   4.447   4.661   6.386
    2DOPE   C25  171   4.465   4.505   6.239
    2DOPE   H5R  172   4.356   4.483   6.237
    2DOPE   H5S  173   4.518   4.408   6.226
    2DOPE   C26  174   4.500   4.596   6.120
    2DOPE   H6R  175   4.609   4.613   6.122
    2DOPE   H6S  176   4.450   4.695   6.131
    2DOPE   C27  177   4.461   4.534   5.985
    2DOPE   H7R  178   4.488   4.426   5.988
    2DOPE   H7S  179   4.524   4.579   5.905
    2DOPE   C28  180   4.312   4.548   5.948
    2DOPE   H8R  181   4.252   4.548   6.042
    2DOPE   H8S  182   4.281   4.456   5.894
    2DOPE   C29  183   4.282   4.671   5.866
    2DOPE   H9R  184   4.269   4.763   5.925
    2DOPE  C210  185   4.269   4.678   5.732
    2DOPE  H10R  186   4.249   4.775   5.685
    2DOPE  C211  187   4.282   4.563   5.636
    2DOPE  H11R  188   4.255   4.467   5.685
    2DOPE  H11S  189   4.388   4.554   5.603
    2DOPE  C212  190   4.195   4.573   5.509
    2DOPE  H12R  191   4.098   4.622   5.534
    2DOPE  H12S  192   4.171   4.471   5.474
    2DOPE  C213  193   4.261   4.647   5.391
    2DOPE  H13R  194   4.302   4.744   5.426
    2DOPE  H13S  195   4.183   4.669   5.315
    2DOPE  C214  196   4.372   4.565   5.322
    2DOPE  H14R  197   4.331   4.465   5.296
    2DOPE  H14S  198   4.456   4.550   5.393
    2DOPE  C215  199   4.425   4.633   5.195
    2DOPE  H15R  200   4.462   4.734   5.222
    2DOPE  H15S  201   4.343   4.646   5.122
    2DOPE  C216  202   4.541   4.557   5.127
    2DOPE  H16R  203   4.622   4.541   5.201
    2DOPE  H16S  204   4.582   4.621   5.046
    2DOPE  C217  205   4.501   4.421   5.067
    2DOPE  H17R  206   4.416   4.437   4.997
    2DOPE  H17S  207   4.466   4.354   5.147
    2DOPE  C218  208   4.617   4.354   4.991
    2DOPE  H18R  209   4.586   4.255   4.951
    2DOPE  H18S  210   4.703   4.338   5.059
    2DOPE  H18T  211   4.650   4.417   4.906
    2DOPE   C33  212   4.838   3.920   6.226
    2DOPE   H3X  213   4.776   3.827   6.226
    2DOPE   H3Y  214   4.942   3.889   6.207
    2DOPE   C34  215   4.788   4.009   6.111
    2DOPE   H4X  216   4.690   4.053   6.140
    2DOPE   H4Y  217   4.859   4.093   6.094
    2DOPE   C35  218   4.770   3.932   5.979
    2DOPE   H5X  219   4.706   3.844   6.000
    2DOPE   H5Y  220   4.868   3.895   5.943
    2DOPE   C36  221   4.702   4.016   5.870
    2DOPE   H6X  222   4.762   4.107   5.850
    2DOPE   H6Y  223   4.604   4.049   5.912
    2DOPE   C37  224   4.675   3.941   5.738
    2DOPE   H7X  225   4.638   3.839   5.762
    2DOPE   H7Y  226   4.595   3.994   5.683
    2DOPE   C38  227   4.798   3.934   5.645
    2DOPE   H8X  228   4.884   3.896   5.704
    2DOPE   H8Y  229   4.824   4.038   5.615
    2DOPE   C39  230   4.780   3.849   5.522
    2DOPE   H9X  231   4.828   3.750   5.528
    2DOPE  C310  232   4.714   3.880   5.409
    2DOPE  H10X  233   4.709   3.805   5.329
    2DOPE  C311  234   4.642   4.009   5.378
    2DOPE  H11X  235   4.533   3.991   5.371
    2DOPE  H11Y  236   4.656   4.083   5.460
    2DOPE  C312  237   4.690   4.076   5.247
    2DOPE  H12X  238   4.799   4.095   5.255
    2DOPE  H12Y  239   4.640   4.174   5.237
    2DOPE  C313  240   4.663   3.994   5.119
    2DOPE  H13X  241   4.716   4.043   5.035
    2DOPE  H13Y  242   4.705   3.892   5.129
    2DOPE  C314  243   4.514   3.985   5.080
    2DOPE  H14X  244   4.477   4.087   5.058
    2DOPE  H14Y  245   4.454   3.946   5.165
    2DOPE  C315  246   4.492   3.894   4.958
    2DOPE  H15X  247   4.466   3.792   4.994
    2DOPE  H15Y  248   4.588   3.884   4.902
    2DOPE  C316  249   4.383   3.943   4.860
    2DOPE  H16X  250   4.287   3.955   4.916
    2DOPE  H16Y  251   4.368   3.863   4.784
    2DOPE  C317  252   4.415   4.073   4.785
    2DOPE  H17X  253   4.333   4.091   4.712
    2DOPE  H17Y  254   4.412   4.158   4.857
    2DOPE  C318  255   4.549   4.074   4.711
    2DOPE  H18X  256   4.561   4.168   4.653
    2DOPE  H18Y  257   4.634   4.067   4.783
    2DOPE  H18Z  258   4.555   3.988   4.641
    3DOPE     N  259   3.612   5.228   6.622
    3DOPE   HN1  260   3.706   5.235   6.665
    3DOPE   HN2  261   3.610   5.137   6.571
    3DOPE   HN3  262   3.604   5.307   6.554
    3DOPE   C12  263   3.507   5.234   6.729
    3DOPE  H12A  264   3.407   5.219   6.683
    3DOPE  H12B  265   3.511   5.335   6.775
    3DOPE   C11  266   3.533   5.127   6.837
    3DOPE  H11A  267   3.634   5.143   6.879
    3DOPE  H11B  268   3.533   5.025   6.791
    3DOPE     P  269   3.308   5.050   6.949
    3DOPE   O13  270   3.245   5.066   7.081
    3DOPE   O14  271   3.347   4.912   6.912
    3DOPE   O11  272   3.217   5.113   6.836
    3DOPE   O12  273   3.438   5.140   6.943
    3DOPE    C1  274   3.107   5.040   6.781
    3DOPE    HA  275   3.037   5.113   6.734
    3DOPE    HB  276   3.050   4.984   6.858
    3DOPE    C2  277   3.150   4.942   6.668
    3DOPE    HS  278   3.210   4.862   6.717
    3DOPE   O21  279   3.230   5.015   6.573
    3DOPE   C21  280   3.312   4.938   6.503
    3DOPE   O22  281   3.325   4.818   6.515
    3DOPE   C22  282   3.393   5.028   6.409
    3DOPE   H2R  283   3.396   5.130   6.452
    3DOPE   H2S  284   3.338   5.033   6.313
    3DOPE    C3  285   3.028   4.874   6.599
    3DOPE    HX  286   2.971   4.822   6.679
    3DOPE    HY  287   3.063   4.795   6.530
    3DOPE   O31  288   2.941   4.971   6.536
    3DOPE   C31  289   2.966   4.992   6.406
    3DOPE   O32  290   3.046   4.930   6.339
    3DOPE   C32  291   2.881   5.109   6.356
    3DOPE   H2X  292   2.779   5.069   6.337
    3DOPE   H2Y  293   2.876   5.187   6.435
    3DOPE   C23  294   3.536   4.974   6.386
    3DOPE   H3R  295   3.578   4.930   6.479
    3DOPE   H3S  296   3.603   5.057   6.354
    3DOPE   C24  297   3.539   4.869   6.274
    3DOPE   H4R  298   3.456   4.797   6.289
    3DOPE   H4S  299   3.634   4.810   6.282
    3DOPE   C25  300   3.532   4.930   6.134
    3DOPE   H5R  301   3.635   4.933   6.091
    3DOPE   H5S  302   3.498   5.036   6.140
    3DOPE   C26  303   3.439   4.855   6.039
    3DOPE   H6R  304   3.458   4.745   6.044
    3DOPE   H6S  305   3.463   4.888   5.936
    3DOPE   C27  306   3.290   4.881   6.064
    3DOPE   H7R  307   3.275   4.991   6.069
    3DOPE   H7S  308   3.259   4.839   6.162
    3DOPE   C28  309   3.202   4.824   5.951
    3DOPE   H8R  310   3.210   4.713   5.952
    3DOPE   H8S  311   3.245   4.858   5.854
    3DOPE   C29  312   3.058   4.866   5.965
    3DOPE   H9R  313   3.008   4.828   6.056
    3DOPE  C210  314   2.989   4.944   5.880
    3DOPE  H10R  315   2.883   4.967   5.902
    3DOPE  C211  316   3.043   5.006   5.754
    3DOPE  H11R  317   3.111   4.936   5.701
    3DOPE  H11S  318   3.104   5.096   5.780
    3DOPE  C212  319   2.933   5.050   5.655
    3DOPE  H12R  320   2.981   5.103   5.570
    3DOPE  H12S  321   2.866   5.124   5.706
    3DOPE  C213  322   2.847   4.936   5.598
    3DOPE  H13R  323   2.766   4.981   5.537
    3DOPE  H13S  324   2.800   4.879   5.680
    3DOPE  C214  325   2.925   4.839   5.508
    3DOPE  H14R  326   3.002   4.786   5.567
    3DOPE  H14S  327   2.977   4.897   5.428
    3DOPE  C215  328   2.833   4.735   5.441
    3DOPE  H15R  329   2.755   4.789   5.384
    3DOPE  H15S  330   2.782   4.676   5.520
    3DOPE  C216  331   2.908   4.639   5.348
    3DOPE  H16R  332   2.987   4.587   5.407
    3DOPE  H16S  333   2.958   4.697   5.268
    3DOPE  C217  334   2.817   4.533   5.284
    3DOPE  H17R  335   2.768   4.474   5.364
    3DOPE  H17S  336   2.881   4.463   5.226
    3DOPE  C218  337   2.710   4.590   5.189
    3DOPE  H18R  338   2.758   4.648   5.108
    3DOPE  H18S  339   2.640   4.656   5.244
    3DOPE  H18T  340   2.651   4.508   5.143
    3DOPE   C33  341   2.938   5.170   6.226
    3DOPE   H3X  342   2.865   5.242   6.182
    3DOPE   H3Y  343   2.953   5.090   6.151
    3DOPE   C34  344   3.071   5.244   6.248
    3DOPE   H4X  345   3.054   5.342   6.298
    3DOPE   H4Y  346   3.134   5.182   6.316
    3DOPE   C35  347   3.151   5.264   6.118
    3DOPE   H5X  348   3.102   5.339   6.053
    3DOPE   H5Y  349   3.152   5.168   6.063
    3DOPE   C36  350   3.297   5.304   6.146
    3DOPE   H6X  351   3.336   5.243   6.230
    3DOPE   H6Y  352   3.300   5.411   6.178
    3DOPE   C37  353   3.391   5.283   6.027
    3DOPE   H7X  354   3.389   5.176   5.998
    3DOPE   H7Y  355   3.352   5.341   5.940
    3DOPE   C38  356   3.535   5.326   6.059
    3DOPE   H8X  357   3.563   5.270   6.152
    3DOPE   H8Y  358   3.533   5.433   6.088
    3DOPE   C39  359   3.647   5.306   5.960
    3DOPE   H9X  360   3.745   5.322   6.006
    3DOPE  C310  361   3.646   5.275   5.828
    3DOPE  H10X  362   3.744   5.265   5.779
    3DOPE  C311  363   3.532   5.251   5.733
    3DOPE  H11X  364   3.443   5.312   5.759
    3DOPE  H11Y  365   3.562   5.284   5.632
    3DOPE  C312  366   3.489   5.103   5.720
    3DOPE  H12X  367   3.414   5.097   5.638
    3DOPE  H12Y  368   3.437   5.071   5.813
    3DOPE  C313  369   3.604   5.006   5.692
    3DOPE  H13X  370   3.667   5.045   5.609
    3DOPE  H13Y  371   3.669   5.001   5.782
    3DOPE  C314  372   3.558   4.863   5.657
    3DOPE  H14X  373   3.489   4.827   5.736
    3DOPE  H14Y  374   3.647   4.796   5.659
    3DOPE  C315  375   3.489   4.848   5.521
    3DOPE  H15X  376   3.398   4.912   5.515
    3DOPE  H15Y  377   3.454   4.742   5.514
    3DOPE  C316  378   3.581   4.876   5.401
    3DOPE  H16X  379   3.563   4.799   5.323
    3DOPE  H16Y  380   3.687   4.865   5.434
    3DOPE  C317  381   3.561   5.014   5.337
    3DOPE  H17X  382   3.458   5.020   5.298
    3DOPE  H17Y  383   3.572   5.092   5.415
    3DOPE  C318  384   3.661   5.041   5.225
    3DOPE  H18X  385   3.765   5.033   5.262
    3DOPE  H18Y  386   3.648   4.967   5.142
    3DOPE  H18Z  387   3.647   5.143   5.183
    4DOPE     N  388   4.319   2.564   6.855
    4DOPE   HN1  389   4.311   2.664   6.828
    4DOPE   HN2  390   4.382   2.513   6.789
    4DOPE   HN3  391   4.223   2.527   6.845
    4DOPE   C12  392   4.371   2.550   6.996
    4DOPE  H12A  393   4.373   2.441   7.018
    4DOPE  H12B  394   4.299   2.599   7.064
    4DOPE   C11  395   4.510   2.613   7.013
    4DOPE  H11A  396   4.502   2.723   6.995
    4DOPE  H11B  397   4.582   2.574   6.937
    4DOPE     P  398   4.606   2.448   7.192
    4DOPE   O13  399   4.489   2.389   7.262
    4DOPE   O14  400   4.730   2.456   7.270
    4DOPE   O11  401   4.631   2.373   7.057
    4DOPE   O12  402   4.560   2.593   7.145
    4DOPE    C1  403   4.591   2.238   7.037
    4DOPE    HA  404   4.482   2.226   7.053
    4DOPE    HB  405   4.644   2.169   7.107
    4DOPE    C2  406   4.622   2.195   6.891
    4DOPE    HS  407   4.733   2.187   6.884
    4DOPE   O21  408   4.568   2.297   6.805
    4DOPE   C21  409   4.645   2.327   6.701
    4DOPE   O22  410   4.742   2.266   6.663
    4DOPE   C22  411   4.590   2.455   6.637
    4DOPE   H2R  412   4.570   2.527   6.720
    4DOPE   H2S  413   4.494   2.431   6.585
    4DOPE    C3  414   4.563   2.053   6.861
    4DOPE    HX  415   4.452   2.060   6.857
    4DOPE    HY  416   4.587   1.990   6.949
    4DOPE   O31  417   4.620   1.990   6.744
    4DOPE   C31  418   4.564   2.026   6.628
    4DOPE   O32  419   4.470   2.102   6.617
    4DOPE   C32  420   4.632   1.959   6.510
    4DOPE   H2X  421   4.737   1.995   6.507
    4DOPE   H2Y  422   4.631   1.849   6.524
    4DOPE   C23  423   4.689   2.522   6.540
    4DOPE   H3R  424   4.794   2.512   6.575
    4DOPE   H3S  425   4.666   2.631   6.536
    4DOPE   C24  426   4.677   2.471   6.396
    4DOPE   H4R  427   4.573   2.486   6.361
    4DOPE   H4S  428   4.699   2.362   6.391
    4DOPE   C25  429   4.772   2.547   6.302
    4DOPE   H5R  430   4.876   2.510   6.315
    4DOPE   H5S  431   4.770   2.654   6.331
    4DOPE   C26  432   4.730   2.539   6.154
    4DOPE   H6R  433   4.628   2.580   6.145
    4DOPE   H6S  434   4.727   2.433   6.120
    4DOPE   C27  435   4.826   2.620   6.065
    4DOPE   H7R  436   4.920   2.562   6.053
    4DOPE   H7S  437   4.852   2.715   6.116
    4DOPE   C28  438   4.768   2.651   5.926
    4DOPE   H8R  439   4.734   2.556   5.880
    4DOPE   H8S  440   4.851   2.689   5.863
    4DOPE   C29  441   4.658   2.755   5.931
    4DOPE   H9R  442   4.687   2.848   5.982
    4DOPE  C210  443   4.534   2.745   5.880
    4DOPE  H10R  444   4.467   2.832   5.889
    4DOPE  C211  445   4.475   2.627   5.808
    4DOPE  H11R  446   4.367   2.618   5.832
    4DOPE  H11S  447   4.522   2.532   5.841
    4DOPE  C212  448   4.490   2.636   5.654
    4DOPE  H12R  449   4.447   2.731   5.617
    4DOPE  H12S  450   4.431   2.553   5.609
    4DOPE  C213  451   4.636   2.623   5.608
    4DOPE  H13R  452   4.678   2.528   5.647
    4DOPE  H13S  453   4.695   2.706   5.652
    4DOPE  C214  454   4.656   2.628   5.456
    4DOPE  H14R  455   4.765   2.620   5.437
    4DOPE  H14S  456   4.621   2.726   5.417
    4DOPE  C215  457   4.586   2.514   5.381
    4DOPE  H15R  458   4.480   2.544   5.362
    4DOPE  H15S  459   4.584   2.424   5.445
    4DOPE  C216  460   4.654   2.478   5.248
    4DOPE  H16R  461   4.590   2.405   5.193
    4DOPE  H16S  462   4.750   2.427   5.269
    4DOPE  C217  463   4.683   2.598   5.158
    4DOPE  H17R  464   4.768   2.655   5.200
    4DOPE  H17S  465   4.594   2.665   5.157
    4DOPE  C218  466   4.716   2.558   5.014
    4DOPE  H18R  467   4.626   2.517   4.965
    4DOPE  H18S  468   4.796   2.481   5.013
    4DOPE  H18T  469   4.751   2.646   4.956
    4DOPE   C33  470   4.558   2.000   6.380
    4DOPE   H3X  471   4.552   2.110   6.377
    4DOPE   H3Y  472   4.455   1.960   6.382
    4DOPE   C34  473   4.627   1.953   6.251
    4DOPE   H4X  474   4.728   1.999   6.246
    4DOPE   H4Y  475   4.640   1.843   6.253
    4DOPE   C35  476   4.549   1.992   6.124
    4DOPE   H5X  477   4.458   1.928   6.117
    4DOPE   H5Y  478   4.613   1.969   6.035
    4DOPE   C36  479   4.506   2.139   6.119
    4DOPE   H6X  480   4.593   2.205   6.140
    4DOPE   H6Y  481   4.431   2.157   6.200
    4DOPE   C37  482   4.442   2.181   5.986
    4DOPE   H7X  483   4.371   2.102   5.954
    4DOPE   H7Y  484   4.383   2.274   6.004
    4DOPE   C38  485   4.545   2.209   5.876
    4DOPE   H8X  486   4.610   2.119   5.867
    4DOPE   H8Y  487   4.611   2.293   5.910
    4DOPE   C39  488   4.479   2.246   5.746
    4DOPE   H9X  489   4.397   2.318   5.755
    4DOPE  C310  490   4.511   2.199   5.623
    4DOPE  H10X  491   4.453   2.234   5.537
    4DOPE  C311  492   4.621   2.102   5.591
    4DOPE  H11X  493   4.686   2.082   5.679
    4DOPE  H11Y  494   4.578   2.004   5.561
    4DOPE  C312  495   4.714   2.152   5.479
    4DOPE  H12X  496   4.806   2.089   5.480
    4DOPE  H12Y  497   4.746   2.256   5.500
    4DOPE  C313  498   4.656   2.143   5.337
    4DOPE  H13X  499   4.557   2.194   5.334
    4DOPE  H13Y  500   4.724   2.196   5.267
    4DOPE  C314  501   4.642   1.998   5.287
    4DOPE  H14X  502   4.575   1.941   5.355
    4DOPE  H14Y  503   4.743   1.950   5.291
    4DOPE  C315  504   4.588   1.986   5.144
    4DOPE  H15X  505   4.579   1.879   5.120
    4DOPE  H15Y  506   4.660   2.032   5.073
    4DOPE  C316  507   4.451   2.054   5.128
    4DOPE  H16X  508   4.465   2.160   5.100
    4DOPE  H16Y  509   4.398   2.052   5.226
    4DOPE  C317  510   4.360   1.984   5.026
    4DOPE  H17X  511   4.402   1.996   4.924
    4DOPE  H17Y  512   4.357   1.876   5.049
    4DOPE  C318  513   4.217   2.040   5.029
    4DOPE  H18X  514   4.149   1.976   4.968
    4DOPE  H18Y  515   4.178   2.041   5.134
    4DOPE  H18Z  516   4.214   2.143   4.990
    5DOPE     N  517   1.702   4.318   7.023
    5DOPE   HN1  518   1.633   4.337   7.099
    5DOPE   HN2  519   1.731   4.410   6.984
    5DOPE   HN3  520   1.656   4.264   6.947
    5DOPE   C12  521   1.816   4.240   7.081
    5DOPE  H12A  522   1.794   4.225   7.189
    5DOPE  H12B  523   1.908   4.302   7.071
    5DOPE   C11  524   1.833   4.102   7.015
    5DOPE  H11A  525   1.872   4.112   6.911
    5DOPE  H11B  526   1.734   4.052   7.006
    5DOPE     P  527   2.064   4.060   7.135
    5DOPE   O13  528   2.150   3.940   7.145
    5DOPE   O14  529   2.047   4.143   7.257
    5DOPE   O11  530   2.111   4.153   7.016
    5DOPE   O12  531   1.918   4.016   7.091
    5DOPE    C1  532   2.160   4.096   6.894
    5DOPE    HA  533   2.107   4.003   6.866
    5DOPE    HB  534   2.268   4.072   6.905
    5DOPE    C2  535   2.144   4.196   6.777
    5DOPE    HS  536   2.197   4.289   6.806
    5DOPE   O21  537   2.003   4.225   6.763
    5DOPE   C21  538   1.964   4.297   6.661
    5DOPE   O22  539   2.034   4.363   6.587
    5DOPE   C22  540   1.811   4.290   6.654
    5DOPE   H2R  541   1.776   4.392   6.678
    5DOPE   H2S  542   1.773   4.220   6.732
    5DOPE    C3  543   2.210   4.143   6.646
    5DOPE    HX  544   2.304   4.090   6.672
    5DOPE    HY  545   2.239   4.233   6.587
    5DOPE   O31  546   2.120   4.053   6.575
    5DOPE   C31  547   2.121   4.067   6.442
    5DOPE   O32  548   2.192   4.144   6.380
    5DOPE   C32  549   2.018   3.971   6.383
    5DOPE   H2X  550   2.051   3.868   6.410
    5DOPE   H2Y  551   1.920   3.990   6.431
    5DOPE   C23  552   1.754   4.247   6.517
    5DOPE   H3R  553   1.760   4.136   6.508
    5DOPE   H3S  554   1.816   4.288   6.434
    5DOPE   C24  555   1.609   4.293   6.497
    5DOPE   H4R  556   1.606   4.403   6.480
    5DOPE   H4S  557   1.553   4.270   6.590
    5DOPE   C25  558   1.538   4.222   6.381
    5DOPE   H5R  559   1.428   4.240   6.386
    5DOPE   H5S  560   1.555   4.114   6.395
    5DOPE   C26  561   1.587   4.261   6.240
    5DOPE   H6R  562   1.562   4.178   6.171
    5DOPE   H6S  563   1.697   4.274   6.240
    5DOPE   C27  564   1.522   4.389   6.183
    5DOPE   H7R  565   1.543   4.473   6.253
    5DOPE   H7S  566   1.412   4.376   6.181
    5DOPE   C28  567   1.573   4.427   6.043
    5DOPE   H8R  568   1.683   4.417   6.041
    5DOPE   H8S  569   1.552   4.534   6.026
    5DOPE   C29  570   1.507   4.349   5.931
    5DOPE   H9R  571   1.415   4.395   5.892
    5DOPE  C210  572   1.549   4.233   5.877
    5DOPE  H10R  573   1.489   4.188   5.796
    5DOPE  C211  574   1.672   4.154   5.916
    5DOPE  H11R  575   1.641   4.059   5.965
    5DOPE  H11S  576   1.733   4.209   5.990
    5DOPE  C212  577   1.764   4.117   5.798
    5DOPE  H12R  578   1.848   4.057   5.838
    5DOPE  H12S  579   1.807   4.209   5.753
    5DOPE  C213  580   1.696   4.035   5.688
    5DOPE  H13R  581   1.622   4.101   5.637
    5DOPE  H13S  582   1.640   3.950   5.733
    5DOPE  C214  583   1.796   3.981   5.586
    5DOPE  H14R  584   1.858   3.903   5.635
    5DOPE  H14S  585   1.866   4.062   5.556
    5DOPE  C215  586   1.731   3.921   5.460
    5DOPE  H15R  587   1.669   3.834   5.490
    5DOPE  H15S  588   1.812   3.882   5.395
    5DOPE  C216  589   1.645   4.018   5.378
    5DOPE  H16R  590   1.558   4.051   5.441
    5DOPE  H16S  591   1.602   3.965   5.291
    5DOPE  C217  592   1.719   4.143   5.328
    5DOPE  H17R  593   1.782   4.186   5.410
    5DOPE  H17S  594   1.644   4.220   5.303
    5DOPE  C218  595   1.806   4.118   5.204
    5DOPE  H18R  596   1.855   4.212   5.171
    5DOPE  H18S  597   1.743   4.079   5.121
    5DOPE  H18T  598   1.885   4.043   5.226
    5DOPE   C33  599   2.007   3.978   6.229
    5DOPE   H3X  600   1.964   3.881   6.196
    5DOPE   H3Y  601   2.107   3.985   6.182
    5DOPE   C34  602   1.912   4.088   6.178
    5DOPE   H4X  603   1.878   4.057   6.077
    5DOPE   H4Y  604   1.821   4.090   6.242
    5DOPE   C35  605   1.971   4.230   6.166
    5DOPE   H5X  606   1.994   4.269   6.268
    5DOPE   H5Y  607   1.895   4.297   6.122
    5DOPE   C36  608   2.099   4.242   6.081
    5DOPE   H6X  609   2.183   4.195   6.137
    5DOPE   H6Y  610   2.125   4.349   6.068
    5DOPE   C37  611   2.091   4.173   5.944
    5DOPE   H7X  612   2.064   4.067   5.960
    5DOPE   H7Y  613   2.009   4.219   5.883
    5DOPE   C38  614   2.225   4.174   5.868
    5DOPE   H8X  615   2.239   4.070   5.832
    5DOPE   H8Y  616   2.306   4.193   5.941
    5DOPE   C39  617   2.234   4.271   5.754
    5DOPE   H9X  618   2.204   4.374   5.777
    5DOPE  C310  619   2.275   4.241   5.629
    5DOPE  H10X  620   2.274   4.320   5.553
    5DOPE  C311  621   2.320   4.105   5.580
    5DOPE  H11X  622   2.400   4.117   5.504
    5DOPE  H11Y  623   2.366   4.046   5.663
    5DOPE  C312  624   2.206   4.020   5.521
    5DOPE  H12X  625   2.128   4.005   5.598
    5DOPE  H12Y  626   2.246   3.919   5.495
    5DOPE  C313  627   2.140   4.079   5.395
    5DOPE  H13X  628   2.056   4.012   5.365
    5DOPE  H13Y  629   2.096   4.178   5.419
    5DOPE  C314  630   2.236   4.094   5.276
    5DOPE  H14X  631   2.277   3.994   5.248
    5DOPE  H14Y  632   2.321   4.158   5.306
    5DOPE  C315  633   2.169   4.158   5.153
    5DOPE  H15X  634   2.115   4.249   5.187
    5DOPE  H15Y  635   2.094   4.089   5.110
    5DOPE  C316  636   2.271   4.199   5.046
    5DOPE  H16X  637   2.307   4.109   4.992
    5DOPE  H16Y  638   2.359   4.246   5.096
    5DOPE  C317  639   2.215   4.301   4.945
    5DOPE  H17X  640   2.182   4.391   5.000
    5DOPE  H17Y  641   2.297   4.333   4.877
    5DOPE  C318  642   2.100   4.247   4.860
    5DOPE  H18X  643   2.012   4.222   4.923
    5DOPE  H18Y  644   2.068   4.324   4.785
    5DOPE  H18Z  645   2.131   4.156   4.804
    6DOPE     N  646   1.819   5.295   7.029
    6DOPE   HN1  647   1.767   5.206   7.042
    6DOPE   HN2  648   1.805   5.358   7.110
    6DOPE   HN3  649   1.785   5.346   6.946
    6DOPE   C12  650   1.966   5.263   7.022
    6DOPE  H12A  651   2.000   5.241   7.125
    6DOPE  H12B  652   2.019   5.352   6.984
    6DOPE   C11  653   1.992   5.139   6.934
    6DOPE  H11A  654   2.102   5.121   6.937
    6DOPE  H11B  655   1.966   5.161   6.828
    6DOPE     P  656   1.974   4.881   6.958
    6DOPE   O13  657   2.104   4.873   7.030
    6DOPE   O14  658   1.975   4.854   6.813
    6DOPE   O11  659   1.875   4.782   7.031
    6DOPE   O12  660   1.916   5.028   6.983
    6DOPE    C1  661   1.749   4.823   7.085
    6DOPE    HA  662   1.748   4.931   7.112
    6DOPE    HB  663   1.731   4.769   7.180
    6DOPE    C2  664   1.627   4.793   6.993
    6DOPE    HS  665   1.574   4.704   7.034
    6DOPE   O21  666   1.665   4.773   6.856
    6DOPE   C21  667   1.689   4.652   6.815
    6DOPE   O22  668   1.691   4.550   6.884
    6DOPE   C22  669   1.691   4.652   6.662
    6DOPE   H2R  670   1.623   4.732   6.625
    6DOPE   H2S  671   1.649   4.554   6.630
    6DOPE    C3  672   1.527   4.912   6.997
    6DOPE    HX  673   1.504   4.933   7.104
    6DOPE    HY  674   1.431   4.881   6.950
    6DOPE   O31  675   1.583   5.030   6.935
    6DOPE   C31  676   1.566   5.033   6.803
    6DOPE   O32  677   1.491   4.962   6.739
    6DOPE   C32  678   1.654   5.144   6.746
    6DOPE   H2X  679   1.621   5.239   6.793
    6DOPE   H2Y  680   1.759   5.122   6.776
    6DOPE   C23  681   1.831   4.671   6.599
    6DOPE   H3R  682   1.910   4.630   6.666
    6DOPE   H3S  683   1.851   4.780   6.590
    6DOPE   C24  684   1.849   4.604   6.462
    6DOPE   H4R  685   1.854   4.494   6.478
    6DOPE   H4S  686   1.947   4.634   6.419
    6DOPE   C25  687   1.738   4.629   6.358
    6DOPE   H5R  688   1.638   4.618   6.404
    6DOPE   H5S  689   1.748   4.553   6.279
    6DOPE   C26  690   1.750   4.766   6.292
    6DOPE   H6R  691   1.845   4.771   6.236
    6DOPE   H6S  692   1.753   4.843   6.371
    6DOPE   C27  693   1.635   4.798   6.196
    6DOPE   H7R  694   1.542   4.809   6.255
    6DOPE   H7S  695   1.624   4.712   6.126
    6DOPE   C28  696   1.660   4.926   6.114
    6DOPE   H8R  697   1.761   4.921   6.068
    6DOPE   H8S  698   1.660   5.014   6.183
    6DOPE   C29  699   1.551   4.941   6.010
    6DOPE   H9R  700   1.449   4.933   6.051
    6DOPE  C210  701   1.565   4.961   5.878
    6DOPE  H10R  702   1.474   4.967   5.817
    6DOPE  C211  703   1.693   4.975   5.799
    6DOPE  H11R  704   1.780   4.935   5.855
    6DOPE  H11S  705   1.714   5.082   5.779
    6DOPE  C212  706   1.687   4.902   5.662
    6DOPE  H12R  707   1.661   4.795   5.677
    6DOPE  H12S  708   1.789   4.906   5.617
    6DOPE  C213  709   1.588   4.965   5.563
    6DOPE  H13R  710   1.607   5.075   5.558
    6DOPE  H13S  711   1.484   4.950   5.600
    6DOPE  C214  712   1.598   4.908   5.421
    6DOPE  H14R  713   1.576   4.799   5.423
    6DOPE  H14S  714   1.702   4.921   5.383
    6DOPE  C215  715   1.500   4.979   5.326
    6DOPE  H15R  716   1.519   5.088   5.334
    6DOPE  H15S  717   1.397   4.962   5.362
    6DOPE  C216  718   1.512   4.938   5.179
    6DOPE  H16R  719   1.616   4.954   5.144
    6DOPE  H16S  720   1.446   5.005   5.119
    6DOPE  C217  721   1.471   4.793   5.150
    6DOPE  H17R  722   1.372   4.773   5.197
    6DOPE  H17S  723   1.544   4.724   5.196
    6DOPE  C218  724   1.460   4.764   5.000
    6DOPE  H18R  725   1.424   4.660   4.982
    6DOPE  H18S  726   1.559   4.776   4.951
    6DOPE  H18T  727   1.389   4.834   4.952
    6DOPE   C33  728   1.644   5.157   6.593
    6DOPE   H3X  729   1.675   5.259   6.563
    6DOPE   H3Y  730   1.538   5.145   6.561
    6DOPE   C34  731   1.727   5.054   6.515
    6DOPE   H4X  732   1.692   4.952   6.542
    6DOPE   H4Y  733   1.704   5.069   6.407
    6DOPE   C35  734   1.879   5.062   6.533
    6DOPE   H5X  735   1.913   4.980   6.600
    6DOPE   H5Y  736   1.908   5.157   6.584
    6DOPE   C36  737   1.955   5.053   6.399
    6DOPE   H6X  738   1.934   5.143   6.337
    6DOPE   H6Y  739   1.915   4.966   6.343
    6DOPE   C37  740   2.106   5.034   6.414
    6DOPE   H7X  741   2.152   5.132   6.440
    6DOPE   H7Y  742   2.127   4.966   6.499
    6DOPE   C38  743   2.172   4.978   6.286
    6DOPE   H8X  744   2.282   4.986   6.298
    6DOPE   H8Y  745   2.144   5.043   6.200
    6DOPE   C39  746   2.135   4.834   6.263
    6DOPE   H9X  747   2.144   4.770   6.352
    6DOPE  C310  748   2.091   4.777   6.149
    6DOPE  H10X  749   2.068   4.670   6.149
    6DOPE  C311  750   2.070   4.847   6.017
    6DOPE  H11X  751   1.986   4.920   6.025
    6DOPE  H11Y  752   2.160   4.904   5.990
    6DOPE  C312  753   2.038   4.749   5.902
    6DOPE  H12X  754   2.122   4.678   5.888
    6DOPE  H12Y  755   2.030   4.809   5.809
    6DOPE  C313  756   1.906   4.670   5.920
    6DOPE  H13X  757   1.919   4.591   5.996
    6DOPE  H13Y  758   1.828   4.740   5.957
    6DOPE  C314  759   1.855   4.609   5.789
    6DOPE  H14X  760   1.853   4.689   5.711
    6DOPE  H14Y  761   1.750   4.574   5.803
    6DOPE  C315  762   1.939   4.491   5.738
    6DOPE  H15X  763   1.936   4.411   5.814
    6DOPE  H15Y  764   2.045   4.524   5.727
    6DOPE  C316  765   1.891   4.434   5.603
    6DOPE  H16X  766   1.783   4.407   5.611
    6DOPE  H16Y  767   1.948   4.342   5.582
    6DOPE  C317  768   1.910   4.532   5.486
    6DOPE  H17X  769   1.847   4.622   5.501
    6DOPE  H17Y  770   2.016   4.565   5.486
    6DOPE  C318  771   1.877   4.471   5.349
    6DOPE  H18X  772   1.770   4.440   5.345
    6DOPE  H18Y  773   1.896   4.544   5.268
    6DOPE  H18Z  774   1.940   4.381   5.330
    7DOPE     N  775   4.892   5.780   7.185
    7DOPE   HN1  776   4.953   5.696   7.189
    7DOPE   HN2  777   4.947   5.867   7.200
    7DOPE   HN3  778   4.823   5.775   7.262
    7DOPE   C12  779   4.823   5.781   7.052
    7DOPE  H12A  780   4.744   5.702   7.055
    7DOPE  H12B  781   4.897   5.754   6.974
    7DOPE   C11  782   4.761   5.917   7.020
    7DOPE  H11A  783   4.842   5.991   7.005
    7DOPE  H11B  784   4.699   5.954   7.104
    7DOPE     P  785   4.531   5.877   6.896
    7DOPE   O13  786   4.456   5.995   6.849
    7DOPE   O14  787   4.492   5.829   7.032
    7DOPE   O11  788   4.513   5.757   6.797
    7DOPE   O12  789   4.686   5.908   6.898
    7DOPE    C1  790   4.612   5.658   6.771
    7DOPE    HA  791   4.577   5.561   6.812
    7DOPE    HB  792   4.710   5.680   6.819
    7DOPE    C2  793   4.638   5.639   6.619
    7DOPE    HS  794   4.620   5.531   6.599
    7DOPE   O21  795   4.775   5.674   6.591
    7DOPE   C21  796   4.821   5.622   6.478
    7DOPE   O22  797   4.763   5.538   6.412
    7DOPE   C22  798   4.957   5.686   6.447
    7DOPE   H2R  799   5.022   5.670   6.536
    7DOPE   H2S  800   4.941   5.795   6.434
    7DOPE    C3  801   4.539   5.720   6.527
    7DOPE    HX  802   4.437   5.708   6.570
    7DOPE    HY  803   4.536   5.671   6.427
    7DOPE   O31  804   4.572   5.861   6.522
    7DOPE   C31  805   4.641   5.900   6.416
    7DOPE   O32  806   4.664   5.832   6.318
    7DOPE   C32  807   4.702   6.038   6.441
    7DOPE   H2X  808   4.672   6.072   6.543
    7DOPE   H2Y  809   4.812   6.025   6.440
    7DOPE   C23  810   5.027   5.628   6.322
    7DOPE   H3R  811   5.036   5.518   6.331
    7DOPE   H3S  812   5.131   5.668   6.318
    7DOPE   C24  813   4.958   5.664   6.190
    7DOPE   H4R  814   4.954   5.774   6.178
    7DOPE   H4S  815   4.853   5.628   6.193
    7DOPE   C25  816   5.028   5.600   6.069
    7DOPE   H5R  817   5.034   5.491   6.088
    7DOPE   H5S  818   5.132   5.639   6.061
    7DOPE   C26  819   4.953   5.622   5.937
    7DOPE   H6R  820   4.962   5.728   5.905
    7DOPE   H6S  821   4.845   5.603   5.957
    7DOPE   C27  822   4.999   5.527   5.826
    7DOPE   H7R  823   4.923   5.524   5.745
    7DOPE   H7S  824   5.004   5.424   5.868
    7DOPE   C28  825   5.136   5.563   5.766
    7DOPE   H8R  826   5.177   5.472   5.716
    7DOPE   H8S  827   5.204   5.588   5.849
    7DOPE   C29  828   5.127   5.678   5.669
    7DOPE   H9R  829   5.140   5.777   5.714
    7DOPE  C210  830   5.106   5.668   5.536
    7DOPE  H10R  831   5.103   5.761   5.477
    7DOPE  C211  832   5.086   5.543   5.455
    7DOPE  H11R  833   5.102   5.451   5.516
    7DOPE  H11S  834   5.161   5.540   5.374
    7DOPE  C212  835   4.946   5.531   5.391
    7DOPE  H12R  836   4.870   5.514   5.471
    7DOPE  H12S  837   4.944   5.441   5.326
    7DOPE  C213  838   4.905   5.654   5.309
    7DOPE  H13R  839   4.994   5.714   5.282
    7DOPE  H13S  840   4.843   5.718   5.375
    7DOPE  C214  841   4.825   5.625   5.180
    7DOPE  H14R  842   4.751   5.707   5.170
    7DOPE  H14S  843   4.769   5.530   5.188
    7DOPE  C215  844   4.910   5.627   5.051
    7DOPE  H15R  845   4.965   5.531   5.040
    7DOPE  H15S  846   4.986   5.707   5.062
    7DOPE  C216  847   4.830   5.655   4.922
    7DOPE  H16R  848   4.749   5.726   4.949
    7DOPE  H16S  849   4.782   5.562   4.885
    7DOPE  C217  850   4.912   5.723   4.811
    7DOPE  H17R  851   4.974   5.804   4.855
    7DOPE  H17S  852   4.840   5.773   4.742
    7DOPE  C218  853   4.999   5.631   4.726
    7DOPE  H18R  854   5.052   5.689   4.647
    7DOPE  H18S  855   4.937   5.554   4.676
    7DOPE  H18T  856   5.076   5.581   4.789
    7DOPE   C33  857   4.663   6.146   6.336
    7DOPE   H3X  858   4.727   6.235   6.354
    7DOPE   H3Y  859   4.558   6.177   6.351
    7DOPE   C34  860   4.682   6.100   6.190
    7DOPE   H4X  861   4.775   6.041   6.180
    7DOPE   H4Y  862   4.598   6.033   6.164
    7DOPE   C35  863   4.686   6.216   6.089
    7DOPE   H5X  864   4.788   6.261   6.091
    7DOPE   H5Y  865   4.614   6.294   6.119
    7DOPE   C36  866   4.652   6.169   5.947
    7DOPE   H6X  867   4.543   6.148   5.944
    7DOPE   H6Y  868   4.705   6.074   5.925
    7DOPE   C37  869   4.687   6.272   5.839
    7DOPE   H7X  870   4.680   6.373   5.885
    7DOPE   H7Y  871   4.792   6.258   5.807
    7DOPE   C38  872   4.593   6.269   5.717
    7DOPE   H8X  873   4.623   6.351   5.649
    7DOPE   H8Y  874   4.490   6.294   5.753
    7DOPE   C39  875   4.590   6.136   5.647
    7DOPE   H9X  876   4.589   6.048   5.713
    7DOPE  C310  877   4.586   6.115   5.514
    7DOPE  H10X  878   4.583   6.011   5.478
    7DOPE  C311  879   4.584   6.219   5.404
    7DOPE  H11X  880   4.611   6.320   5.442
    7DOPE  H11Y  881   4.660   6.194   5.327
    7DOPE  C312  882   4.445   6.230   5.337
    7DOPE  H12X  883   4.452   6.302   5.253
    7DOPE  H12Y  884   4.374   6.271   5.412
    7DOPE  C313  885   4.386   6.097   5.286
    7DOPE  H13X  886   4.376   6.027   5.372
    7DOPE  H13Y  887   4.283   6.115   5.248
    7DOPE  C314  888   4.467   6.029   5.175
    7DOPE  H14X  889   4.575   6.057   5.183
    7DOPE  H14Y  890   4.433   6.068   5.076
    7DOPE  C315  891   4.454   5.876   5.180
    7DOPE  H15X  892   4.351   5.851   5.212
    7DOPE  H15Y  893   4.523   5.836   5.257
    7DOPE  C316  894   4.479   5.807   5.046
    7DOPE  H16X  895   4.577   5.840   5.005
    7DOPE  H16Y  896   4.401   5.840   4.974
    7DOPE  C317  897   4.476   5.654   5.055
    7DOPE  H17X  898   4.579   5.615   5.069
    7DOPE  H17Y  899   4.419   5.624   5.146
    7DOPE  C318  900   4.412   5.585   4.934
    7DOPE  H18X  901   4.468   5.609   4.841
    7DOPE  H18Y  902   4.412   5.475   4.947
    7DOPE  H18Z  903   4.307   5.619   4.921
    8DOPE     N  904   5.386   5.686   7.149
    8DOPE   HN1  905   5.307   5.702   7.215
    8DOPE   HN2  906   5.390   5.584   7.128
    8DOPE   HN3  907   5.475   5.714   7.196
    8DOPE   C12  908   5.370   5.762   7.021
    8DOPE  H12A  909   5.471   5.774   6.976
    8DOPE  H12B  910   5.329   5.862   7.045
    8DOPE   C11  911   5.282   5.687   6.919
    8DOPE  H11A  912   5.272   5.753   6.830
    8DOPE  H11B  913   5.179   5.672   6.959
    8DOPE     P  914   5.309   5.426   6.940
    8DOPE   O13  915   5.164   5.403   6.924
    8DOPE   O14  916   5.356   5.431   7.081
    8DOPE   O11  917   5.402   5.327   6.859
    8DOPE   O12  918   5.345   5.566   6.878
    8DOPE    C1  919   5.538   5.316   6.907
    8DOPE    HA  920   5.541   5.246   6.993
    8DOPE    HB  921   5.579   5.413   6.941
    8DOPE    C2  922   5.642   5.259   6.803
    8DOPE    HS  923   5.741   5.261   6.853
    8DOPE   O21  924   5.645   5.339   6.684
    8DOPE   C21  925   5.705   5.456   6.693
    8DOPE   O22  926   5.746   5.509   6.795
    8DOPE   C22  927   5.719   5.518   6.553
    8DOPE   H2R  928   5.796   5.598   6.560
    8DOPE   H2S  929   5.621   5.564   6.527
    8DOPE    C3  930   5.613   5.110   6.767
    8DOPE    HX  931   5.593   5.057   6.862
    8DOPE    HY  932   5.706   5.066   6.725
    8DOPE   O31  933   5.499   5.093   6.679
    8DOPE   C31  934   5.529   5.093   6.550
    8DOPE   O32  935   5.641   5.088   6.503
    8DOPE   C32  936   5.400   5.092   6.467
    8DOPE   H2X  937   5.396   4.992   6.418
    8DOPE   H2Y  938   5.312   5.103   6.533
    8DOPE   C23  939   5.760   5.416   6.443
    8DOPE   H3R  940   5.681   5.339   6.434
    8DOPE   H3S  941   5.854   5.364   6.472
    8DOPE   C24  942   5.780   5.482   6.306
    8DOPE   H4R  943   5.879   5.533   6.301
    8DOPE   H4S  944   5.702   5.560   6.292
    8DOPE   C25  945   5.767   5.382   6.189
    8DOPE   H5R  946   5.752   5.437   6.094
    8DOPE   H5S  947   5.675   5.322   6.206
    8DOPE   C26  948   5.886   5.287   6.174
    8DOPE   H6R  949   5.939   5.280   6.272
    8DOPE   H6S  950   5.959   5.329   6.101
    8DOPE   C27  951   5.845   5.145   6.133
    8DOPE   H7R  952   5.773   5.108   6.208
    8DOPE   H7S  953   5.935   5.079   6.138
    8DOPE   C28  954   5.783   5.136   5.992
    8DOPE   H8R  955   5.863   5.154   5.917
    8DOPE   H8S  956   5.709   5.218   5.980
    8DOPE   C29  957   5.719   5.001   5.970
    8DOPE   H9R  958   5.789   4.920   5.943
    8DOPE  C210  959   5.589   4.972   5.982
    8DOPE  H10R  960   5.555   4.869   5.963
    8DOPE  C211  961   5.481   5.070   6.022
    8DOPE  H11R  962   5.524   5.154   6.080
    8DOPE  H11S  963   5.406   5.020   6.088
    8DOPE  C212  964   5.409   5.128   5.899
    8DOPE  H12R  965   5.483   5.177   5.832
    8DOPE  H12S  966   5.338   5.207   5.932
    8DOPE  C213  967   5.330   5.022   5.821
    8DOPE  H13R  968   5.257   4.976   5.891
    8DOPE  H13S  969   5.399   4.941   5.787
    8DOPE  C214  970   5.255   5.075   5.698
    8DOPE  H14R  971   5.187   5.158   5.729
    8DOPE  H14S  972   5.192   4.992   5.660
    8DOPE  C215  973   5.347   5.123   5.585
    8DOPE  H15R  974   5.418   5.042   5.559
    8DOPE  H15S  975   5.407   5.209   5.622
    8DOPE  C216  976   5.273   5.167   5.457
    8DOPE  H16R  977   5.350   5.201   5.385
    8DOPE  H16S  978   5.208   5.254   5.479
    8DOPE  C217  979   5.190   5.056   5.391
    8DOPE  H17R  980   5.235   4.957   5.414
    8DOPE  H17S  981   5.197   5.069   5.281
    8DOPE  C218  982   5.041   5.056   5.428
    8DOPE  H18R  983   4.994   5.151   5.395
    8DOPE  H18S  984   5.027   5.047   5.538
    8DOPE  H18T  985   4.989   4.972   5.380
    8DOPE   C33  986   5.401   5.200   6.357
    8DOPE   H3X  987   5.337   5.167   6.272
    8DOPE   H3Y  988   5.504   5.212   6.316
    8DOPE   C34  989   5.348   5.336   6.405
    8DOPE   H4X  990   5.237   5.332   6.409
    8DOPE   H4Y  991   5.385   5.355   6.508
    8DOPE   C35  992   5.392   5.455   6.317
    8DOPE   H5X  993   5.499   5.475   6.338
    8DOPE   H5Y  994   5.335   5.546   6.346
    8DOPE   C36  995   5.379   5.431   6.166
    8DOPE   H6X  996   5.273   5.410   6.139
    8DOPE   H6Y  997   5.439   5.342   6.138
    8DOPE   C37  998   5.432   5.548   6.081
    8DOPE   H7X  999   5.360   5.633   6.089
    8DOPE   H7Y 1000   5.529   5.582   6.123
    8DOPE   C38 1001   5.454   5.507   5.935
    8DOPE   H8X 1002   5.364   5.454   5.899
    8DOPE   H8Y 1003   5.537   5.433   5.933
    8DOPE   C39 1004   5.483   5.626   5.846
    8DOPE   H9X 1005   5.421   5.715   5.865
    8DOPE  C310 1006   5.575   5.631   5.747
    8DOPE  H10X 1007   5.588   5.724   5.690
    8DOPE  C311 1008   5.665   5.517   5.707
    8DOPE  H11X 1009   5.616   5.419   5.724
    8DOPE  H11Y 1010   5.687   5.521   5.598
    8DOPE  C312 1011   5.798   5.518   5.785
    8DOPE  H12X 1012   5.776   5.517   5.894
    8DOPE  H12Y 1013   5.855   5.610   5.763
    8DOPE  C313 1014   5.884   5.394   5.753
    8DOPE  H13X 1015   5.959   5.380   5.833
    8DOPE  H13Y 1016   5.817   5.305   5.755
    8DOPE  C314 1017   5.956   5.402   5.618
    8DOPE  H14X 1018   6.060   5.434   5.635
    8DOPE  H14Y 1019   5.908   5.479   5.554
    8DOPE  C315 1020   5.957   5.269   5.541
    8DOPE  H15X 1021   5.984   5.187   5.612
    8DOPE  H15Y 1022   6.036   5.272   5.463
    8DOPE  C316 1023   5.822   5.235   5.474
    8DOPE  H16X 1024   5.743   5.232   5.552
    8DOPE  H16Y 1025   5.830   5.132   5.432
    8DOPE  C317 1026   5.779   5.331   5.362
    8DOPE  H17X 1027   5.680   5.298   5.325
    8DOPE  H17Y 1028   5.765   5.433   5.404
    8DOPE  C318 1029   5.876   5.339   5.243
    8DOPE  H18X 1030   5.974   5.379   5.276
    8DOPE  H18Y 1031   5.836   5.405   5.164
    8DOPE  H18Z 1032   5.892   5.238   5.200
    9DOPE     N 1033   1.206   4.551   6.769
    9DOPE   HN1 1034   1.247   4.520   6.679
    9DOPE   HN2 1035   1.104   4.570   6.757
    9DOPE   HN3 1036   1.248   4.641   6.799
    9DOPE   C12 1037   1.230   4.458   6.884
    9DOPE  H12A 1038   1.267   4.361   6.846
    9DOPE  H12B 1039   1.133   4.442   6.935
    9DOPE   C11 1040   1.330   4.524   6.982
    9DOPE  H11A 1041   1.433   4.506   6.944
    9DOPE  H11B 1042   1.324   4.474   7.081
    9DOPE     P 1043   1.196   4.730   7.079
    9DOPE   O13 1044   1.201   4.877   7.074
    9DOPE   O14 1045   1.193   4.665   7.212
    9DOPE   O11 1046   1.074   4.678   6.995
    9DOPE   O12 1047   1.313   4.666   6.993
    9DOPE    C1 1048   0.960   4.623   7.060
    9DOPE    HA 1049   0.917   4.695   7.134
    9DOPE    HB 1050   0.986   4.529   7.114
    9DOPE    C2 1051   0.848   4.590   6.958
    9DOPE    HS 1052   0.765   4.544   7.016
    9DOPE   O21 1053   0.900   4.493   6.862
    9DOPE   C21 1054   0.803   4.438   6.788
    9DOPE   O22 1055   0.684   4.452   6.808
    9DOPE   C22 1056   0.862   4.352   6.675
    9DOPE   H2R 1057   0.779   4.288   6.639
    9DOPE   H2S 1058   0.942   4.287   6.716
    9DOPE    C3 1059   0.792   4.721   6.891
    9DOPE    HX 1060   0.727   4.768   6.968
    9DOPE    HY 1061   0.725   4.693   6.807
    9DOPE   O31 1062   0.888   4.822   6.850
    9DOPE   C31 1063   0.968   4.791   6.750
    9DOPE   O32 1064   0.978   4.682   6.698
    9DOPE   C32 1065   1.052   4.910   6.705
    9DOPE   H2X 1066   0.983   4.992   6.674
    9DOPE   H2Y 1067   1.112   4.945   6.792
    9DOPE   C23 1068   0.913   4.434   6.554
    9DOPE   H3R 1069   1.007   4.487   6.580
    9DOPE   H3S 1070   0.837   4.510   6.526
    9DOPE   C24 1071   0.943   4.350   6.429
    9DOPE   H4R 1072   0.954   4.420   6.343
    9DOPE   H4S 1073   0.857   4.284   6.407
    9DOPE   C25 1074   1.072   4.269   6.441
    9DOPE   H5R 1075   1.063   4.199   6.528
    9DOPE   H5S 1076   1.158   4.336   6.462
    9DOPE   C26 1077   1.104   4.185   6.316
    9DOPE   H6R 1078   1.016   4.125   6.285
    9DOPE   H6S 1079   1.183   4.113   6.345
    9DOPE   C27 1080   1.158   4.268   6.198
    9DOPE   H7R 1081   1.238   4.210   6.147
    9DOPE   H7S 1082   1.206   4.360   6.239
    9DOPE   C28 1083   1.055   4.310   6.092
    9DOPE   H8R 1084   1.105   4.379   6.021
    9DOPE   H8S 1085   0.973   4.368   6.139
    9DOPE   C29 1086   0.997   4.193   6.016
    9DOPE   H9R 1087   0.908   4.147   6.062
    9DOPE  C210 1088   1.047   4.139   5.904
    9DOPE  H10R 1089   0.995   4.054   5.857
    9DOPE  C211 1090   1.171   4.183   5.831
    9DOPE  H11R 1091   1.232   4.093   5.807
    9DOPE  H11S 1092   1.236   4.248   5.893
    9DOPE  C212 1093   1.140   4.256   5.699
    9DOPE  H12R 1094   1.100   4.357   5.721
    9DOPE  H12S 1095   1.062   4.201   5.643
    9DOPE  C213 1096   1.265   4.266   5.611
    9DOPE  H13R 1097   1.307   4.165   5.596
    9DOPE  H13S 1098   1.342   4.327   5.663
    9DOPE  C214 1099   1.237   4.328   5.473
    9DOPE  H14R 1100   1.202   4.432   5.485
    9DOPE  H14S 1101   1.156   4.271   5.422
    9DOPE  C215 1102   1.362   4.326   5.385
    9DOPE  H15R 1103   1.388   4.220   5.362
    9DOPE  H15S 1104   1.448   4.370   5.441
    9DOPE  C216 1105   1.344   4.404   5.254
    9DOPE  H16R 1106   1.328   4.511   5.279
    9DOPE  H16S 1107   1.253   4.369   5.201
    9DOPE  C217 1108   1.465   4.392   5.161
    9DOPE  H17R 1109   1.558   4.411   5.219
    9DOPE  H17S 1110   1.458   4.472   5.084
    9DOPE  C218 1111   1.475   4.257   5.089
    9DOPE  H18R 1112   1.473   4.173   5.162
    9DOPE  H18S 1113   1.570   4.251   5.032
    9DOPE  H18T 1114   1.390   4.244   5.019
    9DOPE   C33 1115   1.146   4.872   6.587
    9DOPE   H3X 1116   1.214   4.789   6.615
    9DOPE   H3Y 1117   1.211   4.960   6.566
    9DOPE   C34 1118   1.073   4.838   6.456
    9DOPE   H4X 1119   1.015   4.743   6.466
    9DOPE   H4Y 1120   0.998   4.918   6.436
    9DOPE   C35 1121   1.164   4.825   6.333
    9DOPE   H5X 1122   1.263   4.871   6.354
    9DOPE   H5Y 1123   1.118   4.882   6.250
    9DOPE   C36 1124   1.182   4.679   6.285
    9DOPE   H6X 1125   1.083   4.638   6.259
    9DOPE   H6Y 1126   1.222   4.619   6.370
    9DOPE   C37 1127   1.278   4.663   6.166
    9DOPE   H7X 1128   1.378   4.700   6.197
    9DOPE   H7Y 1129   1.289   4.555   6.142
    9DOPE   C38 1130   1.238   4.738   6.036
    9DOPE   H8X 1131   1.325   4.734   5.967
    9DOPE   H8Y 1132   1.220   4.845   6.059
    9DOPE   C39 1133   1.117   4.676   5.971
    9DOPE   H9X 1134   1.055   4.615   6.038
    9DOPE  C310 1135   1.080   4.689   5.843
    9DOPE  H10X 1136   0.988   4.639   5.810
    9DOPE  C311 1137   1.149   4.769   5.734
    9DOPE  H11X 1138   1.093   4.863   5.717
    9DOPE  H11Y 1139   1.253   4.796   5.761
    9DOPE  C312 1140   1.150   4.687   5.604
    9DOPE  H12X 1141   1.048   4.649   5.582
    9DOPE  H12Y 1142   1.216   4.598   5.618
    9DOPE  C313 1143   1.198   4.764   5.479
    9DOPE  H13X 1144   1.304   4.793   5.491
    9DOPE  H13Y 1145   1.192   4.694   5.393
    9DOPE  C314 1146   1.114   4.888   5.447
    9DOPE  H14X 1147   1.153   4.975   5.504
    9DOPE  H14Y 1148   1.009   4.872   5.480
    9DOPE  C315 1149   1.111   4.921   5.297
    9DOPE  H15X 1150   1.051   4.844   5.245
    9DOPE  H15Y 1151   1.215   4.915   5.257
    9DOPE  C316 1152   1.054   5.060   5.265
    9DOPE  H16X 1153   1.128   5.136   5.298
    9DOPE  H16Y 1154   0.961   5.076   5.323
    9DOPE  C317 1155   1.024   5.080   5.116
    9DOPE  H17X 1156   0.934   5.020   5.090
    9DOPE  H17Y 1157   0.998   5.187   5.100
    9DOPE  C318 1158   1.138   5.041   5.021
    9DOPE  H18X 1159   1.233   5.090   5.051
    9DOPE  H18Y 1160   1.154   4.931   5.023
    9DOPE  H18Z 1161   1.114   5.070   4.917
   10DOPE     N 1162   2.112   6.158   7.052
   10DOPE   HN1 1163   2.019   6.164   7.097
   10DOPE   HN2 1164   2.169   6.101   7.118
   10DOPE   HN3 1165   2.149   6.255   7.046
   10DOPE   C12 1166   2.099   6.088   6.920
   10DOPE  H12A 1167   2.200   6.083   6.873
   10DOPE  H12B 1168   2.032   6.150   6.856
   10DOPE   C11 1169   2.040   5.947   6.939
   10DOPE  H11A 1170   2.114   5.885   6.994
   10DOPE  H11B 1171   2.024   5.901   6.839
   10DOPE     P 1172   1.834   5.829   7.052
   10DOPE   O13 1173   1.772   5.856   7.185
   10DOPE   O14 1174   1.917   5.707   7.043
   10DOPE   O11 1175   1.721   5.824   6.943
   10DOPE   O12 1176   1.918   5.957   7.012
   10DOPE    C1 1177   1.590   5.772   6.974
   10DOPE    HA 1178   1.526   5.853   7.016
   10DOPE    HB 1179   1.596   5.692   7.051
   10DOPE    C2 1180   1.516   5.707   6.852
   10DOPE    HS 1181   1.466   5.615   6.889
   10DOPE   O21 1182   1.612   5.672   6.751
   10DOPE   C21 1183   1.711   5.591   6.786
   10DOPE   O22 1184   1.704   5.499   6.867
   10DOPE   C22 1185   1.837   5.635   6.711
   10DOPE   H2R 1186   1.873   5.728   6.759
   10DOPE   H2S 1187   1.811   5.660   6.606
   10DOPE    C3 1188   1.399   5.797   6.791
   10DOPE    HX 1189   1.325   5.813   6.872
   10DOPE    HY 1190   1.351   5.734   6.713
   10DOPE   O31 1191   1.436   5.925   6.735
   10DOPE   C31 1192   1.345   5.988   6.658
   10DOPE   O32 1193   1.231   5.947   6.641
   10DOPE   C32 1194   1.402   6.116   6.590
   10DOPE   H2X 1195   1.332   6.199   6.614
   10DOPE   H2Y 1196   1.500   6.138   6.638
   10DOPE   C23 1197   1.953   5.534   6.704
   10DOPE   H3R 1198   1.986   5.507   6.807
   10DOPE   H3S 1199   2.037   5.588   6.655
   10DOPE   C24 1200   1.923   5.408   6.622
   10DOPE   H4R 1201   1.849   5.348   6.679
   10DOPE   H4S 1202   2.015   5.347   6.613
   10DOPE   C25 1203   1.865   5.429   6.480
   10DOPE   H5R 1204   1.771   5.489   6.483
   10DOPE   H5S 1205   1.838   5.329   6.442
   10DOPE   C26 1206   1.962   5.489   6.376
   10DOPE   H6R 1207   2.064   5.452   6.398
   10DOPE   H6S 1208   1.963   5.600   6.384
   10DOPE   C27 1209   1.928   5.444   6.232
   10DOPE   H7R 1210   1.928   5.333   6.231
   10DOPE   H7S 1211   2.010   5.476   6.163
   10DOPE   C28 1212   1.792   5.492   6.178
   10DOPE   H8R 1213   1.716   5.490   6.260
   10DOPE   H8S 1214   1.758   5.419   6.102
   10DOPE   C29 1215   1.801   5.631   6.120
   10DOPE   H9R 1216   1.862   5.701   6.178
   10DOPE  C210 1217   1.742   5.675   6.007
   10DOPE  H10R 1218   1.760   5.779   5.975
   10DOPE  C211 1219   1.653   5.594   5.915
   10DOPE  H11R 1220   1.592   5.662   5.852
   10DOPE  H11S 1221   1.582   5.533   5.974
   10DOPE  C212 1222   1.732   5.500   5.822
   10DOPE  H12R 1223   1.659   5.446   5.758
   10DOPE  H12S 1224   1.786   5.424   5.883
   10DOPE  C213 1225   1.835   5.572   5.733
   10DOPE  H13R 1226   1.907   5.628   5.796
   10DOPE  H13S 1227   1.782   5.645   5.668
   10DOPE  C214 1228   1.916   5.475   5.645
   10DOPE  H14R 1229   1.973   5.404   5.709
   10DOPE  H14S 1230   1.990   5.534   5.587
   10DOPE  C215 1231   1.828   5.396   5.547
   10DOPE  H15R 1232   1.758   5.466   5.498
   10DOPE  H15S 1233   1.768   5.321   5.603
   10DOPE  C216 1234   1.910   5.324   5.439
   10DOPE  H16R 1235   1.990   5.264   5.487
   10DOPE  H16S 1236   1.960   5.400   5.375
   10DOPE  C217 1237   1.826   5.231   5.350
   10DOPE  H17R 1238   1.793   5.144   5.410
   10DOPE  H17S 1239   1.890   5.193   5.268
   10DOPE  C218 1240   1.702   5.299   5.289
   10DOPE  H18R 1241   1.627   5.322   5.368
   10DOPE  H18S 1242   1.655   5.232   5.214
   10DOPE  H18T 1243   1.730   5.394   5.239
   10DOPE   C33 1244   1.422   6.109   6.435
   10DOPE   H3X 1245   1.322   6.126   6.389
   10DOPE   H3Y 1246   1.452   6.004   6.410
   10DOPE   C34 1247   1.521   6.199   6.356
   10DOPE   H4X 1248   1.511   6.175   6.248
   10DOPE   H4Y 1249   1.485   6.303   6.367
   10DOPE   C35 1250   1.673   6.199   6.388
   10DOPE   H5X 1251   1.691   6.169   6.494
   10DOPE   H5Y 1252   1.707   6.304   6.381
   10DOPE   C36 1253   1.770   6.127   6.292
   10DOPE   H6X 1254   1.733   6.132   6.188
   10DOPE   H6Y 1255   1.782   6.020   6.320
   10DOPE   C37 1256   1.912   6.189   6.297
   10DOPE   H7X 1257   1.906   6.290   6.251
   10DOPE   H7Y 1258   1.941   6.203   6.404
   10DOPE   C38 1259   2.020   6.107   6.224
   10DOPE   H8X 1260   2.107   6.174   6.209
   10DOPE   H8Y 1261   1.982   6.081   6.123
   10DOPE   C39 1262   2.067   5.985   6.301
   10DOPE   H9X 1263   2.071   5.999   6.410
   10DOPE  C310 1264   2.101   5.864   6.251
   10DOPE  H10X 1265   2.134   5.786   6.321
   10DOPE  C311 1266   2.097   5.823   6.106
   10DOPE  H11X 1267   2.070   5.716   6.098
   10DOPE  H11Y 1268   2.018   5.879   6.053
   10DOPE  C312 1269   2.230   5.842   6.031
   10DOPE  H12X 1270   2.310   5.782   6.080
   10DOPE  H12Y 1271   2.261   5.949   6.036
   10DOPE  C313 1272   2.222   5.801   5.882
   10DOPE  H13X 1273   2.323   5.812   5.836
   10DOPE  H13Y 1274   2.194   5.694   5.875
   10DOPE  C314 1275   2.121   5.885   5.802
   10DOPE  H14X 1276   2.147   5.992   5.813
   10DOPE  H14Y 1277   2.020   5.870   5.844
   10DOPE  C315 1278   2.115   5.849   5.653
   10DOPE  H15X 1279   2.097   5.740   5.642
   10DOPE  H15Y 1280   2.213   5.872   5.605
   10DOPE  C316 1281   2.003   5.927   5.582
   10DOPE  H16X 1282   2.021   6.035   5.596
   10DOPE  H16Y 1283   1.906   5.902   5.631
   10DOPE  C317 1284   1.991   5.899   5.432
   10DOPE  H17X 1285   1.914   5.968   5.391
   10DOPE  H17Y 1286   2.087   5.923   5.382
   10DOPE  C318 1287   1.951   5.755   5.396
   10DOPE  H18X 1288   2.031   5.684   5.424
   10DOPE  H18Y 1289   1.857   5.727   5.449
   10DOPE  H18Z 1290   1.933   5.746   5.287
   11DOPE     N 1291   1.621   2.871   7.185
   11DOPE   HN1 1292   1.572   2.847   7.273
   11DOPE   HN2 1293   1.723   2.870   7.203
   11DOPE   HN3 1294   1.590   2.965   7.154
   11DOPE   C12 1295   1.584   2.779   7.072
   11DOPE  H12A 1296   1.481   2.740   7.093
   11DOPE  H12B 1297   1.655   2.694   7.069
   11DOPE   C11 1298   1.584   2.859   6.941
   11DOPE  H11A 1299   1.541   2.797   6.859
   11DOPE  H11B 1300   1.690   2.880   6.913
   11DOPE     P 1301   1.393   3.035   6.874
   11DOPE   O13 1302   1.447   3.115   6.763
   11DOPE   O14 1303   1.305   3.104   6.970
   11DOPE   O11 1304   1.325   2.903   6.819
   11DOPE   O12 1305   1.516   2.982   6.961
   11DOPE    C1 1306   1.254   2.812   6.904
   11DOPE    HA 1307   1.203   2.864   6.988
   11DOPE    HB 1308   1.326   2.739   6.948
   11DOPE    C2 1309   1.147   2.728   6.827
   11DOPE    HS 1310   1.130   2.633   6.883
   11DOPE   O21 1311   1.187   2.699   6.693
   11DOPE   C21 1312   1.303   2.641   6.671
   11DOPE   O22 1313   1.373   2.584   6.753
   11DOPE   C22 1314   1.329   2.649   6.520
   11DOPE   H2R 1315   1.356   2.754   6.496
   11DOPE   H2S 1316   1.233   2.625   6.469
   11DOPE    C3 1317   1.011   2.803   6.820
   11DOPE    HX 1318   0.976   2.820   6.924
   11DOPE    HY 1319   0.936   2.737   6.771
   11DOPE   O31 1320   1.024   2.930   6.754
   11DOPE   C31 1321   1.019   2.926   6.621
   11DOPE   O32 1322   0.973   2.835   6.554
   11DOPE   C32 1323   1.080   3.054   6.564
   11DOPE   H2X 1324   1.011   3.138   6.588
   11DOPE   H2Y 1325   1.176   3.072   6.617
   11DOPE   C23 1326   1.438   2.552   6.470
   11DOPE   H3R 1327   1.429   2.455   6.523
   11DOPE   H3S 1328   1.539   2.594   6.493
   11DOPE   C24 1329   1.428   2.520   6.320
   11DOPE   H4R 1330   1.337   2.460   6.301
   11DOPE   H4S 1331   1.515   2.456   6.293
   11DOPE   C25 1332   1.426   2.643   6.227
   11DOPE   H5R 1333   1.482   2.615   6.135
   11DOPE   H5S 1334   1.479   2.728   6.275
   11DOPE   C26 1335   1.285   2.684   6.182
   11DOPE   H6R 1336   1.228   2.725   6.268
   11DOPE   H6S 1337   1.232   2.594   6.146
   11DOPE   C27 1338   1.289   2.788   6.069
   11DOPE   H7R 1339   1.349   2.749   5.985
   11DOPE   H7S 1340   1.341   2.879   6.107
   11DOPE   C28 1341   1.149   2.829   6.018
   11DOPE   H8R 1342   1.163   2.910   5.943
   11DOPE   H8S 1343   1.092   2.875   6.102
   11DOPE   C29 1344   1.073   2.713   5.960
   11DOPE   H9R 1345   1.001   2.667   6.030
   11DOPE  C210 1346   1.086   2.662   5.836
   11DOPE  H10R 1347   1.024   2.575   5.809
   11DOPE  C211 1348   1.179   2.709   5.728
   11DOPE  H11R 1349   1.228   2.805   5.753
   11DOPE  H11S 1350   1.121   2.726   5.635
   11DOPE  C212 1351   1.290   2.607   5.697
   11DOPE  H12R 1352   1.247   2.505   5.687
   11DOPE  H12S 1353   1.363   2.605   5.781
   11DOPE  C213 1354   1.363   2.640   5.566
   11DOPE  H13R 1355   1.400   2.745   5.568
   11DOPE  H13S 1356   1.289   2.633   5.483
   11DOPE  C214 1357   1.481   2.546   5.536
   11DOPE  H14R 1358   1.456   2.442   5.565
   11DOPE  H14S 1359   1.568   2.578   5.597
   11DOPE  C215 1360   1.520   2.547   5.387
   11DOPE  H15R 1361   1.625   2.513   5.375
   11DOPE  H15S 1362   1.513   2.651   5.349
   11DOPE  C216 1363   1.430   2.455   5.303
   11DOPE  H16R 1364   1.325   2.467   5.337
   11DOPE  H16S 1365   1.459   2.350   5.324
   11DOPE  C217 1366   1.433   2.480   5.152
   11DOPE  H17R 1367   1.387   2.579   5.132
   11DOPE  H17S 1368   1.369   2.404   5.102
   11DOPE  C218 1369   1.573   2.476   5.089
   11DOPE  H18R 1370   1.636   2.559   5.127
   11DOPE  H18S 1371   1.566   2.486   4.978
   11DOPE  H18T 1372   1.624   2.380   5.112
   11DOPE   C33 1373   1.104   3.045   6.412
   11DOPE   H3X 1374   1.008   3.022   6.360
   11DOPE   H3Y 1375   1.175   2.963   6.390
   11DOPE   C34 1376   1.161   3.176   6.356
   11DOPE   H4X 1377   1.094   3.260   6.384
   11DOPE   H4Y 1378   1.260   3.195   6.403
   11DOPE   C35 1379   1.177   3.172   6.203
   11DOPE   H5X 1380   1.078   3.158   6.154
   11DOPE   H5Y 1381   1.239   3.084   6.178
   11DOPE   C36 1382   1.244   3.299   6.147
   11DOPE   H6X 1383   1.333   3.320   6.210
   11DOPE   H6Y 1384   1.176   3.386   6.155
   11DOPE   C37 1385   1.292   3.282   6.002
   11DOPE   H7X 1386   1.395   3.324   5.994
   11DOPE   H7Y 1387   1.301   3.174   5.978
   11DOPE   C38 1388   1.207   3.352   5.894
   11DOPE   H8X 1389   1.261   3.343   5.798
   11DOPE   H8Y 1390   1.203   3.460   5.918
   11DOPE   C39 1391   1.067   3.297   5.879
   11DOPE   H9X 1392   0.988   3.356   5.928
   11DOPE  C310 1393   1.033   3.185   5.813
   11DOPE  H10X 1394   0.927   3.157   5.807
   11DOPE  C311 1395   1.127   3.091   5.742
   11DOPE  H11X 1396   1.225   3.086   5.793
   11DOPE  H11Y 1397   1.084   2.988   5.745
   11DOPE  C312 1398   1.153   3.126   5.594
   11DOPE  H12X 1399   1.202   3.226   5.588
   11DOPE  H12Y 1400   1.058   3.132   5.538
   11DOPE  C313 1401   1.246   3.023   5.528
   11DOPE  H13X 1402   1.341   3.021   5.586
   11DOPE  H13Y 1403   1.202   2.921   5.534
   11DOPE  C314 1404   1.278   3.056   5.381
   11DOPE  H14X 1405   1.385   3.032   5.363
   11DOPE  H14Y 1406   1.264   3.164   5.363
   11DOPE  C315 1407   1.195   2.975   5.280
   11DOPE  H15X 1408   1.220   2.867   5.290
   11DOPE  H15Y 1409   1.226   3.008   5.178
   11DOPE  C316 1410   1.043   2.992   5.293
   11DOPE  H16X 1411   1.019   3.100   5.285
   11DOPE  H16Y 1412   1.011   2.958   5.393
   11DOPE  C317 1413   0.963   2.915   5.187
   11DOPE  H17X 1414   0.980   2.806   5.201
   11DOPE  H17Y 1415   0.855   2.933   5.205
   11DOPE  C318 1416   0.996   2.952   5.042
   11DOPE  H18X 1417   0.994   3.062   5.029
   11DOPE  H18Y 1418   1.097   2.915   5.015
   11DOPE  H18Z 1419   0.922   2.907   4.972
   12DOPE     N 1420   2.996   6.583   6.958
   12DOPE   HN1 1421   2.915   6.626   6.909
   12DOPE   HN2 1422   3.070   6.556   6.891
   12DOPE   HN3 1423   2.963   6.498   7.010
   12DOPE   C12 1424   3.062   6.678   7.053
   12DOPE  H12A 1425   3.003   6.684   7.147
   12DOPE  H12B 1426   3.065   6.778   7.005
   12DOPE   C11 1427   3.205   6.633   7.080
   12DOPE  H11A 1428   3.203   6.540   7.142
   12DOPE  H11B 1429   3.256   6.712   7.139
   12DOPE     P 1430   3.428   6.602   6.953
   12DOPE   O13 1431   3.470   6.534   6.829
   12DOPE   O14 1432   3.474   6.542   7.080
   12DOPE   O11 1433   3.465   6.756   6.952
   12DOPE   O12 1434   3.269   6.606   6.956
   12DOPE    C1 1435   3.525   6.818   6.838
   12DOPE    HA 1436   3.556   6.745   6.760
   12DOPE    HB 1437   3.619   6.868   6.870
   12DOPE    C2 1438   3.437   6.927   6.767
   12DOPE    HS 1439   3.454   7.022   6.821
   12DOPE   O21 1440   3.297   6.891   6.774
   12DOPE   C21 1441   3.214   6.987   6.738
   12DOPE   O22 1442   3.245   7.103   6.717
   12DOPE   C22 1443   3.071   6.934   6.732
   12DOPE   H2R 1444   3.004   7.022   6.723
   12DOPE   H2S 1445   3.050   6.884   6.829
   12DOPE    C3 1446   3.483   6.946   6.620
   12DOPE    HX 1447   3.588   6.983   6.624
   12DOPE    HY 1448   3.422   7.024   6.570
   12DOPE   O31 1449   3.478   6.821   6.551
   12DOPE   C31 1450   3.484   6.825   6.420
   12DOPE   O32 1451   3.488   6.925   6.351
   12DOPE   C32 1452   3.486   6.681   6.370
   12DOPE   H2X 1453   3.539   6.619   6.445
   12DOPE   H2Y 1454   3.380   6.646   6.365
   12DOPE   C23 1455   3.043   6.837   6.616
   12DOPE   H3R 1456   3.047   6.891   6.519
   12DOPE   H3S 1457   2.938   6.800   6.628
   12DOPE   C24 1458   3.138   6.716   6.611
   12DOPE   H4R 1459   3.164   6.684   6.714
   12DOPE   H4S 1460   3.232   6.747   6.562
   12DOPE   C25 1461   3.081   6.594   6.536
   12DOPE   H5R 1462   3.003   6.549   6.601
   12DOPE   H5S 1463   3.162   6.519   6.523
   12DOPE   C26 1464   3.016   6.625   6.401
   12DOPE   H6R 1465   2.932   6.697   6.416
   12DOPE   H6S 1466   2.972   6.531   6.362
   12DOPE   C27 1467   3.110   6.681   6.294
   12DOPE   H7R 1468   3.182   6.601   6.267
   12DOPE   H7S 1469   3.167   6.768   6.334
   12DOPE   C28 1470   3.031   6.725   6.169
   12DOPE   H8R 1471   2.974   6.817   6.194
   12DOPE   H8S 1472   2.956   6.647   6.146
   12DOPE   C29 1473   3.123   6.751   6.053
   12DOPE   H9R 1474   3.190   6.837   6.065
   12DOPE  C210 1475   3.130   6.679   5.940
   12DOPE  H10R 1476   3.204   6.709   5.864
   12DOPE  C211 1477   3.049   6.557   5.902
   12DOPE  H11R 1478   2.993   6.514   5.988
   12DOPE  H11S 1479   3.119   6.477   5.868
   12DOPE  C212 1480   2.950   6.584   5.787
   12DOPE  H12R 1481   2.868   6.650   5.823
   12DOPE  H12S 1482   2.905   6.488   5.755
   12DOPE  C213 1483   3.016   6.651   5.666
   12DOPE  H13R 1484   3.109   6.596   5.640
   12DOPE  H13S 1485   3.045   6.755   5.694
   12DOPE  C214 1486   2.928   6.660   5.541
   12DOPE  H14R 1487   2.826   6.695   5.568
   12DOPE  H14S 1488   2.919   6.559   5.495
   12DOPE  C215 1489   2.991   6.757   5.441
   12DOPE  H15R 1490   3.099   6.736   5.435
   12DOPE  H15S 1491   2.980   6.861   5.481
   12DOPE  C216 1492   2.931   6.752   5.300
   12DOPE  H16R 1493   2.820   6.756   5.307
   12DOPE  H16S 1494   2.958   6.655   5.254
   12DOPE  C217 1495   2.980   6.867   5.211
   12DOPE  H17R 1496   2.934   6.961   5.246
   12DOPE  H17S 1497   2.943   6.849   5.108
   12DOPE  C218 1498   3.132   6.885   5.209
   12DOPE  H18R 1499   3.160   6.967   5.140
   12DOPE  H18S 1500   3.182   6.792   5.174
   12DOPE  H18T 1501   3.171   6.910   5.310
   12DOPE   C33 1502   3.555   6.664   6.233
   12DOPE   H3X 1503   3.654   6.716   6.236
   12DOPE   H3Y 1504   3.495   6.711   6.153
   12DOPE   C34 1505   3.581   6.517   6.202
   12DOPE   H4X 1506   3.648   6.508   6.113
   12DOPE   H4Y 1507   3.635   6.473   6.289
   12DOPE   C35 1508   3.454   6.434   6.178
   12DOPE   H5X 1509   3.377   6.460   6.254
   12DOPE   H5Y 1510   3.479   6.327   6.192
   12DOPE   C36 1511   3.395   6.451   6.038
   12DOPE   H6X 1512   3.398   6.558   6.007
   12DOPE   H6Y 1513   3.288   6.421   6.040
   12DOPE   C37 1514   3.467   6.363   5.935
   12DOPE   H7X 1515   3.575   6.389   5.934
   12DOPE   H7Y 1516   3.458   6.257   5.967
   12DOPE   C38 1517   3.410   6.379   5.793
   12DOPE   H8X 1518   3.424   6.484   5.760
   12DOPE   H8Y 1519   3.300   6.362   5.796
   12DOPE   C39 1520   3.474   6.280   5.699
   12DOPE   H9X 1521   3.446   6.176   5.716
   12DOPE  C310 1522   3.559   6.308   5.598
   12DOPE  H10X 1523   3.594   6.224   5.536
   12DOPE  C311 1524   3.611   6.443   5.556
   12DOPE  H11X 1525   3.592   6.521   5.633
   12DOPE  H11Y 1526   3.721   6.438   5.543
   12DOPE  C312 1527   3.547   6.490   5.424
   12DOPE  H12X 1528   3.570   6.417   5.343
   12DOPE  H12Y 1529   3.594   6.586   5.395
   12DOPE  C313 1530   3.395   6.510   5.433
   12DOPE  H13X 1531   3.345   6.412   5.451
   12DOPE  H13Y 1532   3.374   6.575   5.521
   12DOPE  C314 1533   3.333   6.576   5.309
   12DOPE  H14X 1534   3.381   6.675   5.292
   12DOPE  H14Y 1535   3.225   6.593   5.328
   12DOPE  C315 1536   3.346   6.491   5.181
   12DOPE  H15X 1537   3.301   6.392   5.198
   12DOPE  H15Y 1538   3.453   6.477   5.155
   12DOPE  C316 1539   3.275   6.558   5.062
   12DOPE  H16X 1540   3.320   6.659   5.046
   12DOPE  H16Y 1541   3.168   6.573   5.087
   12DOPE  C317 1542   3.286   6.479   4.932
   12DOPE  H17X 1543   3.393   6.464   4.907
   12DOPE  H17Y 1544   3.241   6.378   4.946
   12DOPE  C318 1545   3.216   6.549   4.815
   12DOPE  H18X 1546   3.224   6.489   4.721
   12DOPE  H18Y 1547   3.108   6.564   4.837
   12DOPE  H18Z 1548   3.262   6.648   4.796
   13DOPE     N 1549   2.552   1.209   7.273
   13DOPE   HN1 1550   2.584   1.305   7.248
   13DOPE   HN2 1551   2.574   1.196   7.374
   13DOPE   HN3 1552   2.608   1.145   7.214
   13DOPE   C12 1553   2.406   1.189   7.240
   13DOPE  H12A 1554   2.347   1.258   7.303
   13DOPE  H12B 1555   2.381   1.084   7.266
   13DOPE   C11 1556   2.379   1.214   7.090
   13DOPE  H11A 1557   2.377   1.323   7.072
   13DOPE  H11B 1558   2.277   1.177   7.066
   13DOPE     P 1559   2.582   1.227   6.926
   13DOPE   O13 1560   2.672   1.286   7.028
   13DOPE   O14 1561   2.512   1.319   6.834
   13DOPE   O11 1562   2.659   1.113   6.850
   13DOPE   O12 1563   2.474   1.144   7.007
   13DOPE    C1 1564   2.765   1.042   6.915
   13DOPE    HA 1565   2.741   1.018   7.021
   13DOPE    HB 1566   2.856   1.106   6.916
   13DOPE    C2 1567   2.801   0.908   6.844
   13DOPE    HS 1568   2.887   0.862   6.897
   13DOPE   O21 1569   2.836   0.933   6.707
   13DOPE   C21 1570   2.950   0.998   6.691
   13DOPE   O22 1571   3.037   1.011   6.776
   13DOPE   C22 1572   2.957   1.056   6.550
   13DOPE   H2R 1573   2.876   1.012   6.489
   13DOPE   H2S 1574   3.055   1.027   6.506
   13DOPE    C3 1575   2.685   0.804   6.850
   13DOPE    HX 1576   2.683   0.762   6.953
   13DOPE    HY 1577   2.708   0.719   6.782
   13DOPE   O31 1578   2.555   0.862   6.825
   13DOPE   C31 1579   2.525   0.877   6.696
   13DOPE   O32 1580   2.582   0.823   6.603
   13DOPE   C32 1581   2.400   0.964   6.683
   13DOPE   H2X 1582   2.316   0.908   6.728
   13DOPE   H2Y 1583   2.416   1.057   6.743
   13DOPE   C23 1584   2.944   1.210   6.553
   13DOPE   H3R 1585   2.945   1.245   6.448
   13DOPE   H3S 1586   3.031   1.257   6.604
   13DOPE   C24 1587   2.814   1.254   6.623
   13DOPE   H4R 1588   2.832   1.263   6.732
   13DOPE   H4S 1589   2.738   1.174   6.610
   13DOPE   C25 1590   2.750   1.384   6.572
   13DOPE   H5R 1591   2.816   1.471   6.593
   13DOPE   H5S 1592   2.655   1.400   6.628
   13DOPE   C26 1593   2.717   1.376   6.423
   13DOPE   H6R 1594   2.677   1.274   6.403
   13DOPE   H6S 1595   2.810   1.387   6.364
   13DOPE   C27 1596   2.613   1.477   6.373
   13DOPE   H7R 1597   2.643   1.580   6.403
   13DOPE   H7S 1598   2.517   1.454   6.425
   13DOPE   C28 1599   2.597   1.469   6.220
   13DOPE   H8R 1600   2.621   1.365   6.189
   13DOPE   H8S 1601   2.673   1.535   6.173
   13DOPE   C29 1602   2.459   1.505   6.172
   13DOPE   H9R 1603   2.399   1.564   6.243
   13DOPE  C210 1604   2.406   1.473   6.053
   13DOPE  H10R 1605   2.303   1.505   6.030
   13DOPE  C211 1606   2.473   1.396   5.941
   13DOPE  H11R 1607   2.406   1.315   5.905
   13DOPE  H11S 1608   2.568   1.349   5.972
   13DOPE  C212 1609   2.502   1.494   5.825
   13DOPE  H12R 1610   2.583   1.563   5.856
   13DOPE  H12S 1611   2.411   1.555   5.805
   13DOPE  C213 1612   2.542   1.427   5.693
   13DOPE  H13R 1613   2.466   1.349   5.668
   13DOPE  H13S 1614   2.641   1.377   5.703
   13DOPE  C214 1615   2.545   1.531   5.580
   13DOPE  H14R 1616   2.625   1.606   5.599
   13DOPE  H14S 1617   2.448   1.585   5.581
   13DOPE  C215 1618   2.563   1.471   5.440
   13DOPE  H15R 1619   2.494   1.384   5.428
   13DOPE  H15S 1620   2.667   1.434   5.428
   13DOPE  C216 1621   2.531   1.574   5.330
   13DOPE  H16R 1622   2.595   1.664   5.344
   13DOPE  H16S 1623   2.425   1.606   5.341
   13DOPE  C217 1624   2.551   1.519   5.189
   13DOPE  H17R 1625   2.499   1.422   5.180
   13DOPE  H17S 1626   2.660   1.501   5.175
   13DOPE  C218 1627   2.500   1.613   5.079
   13DOPE  H18R 1628   2.391   1.628   5.089
   13DOPE  H18S 1629   2.521   1.570   4.979
   13DOPE  H18T 1630   2.550   1.712   5.086
   13DOPE   C33 1631   2.368   1.001   6.537
   13DOPE   H3X 1632   2.266   1.044   6.534
   13DOPE   H3Y 1633   2.368   0.910   6.472
   13DOPE   C34 1634   2.464   1.105   6.478
   13DOPE   H4X 1635   2.465   1.192   6.547
   13DOPE   H4Y 1636   2.567   1.065   6.475
   13DOPE   C35 1637   2.419   1.154   6.340
   13DOPE   H5X 1638   2.460   1.256   6.323
   13DOPE   H5Y 1639   2.308   1.162   6.339
   13DOPE   C36 1640   2.463   1.066   6.221
   13DOPE   H6X 1641   2.425   1.115   6.129
   13DOPE   H6Y 1642   2.414   0.967   6.228
   13DOPE   C37 1643   2.615   1.049   6.208
   13DOPE   H7X 1644   2.665   1.143   6.240
   13DOPE   H7Y 1645   2.649   0.969   6.277
   13DOPE   C38 1646   2.662   1.021   6.064
   13DOPE   H8X 1647   2.771   1.002   6.065
   13DOPE   H8Y 1648   2.645   1.114   6.005
   13DOPE   C39 1649   2.589   0.903   6.006
   13DOPE   H9X 1650   2.591   0.813   6.070
   13DOPE  C310 1651   2.522   0.899   5.890
   13DOPE  H10X 1652   2.473   0.805   5.862
   13DOPE  C311 1653   2.505   1.009   5.788
   13DOPE  H11X 1654   2.402   1.049   5.791
   13DOPE  H11Y 1655   2.574   1.094   5.806
   13DOPE  C312 1656   2.533   0.952   5.648
   13DOPE  H12X 1657   2.467   0.866   5.627
   13DOPE  H12Y 1658   2.638   0.914   5.646
   13DOPE  C313 1659   2.515   1.055   5.535
   13DOPE  H13X 1660   2.407   1.075   5.522
   13DOPE  H13Y 1661   2.564   1.151   5.563
   13DOPE  C314 1662   2.575   1.006   5.402
   13DOPE  H14X 1663   2.533   1.065   5.318
   13DOPE  H14Y 1664   2.546   0.900   5.387
   13DOPE  C315 1665   2.728   1.020   5.400
   13DOPE  H15X 1666   2.771   0.984   5.496
   13DOPE  H15Y 1667   2.754   1.127   5.390
   13DOPE  C316 1668   2.795   0.941   5.287
   13DOPE  H16X 1669   2.754   0.973   5.189
   13DOPE  H16Y 1670   2.772   0.833   5.299
   13DOPE  C317 1671   2.947   0.960   5.288
   13DOPE  H17X 1672   2.970   1.069   5.286
   13DOPE  H17Y 1673   2.988   0.920   5.383
   13DOPE  C318 1674   3.018   0.893   5.170
   13DOPE  H18X 1675   3.128   0.901   5.180
   13DOPE  H18Y 1676   2.991   0.785   5.164
   13DOPE  H18Z 1677   2.987   0.941   5.075
   14DOPE     N 1678   6.699   4.403   7.138
   14DOPE   HN1 1679   6.684   4.305   7.107
   14DOPE   HN2 1680   6.689   4.409   7.241
   14DOPE   HN3 1681   6.626   4.461   7.092
   14DOPE   C12 1682   6.835   4.452   7.096
   14DOPE  H12A 1683   6.854   4.416   6.993
   14DOPE  H12B 1684   6.910   4.407   7.164
   14DOPE   C11 1685   6.843   4.606   7.104
   14DOPE  H11A 1686   6.944   4.640   7.075
   14DOPE  H11B 1687   6.828   4.638   7.209
   14DOPE     P 1688   6.749   4.653   6.865
   14DOPE   O13 1689   6.637   4.562   6.833
   14DOPE   O14 1690   6.886   4.611   6.829
   14DOPE   O11 1691   6.719   4.798   6.812
   14DOPE   O12 1692   6.743   4.670   7.023
   14DOPE    C1 1693   6.632   4.887   6.883
   14DOPE    HA 1694   6.690   4.941   6.961
   14DOPE    HB 1695   6.551   4.832   6.935
   14DOPE    C2 1696   6.565   4.993   6.789
   14DOPE    HS 1697   6.485   5.044   6.847
   14DOPE   O21 1698   6.510   4.932   6.671
   14DOPE   C21 1699   6.407   4.852   6.688
   14DOPE   O22 1700   6.354   4.823   6.794
   14DOPE   C22 1701   6.354   4.810   6.551
   14DOPE   H2R 1702   6.304   4.899   6.506
   14DOPE   H2S 1703   6.275   4.733   6.569
   14DOPE    C3 1704   6.667   5.103   6.744
   14DOPE    HX 1705   6.706   5.150   6.837
   14DOPE    HY 1706   6.611   5.182   6.690
   14DOPE   O31 1707   6.779   5.052   6.669
   14DOPE   C31 1708   6.760   5.046   6.537
   14DOPE   O32 1709   6.664   5.093   6.477
   14DOPE   C32 1710   6.883   4.986   6.468
   14DOPE   H2X 1711   6.915   5.060   6.392
   14DOPE   H2Y 1712   6.965   4.973   6.542
   14DOPE   C23 1713   6.458   4.754   6.451
   14DOPE   H3R 1714   6.430   4.649   6.427
   14DOPE   H3S 1715   6.560   4.751   6.496
   14DOPE   C24 1716   6.466   4.832   6.318
   14DOPE   H4R 1717   6.532   4.920   6.333
   14DOPE   H4S 1718   6.366   4.872   6.290
   14DOPE   C25 1719   6.518   4.745   6.202
   14DOPE   H5R 1720   6.435   4.681   6.163
   14DOPE   H5S 1721   6.594   4.676   6.245
   14DOPE   C26 1722   6.587   4.821   6.089
   14DOPE   H6R 1723   6.656   4.753   6.035
   14DOPE   H6S 1724   6.649   4.901   6.135
   14DOPE   C27 1725   6.493   4.885   5.985
   14DOPE   H7R 1726   6.548   4.971   5.942
   14DOPE   H7S 1727   6.402   4.926   6.034
   14DOPE   C28 1728   6.456   4.794   5.865
   14DOPE   H8R 1729   6.548   4.741   5.832
   14DOPE   H8S 1730   6.425   4.860   5.781
   14DOPE   C29 1731   6.344   4.697   5.893
   14DOPE   H9R 1732   6.279   4.727   5.977
   14DOPE  C210 1733   6.317   4.581   5.830
   14DOPE  H10R 1734   6.231   4.522   5.864
   14DOPE  C211 1735   6.394   4.518   5.717
   14DOPE  H11R 1736   6.429   4.418   5.750
   14DOPE  H11S 1737   6.486   4.575   5.691
   14DOPE  C212 1738   6.312   4.494   5.588
   14DOPE  H12R 1739   6.208   4.463   5.614
   14DOPE  H12S 1740   6.358   4.409   5.533
   14DOPE  C213 1741   6.309   4.612   5.491
   14DOPE  H13R 1742   6.258   4.699   5.539
   14DOPE  H13S 1743   6.249   4.582   5.403
   14DOPE  C214 1744   6.448   4.657   5.442
   14DOPE  H14R 1745   6.513   4.568   5.425
   14DOPE  H14S 1746   6.494   4.719   5.522
   14DOPE  C215 1747   6.441   4.739   5.312
   14DOPE  H15R 1748   6.530   4.806   5.308
   14DOPE  H15S 1749   6.351   4.803   5.315
   14DOPE  C216 1750   6.441   4.652   5.186
   14DOPE  H16R 1751   6.361   4.576   5.193
   14DOPE  H16S 1752   6.538   4.598   5.181
   14DOPE  C217 1753   6.422   4.733   5.056
   14DOPE  H17R 1754   6.464   4.674   4.972
   14DOPE  H17S 1755   6.482   4.827   5.063
   14DOPE  C218 1756   6.276   4.766   5.025
   14DOPE  H18R 1757   6.230   4.825   5.107
   14DOPE  H18S 1758   6.217   4.673   5.012
   14DOPE  H18T 1759   6.269   4.826   4.931
   14DOPE   C33 1760   6.854   4.851   6.397
   14DOPE   H3X 1761   6.930   4.838   6.316
   14DOPE   H3Y 1762   6.754   4.853   6.349
   14DOPE   C34 1763   6.865   4.731   6.492
   14DOPE   H4X 1764   6.968   4.721   6.531
   14DOPE   H4Y 1765   6.799   4.751   6.580
   14DOPE   C35 1766   6.819   4.596   6.431
   14DOPE   H5X 1767   6.713   4.608   6.400
   14DOPE   H5Y 1768   6.821   4.518   6.510
   14DOPE   C36 1769   6.902   4.548   6.311
   14DOPE   H6X 1770   6.991   4.492   6.347
   14DOPE   H6Y 1771   6.939   4.637   6.254
   14DOPE   C37 1772   6.821   4.462   6.213
   14DOPE   H7X 1773   6.776   4.377   6.268
   14DOPE   H7Y 1774   6.739   4.524   6.172
   14DOPE   C38 1775   6.903   4.405   6.094
   14DOPE   H8X 1776   6.834   4.347   6.028
   14DOPE   H8Y 1777   6.976   4.332   6.135
   14DOPE   C39 1778   6.975   4.511   6.015
   14DOPE   H9X 1779   7.074   4.535   6.056
   14DOPE  C310 1780   6.935   4.574   5.903
   14DOPE  H10X 1781   7.000   4.650   5.859
   14DOPE  C311 1782   6.805   4.553   5.831
   14DOPE  H11X 1783   6.799   4.450   5.790
   14DOPE  H11Y 1784   6.719   4.566   5.901
   14DOPE  C312 1785   6.786   4.652   5.714
   14DOPE  H12X 1786   6.803   4.756   5.748
   14DOPE  H12Y 1787   6.681   4.646   5.680
   14DOPE  C313 1788   6.874   4.622   5.591
   14DOPE  H13X 1789   6.981   4.633   5.617
   14DOPE  H13Y 1790   6.857   4.517   5.560
   14DOPE  C314 1791   6.840   4.715   5.473
   14DOPE  H14X 1792   6.855   4.821   5.506
   14DOPE  H14Y 1793   6.733   4.703   5.448
   14DOPE  C315 1794   6.923   4.691   5.346
   14DOPE  H15X 1795   7.030   4.710   5.367
   14DOPE  H15Y 1796   6.890   4.766   5.270
   14DOPE  C316 1797   6.906   4.551   5.285
   14DOPE  H16X 1798   6.799   4.531   5.267
   14DOPE  H16Y 1799   6.943   4.476   5.358
   14DOPE  C317 1800   6.983   4.531   5.153
   14DOPE  H17X 1801   7.090   4.558   5.169
   14DOPE  H17Y 1802   6.979   4.423   5.127
   14DOPE  C318 1803   6.927   4.611   5.034
   14DOPE  H18X 1804   6.935   4.720   5.053
   14DOPE  H18Y 1805   6.985   4.588   4.942
   14DOPE  H18Z 1806   6.821   4.586   5.017
   15DOPE     N 1807   1.141   1.950   7.015
   15DOPE   HN1 1808   1.094   1.976   7.104
   15DOPE   HN2 1809   1.180   2.039   6.977
   15DOPE   HN3 1810   1.068   1.916   6.949
   15DOPE   C12 1811   1.254   1.853   7.039
   15DOPE  H12A 1812   1.315   1.847   6.946
   15DOPE  H12B 1813   1.210   1.753   7.058
   15DOPE   C11 1814   1.345   1.894   7.158
   15DOPE  H11A 1815   1.403   1.803   7.186
   15DOPE  H11B 1816   1.284   1.919   7.247
   15DOPE     P 1817   1.394   2.149   7.119
   15DOPE   O13 1818   1.514   2.235   7.107
   15DOPE   O14 1819   1.294   2.173   7.225
   15DOPE   O11 1820   1.319   2.144   6.981
   15DOPE   O12 1821   1.439   1.997   7.126
   15DOPE    C1 1822   1.387   2.109   6.861
   15DOPE    HA 1823   1.337   2.024   6.810
   15DOPE    HB 1824   1.492   2.076   6.879
   15DOPE    C2 1825   1.393   2.228   6.762
   15DOPE    HS 1826   1.397   2.323   6.820
   15DOPE   O21 1827   1.283   2.233   6.669
   15DOPE   C21 1828   1.159   2.198   6.695
   15DOPE   O22 1829   1.116   2.145   6.796
   15DOPE   C22 1830   1.073   2.225   6.571
   15DOPE   H2R 1831   0.966   2.226   6.601
   15DOPE   H2S 1832   1.089   2.138   6.504
   15DOPE    C3 1833   1.525   2.216   6.682
   15DOPE    HX 1834   1.608   2.227   6.755
   15DOPE    HY 1835   1.535   2.299   6.609
   15DOPE   O31 1836   1.534   2.084   6.623
   15DOPE   C31 1837   1.485   2.076   6.499
   15DOPE   O32 1838   1.470   2.168   6.422
   15DOPE   C32 1839   1.443   1.931   6.475
   15DOPE   H2X 1840   1.534   1.868   6.467
   15DOPE   H2Y 1841   1.385   1.899   6.565
   15DOPE   C23 1842   1.106   2.357   6.495
   15DOPE   H3R 1843   1.215   2.379   6.501
   15DOPE   H3S 1844   1.052   2.442   6.542
   15DOPE   C24 1845   1.073   2.351   6.345
   15DOPE   H4R 1846   1.095   2.451   6.301
   15DOPE   H4S 1847   0.965   2.331   6.330
   15DOPE   C25 1848   1.158   2.246   6.270
   15DOPE   H5R 1849   1.118   2.144   6.287
   15DOPE   H5S 1850   1.260   2.249   6.314
   15DOPE   C26 1851   1.175   2.270   6.119
   15DOPE   H6R 1852   1.275   2.231   6.090
   15DOPE   H6S 1853   1.175   2.379   6.097
   15DOPE   C27 1854   1.071   2.197   6.031
   15DOPE   H7R 1855   1.082   2.088   6.049
   15DOPE   H7S 1856   1.096   2.215   5.924
   15DOPE   C28 1857   0.925   2.236   6.056
   15DOPE   H8R 1858   0.898   2.211   6.161
   15DOPE   H8S 1859   0.862   2.170   5.992
   15DOPE   C29 1860   0.899   2.382   6.029
   15DOPE   H9R 1861   0.958   2.451   6.091
   15DOPE  C210 1862   0.814   2.434   5.938
   15DOPE  H10R 1863   0.807   2.543   5.928
   15DOPE  C211 1864   0.725   2.357   5.844
   15DOPE  H11R 1865   0.620   2.394   5.856
   15DOPE  H11S 1866   0.721   2.249   5.867
   15DOPE  C212 1867   0.763   2.372   5.696
   15DOPE  H12R 1868   0.771   2.479   5.666
   15DOPE  H12S 1869   0.678   2.328   5.639
   15DOPE  C213 1870   0.889   2.297   5.651
   15DOPE  H13R 1871   0.887   2.194   5.693
   15DOPE  H13S 1872   0.981   2.348   5.689
   15DOPE  C214 1873   0.891   2.290   5.498
   15DOPE  H14R 1874   0.903   2.392   5.455
   15DOPE  H14S 1875   0.791   2.253   5.466
   15DOPE  C215 1876   0.995   2.194   5.436
   15DOPE  H15R 1877   0.944   2.142   5.353
   15DOPE  H15S 1878   1.026   2.117   5.510
   15DOPE  C216 1879   1.117   2.265   5.376
   15DOPE  H16R 1880   1.191   2.284   5.457
   15DOPE  H16S 1881   1.086   2.364   5.335
   15DOPE  C217 1882   1.181   2.185   5.262
   15DOPE  H17R 1883   1.199   2.081   5.295
   15DOPE  H17S 1884   1.281   2.231   5.242
   15DOPE  C218 1885   1.103   2.185   5.131
   15DOPE  H18R 1886   1.004   2.135   5.143
   15DOPE  H18S 1887   1.159   2.131   5.052
   15DOPE  H18T 1888   1.085   2.289   5.096
   15DOPE   C33 1889   1.354   1.912   6.350
   15DOPE   H3X 1890   1.281   1.996   6.340
   15DOPE   H3Y 1891   1.295   1.819   6.363
   15DOPE   C34 1892   1.436   1.898   6.222
   15DOPE   H4X 1893   1.501   1.988   6.210
   15DOPE   H4Y 1894   1.502   1.809   6.233
   15DOPE   C35 1895   1.352   1.883   6.094
   15DOPE   H5X 1896   1.421   1.870   6.008
   15DOPE   H5Y 1897   1.295   1.976   6.078
   15DOPE   C36 1898   1.255   1.763   6.097
   15DOPE   H6X 1899   1.171   1.786   6.166
   15DOPE   H6Y 1900   1.308   1.674   6.136
   15DOPE   C37 1901   1.198   1.728   5.958
   15DOPE   H7X 1902   1.282   1.693   5.894
   15DOPE   H7Y 1903   1.127   1.642   5.969
   15DOPE   C38 1904   1.125   1.845   5.889
   15DOPE   H8X 1905   1.194   1.932   5.884
   15DOPE   H8Y 1906   1.039   1.876   5.953
   15DOPE   C39 1907   1.076   1.813   5.750
   15DOPE   H9X 1908   0.970   1.785   5.742
   15DOPE  C310 1909   1.152   1.815   5.639
   15DOPE  H10X 1910   1.105   1.792   5.542
   15DOPE  C311 1911   1.299   1.848   5.633
   15DOPE  H11X 1912   1.347   1.828   5.731
   15DOPE  H11Y 1913   1.349   1.782   5.560
   15DOPE  C312 1914   1.329   1.995   5.597
   15DOPE  H12X 1915   1.283   2.060   5.674
   15DOPE  H12Y 1916   1.283   2.021   5.500
   15DOPE  C313 1917   1.481   2.024   5.593
   15DOPE  H13X 1918   1.497   2.134   5.602
   15DOPE  H13Y 1919   1.528   1.976   5.681
   15DOPE  C314 1920   1.549   1.975   5.464
   15DOPE  H14X 1921   1.506   1.877   5.436
   15DOPE  H14Y 1922   1.657   1.960   5.482
   15DOPE  C315 1923   1.532   2.074   5.348
   15DOPE  H15X 1924   1.615   2.148   5.350
   15DOPE  H15Y 1925   1.438   2.131   5.363
   15DOPE  C316 1926   1.525   2.008   5.210
   15DOPE  H16X 1927   1.433   1.946   5.205
   15DOPE  H16Y 1928   1.613   1.940   5.196
   15DOPE  C317 1929   1.522   2.110   5.095
   15DOPE  H17X 1930   1.444   2.186   5.117
   15DOPE  H17Y 1931   1.619   2.162   5.092
   15DOPE  C318 1932   1.492   2.049   4.958
   15DOPE  H18X 1933   1.496   2.127   4.879
   15DOPE  H18Y 1934   1.567   1.971   4.933
   15DOPE  H18Z 1935   1.391   2.003   4.956
   16DOPE     N 1936   0.378   3.645   7.079
   16DOPE   HN1 1937   0.387   3.639   6.976
   16DOPE   HN2 1938   0.280   3.626   7.107
   16DOPE   HN3 1939   0.407   3.740   7.109
   16DOPE   C12 1940   0.475   3.543   7.130
   16DOPE  H12A 1941   0.440   3.444   7.094
   16DOPE  H12B 1942   0.474   3.544   7.241
   16DOPE   C11 1943   0.614   3.575   7.074
   16DOPE  H11A 1944   0.681   3.486   7.082
   16DOPE  H11B 1945   0.660   3.654   7.136
   16DOPE     P 1946   0.598   3.526   6.815
   16DOPE   O13 1947   0.700   3.419   6.829
   16DOPE   O14 1948   0.589   3.606   6.692
   16DOPE   O11 1949   0.454   3.463   6.845
   16DOPE   O12 1950   0.605   3.623   6.940
   16DOPE    C1 1951   0.429   3.328   6.806
   16DOPE    HA 1952   0.341   3.292   6.864
   16DOPE    HB 1953   0.512   3.259   6.831
   16DOPE    C2 1954   0.392   3.313   6.654
   16DOPE    HS 1955   0.350   3.211   6.640
   16DOPE   O21 1956   0.507   3.333   6.571
   16DOPE   C21 1957   0.591   3.230   6.567
   16DOPE   O22 1958   0.566   3.118   6.610
   16DOPE   C22 1959   0.722   3.273   6.504
   16DOPE   H2R 1960   0.799   3.261   6.583
   16DOPE   H2S 1961   0.718   3.381   6.478
   16DOPE    C3 1962   0.282   3.416   6.613
   16DOPE    HX 1963   0.328   3.516   6.622
   16DOPE    HY 1964   0.198   3.412   6.686
   16DOPE   O31 1965   0.234   3.399   6.479
   16DOPE   C31 1966   0.166   3.289   6.451
   16DOPE   O32 1967   0.149   3.195   6.526
   16DOPE   C32 1968   0.109   3.294   6.309
   16DOPE   H2X 1969   0.134   3.197   6.262
   16DOPE   H2Y 1970  -0.001   3.302   6.317
   16DOPE   C23 1971   0.760   3.188   6.381
   16DOPE   H3R 1972   0.742   3.080   6.400
   16DOPE   H3S 1973   0.870   3.200   6.366
   16DOPE   C24 1974   0.692   3.233   6.251
   16DOPE   H4R 1975   0.704   3.342   6.239
   16DOPE   H4S 1976   0.583   3.212   6.257
   16DOPE   C25 1977   0.753   3.162   6.129
   16DOPE   H5R 1978   0.739   3.052   6.141
   16DOPE   H5S 1979   0.862   3.181   6.128
   16DOPE   C26 1980   0.696   3.206   5.994
   16DOPE   H6R 1981   0.745   3.143   5.916
   16DOPE   H6S 1982   0.722   3.312   5.973
   16DOPE   C27 1983   0.544   3.187   5.980
   16DOPE   H7R 1984   0.490   3.279   6.012
   16DOPE   H7S 1985   0.513   3.105   6.048
   16DOPE   C28 1986   0.502   3.145   5.837
   16DOPE   H8R 1987   0.395   3.114   5.840
   16DOPE   H8S 1988   0.560   3.053   5.814
   16DOPE   C29 1989   0.521   3.250   5.731
   16DOPE   H9R 1990   0.448   3.332   5.736
   16DOPE  C210 1991   0.614   3.253   5.633
   16DOPE  H10R 1992   0.612   3.337   5.562
   16DOPE  C211 1993   0.725   3.154   5.604
   16DOPE  H11R 1994   0.731   3.075   5.682
   16DOPE  H11S 1995   0.822   3.207   5.606
   16DOPE  C212 1996   0.711   3.087   5.466
   16DOPE  H12R 1997   0.616   3.030   5.460
   16DOPE  H12S 1998   0.794   3.013   5.457
   16DOPE  C213 1999   0.721   3.184   5.347
   16DOPE  H13R 2000   0.797   3.147   5.275
   16DOPE  H13S 2001   0.756   3.283   5.383
   16DOPE  C214 2002   0.589   3.203   5.270
   16DOPE  H14R 2003   0.601   3.290   5.202
   16DOPE  H14S 2004   0.507   3.226   5.341
   16DOPE  C215 2005   0.551   3.080   5.185
   16DOPE  H15R 2006   0.538   2.992   5.251
   16DOPE  H15S 2007   0.634   3.057   5.115
   16DOPE  C216 2008   0.421   3.100   5.105
   16DOPE  H16R 2009   0.339   3.120   5.177
   16DOPE  H16S 2010   0.396   3.005   5.052
   16DOPE  C217 2011   0.424   3.213   5.000
   16DOPE  H17R 2012   0.442   3.309   5.052
   16DOPE  H17S 2013   0.324   3.220   4.952
   16DOPE  C218 2014   0.529   3.195   4.890
   16DOPE  H18R 2015   0.527   3.281   4.819
   16DOPE  H18S 2016   0.509   3.103   4.831
   16DOPE  H18T 2017   0.631   3.188   4.933
   16DOPE   C33 2018   0.165   3.408   6.219
   16DOPE   H3X 2019   0.138   3.385   6.114
   16DOPE   H3Y 2020   0.276   3.410   6.227
   16DOPE   C34 2021   0.107   3.547   6.252
   16DOPE   H4X 2022  -0.003   3.537   6.263
   16DOPE   H4Y 2023   0.147   3.583   6.349
   16DOPE   C35 2024   0.134   3.654   6.145
   16DOPE   H5X 2025   0.080   3.746   6.176
   16DOPE   H5Y 2026   0.092   3.622   6.047
   16DOPE   C36 2027   0.283   3.691   6.128
   16DOPE   H6X 2028   0.334   3.687   6.226
   16DOPE   H6Y 2029   0.287   3.796   6.092
   16DOPE   C37 2030   0.357   3.604   6.025
   16DOPE   H7X 2031   0.364   3.499   6.060
   16DOPE   H7Y 2032   0.297   3.604   5.931
   16DOPE   C38 2033   0.498   3.657   5.997
   16DOPE   H8X 2034   0.557   3.652   6.092
   16DOPE   H8Y 2035   0.491   3.765   5.971
   16DOPE   C39 2036   0.568   3.583   5.887
   16DOPE   H9X 2037   0.646   3.512   5.919
   16DOPE  C310 2038   0.543   3.596   5.756
   16DOPE  H10X 2039   0.604   3.539   5.684
   16DOPE  C311 2040   0.439   3.687   5.694
   16DOPE  H11X 2041   0.378   3.738   5.772
   16DOPE  H11Y 2042   0.490   3.768   5.637
   16DOPE  C312 2043   0.342   3.611   5.601
   16DOPE  H12X 2044   0.262   3.682   5.571
   16DOPE  H12Y 2045   0.293   3.529   5.657
   16DOPE  C313 2046   0.406   3.554   5.473
   16DOPE  H13X 2047   0.485   3.480   5.500
   16DOPE  H13Y 2048   0.329   3.500   5.415
   16DOPE  C314 2049   0.469   3.662   5.383
   16DOPE  H14X 2050   0.547   3.717   5.440
   16DOPE  H14Y 2051   0.391   3.735   5.354
   16DOPE  C315 2052   0.535   3.605   5.257
   16DOPE  H15X 2053   0.459   3.548   5.199
   16DOPE  H15Y 2054   0.616   3.535   5.285
   16DOPE  C316 2055   0.591   3.717   5.169
   16DOPE  H16X 2056   0.667   3.774   5.226
   16DOPE  H16Y 2057   0.509   3.787   5.143
   16DOPE  C317 2058   0.655   3.666   5.040
   16DOPE  H17X 2059   0.743   3.603   5.065
   16DOPE  H17Y 2060   0.582   3.600   4.988
   16DOPE  C318 2061   0.698   3.778   4.945
   16DOPE  H18X 2062   0.730   3.736   4.848
   16DOPE  H18Y 2063   0.613   3.848   4.927
   16DOPE  H18Z 2064   0.782   3.836   4.989
   17DOPE     N 2065   2.787   7.171   7.207
   17DOPE   HN1 2066   2.708   7.122   7.163
   17DOPE   HN2 2067   2.823   7.109   7.283
   17DOPE   HN3 2068   2.759   7.264   7.246
   17DOPE   C12 2069   2.895   7.191   7.104
   17DOPE  H12A 2070   2.991   7.202   7.157
   17DOPE  H12B 2071   2.872   7.285   7.050
   17DOPE   C11 2072   2.902   7.076   7.000
   17DOPE  H11A 2073   3.001   7.085   6.952
   17DOPE  H11B 2074   2.828   7.098   6.920
   17DOPE     P 2075   2.751   6.865   7.034
   17DOPE   O13 2076   2.761   6.735   7.104
   17DOPE   O14 2077   2.722   6.859   6.890
   17DOPE   O11 2078   2.652   6.959   7.111
   17DOPE   O12 2079   2.887   6.945   7.056
   17DOPE    C1 2080   2.517   6.922   7.142
   17DOPE    HA 2081   2.497   6.952   7.247
   17DOPE    HB 2082   2.501   6.812   7.139
   17DOPE    C2 2083   2.414   6.998   7.053
   17DOPE    HS 2084   2.315   6.989   7.101
   17DOPE   O21 2085   2.410   6.944   6.919
   17DOPE   C21 2086   2.360   6.821   6.911
   17DOPE   O22 2087   2.296   6.767   7.000
   17DOPE   C22 2088   2.394   6.759   6.776
   17DOPE   H2R 2089   2.365   6.652   6.780
   17DOPE   H2S 2090   2.504   6.766   6.763
   17DOPE    C3 2091   2.448   7.150   7.045
   17DOPE    HX 2092   2.464   7.188   7.148
   17DOPE    HY 2093   2.357   7.201   7.006
   17DOPE   O31 2094   2.567   7.172   6.966
   17DOPE   C31 2095   2.546   7.240   6.853
   17DOPE   O32 2096   2.462   7.326   6.839
   17DOPE   C32 2097   2.638   7.187   6.742
   17DOPE   H2X 2098   2.729   7.251   6.740
   17DOPE   H2Y 2099   2.668   7.083   6.766
   17DOPE   C23 2100   2.323   6.828   6.657
   17DOPE   H3R 2101   2.347   6.937   6.660
   17DOPE   H3S 2102   2.213   6.817   6.668
   17DOPE   C24 2103   2.366   6.774   6.519
   17DOPE   H4R 2104   2.477   6.776   6.511
   17DOPE   H4S 2105   2.326   6.842   6.441
   17DOPE   C25 2106   2.315   6.632   6.489
   17DOPE   H5R 2107   2.206   6.626   6.507
   17DOPE   H5S 2108   2.365   6.562   6.559
   17DOPE   C26 2109   2.344   6.586   6.345
   17DOPE   H6R 2110   2.333   6.475   6.341
   17DOPE   H6S 2111   2.449   6.611   6.319
   17DOPE   C27 2112   2.251   6.644   6.236
   17DOPE   H7R 2113   2.258   6.754   6.237
   17DOPE   H7S 2114   2.146   6.616   6.261
   17DOPE   C28 2115   2.289   6.594   6.095
   17DOPE   H8R 2116   2.296   6.484   6.100
   17DOPE   H8S 2117   2.391   6.633   6.075
   17DOPE   C29 2118   2.191   6.632   5.986
   17DOPE   H9R 2119   2.086   6.609   6.009
   17DOPE  C210 2120   2.218   6.687   5.865
   17DOPE  H10R 2121   2.135   6.706   5.796
   17DOPE  C211 2122   2.354   6.726   5.811
   17DOPE  H11R 2123   2.432   6.716   5.889
   17DOPE  H11S 2124   2.354   6.834   5.783
   17DOPE  C212 2125   2.401   6.643   5.689
   17DOPE  H12R 2126   2.357   6.541   5.690
   17DOPE  H12S 2127   2.511   6.631   5.702
   17DOPE  C213 2128   2.380   6.708   5.551
   17DOPE  H13R 2129   2.400   6.817   5.560
   17DOPE  H13S 2130   2.275   6.695   5.518
   17DOPE  C214 2131   2.478   6.650   5.447
   17DOPE  H14R 2132   2.449   6.547   5.420
   17DOPE  H14S 2133   2.578   6.645   5.494
   17DOPE  C215 2134   2.493   6.737   5.321
   17DOPE  H15R 2135   2.602   6.744   5.297
   17DOPE  H15S 2136   2.458   6.840   5.340
   17DOPE  C216 2137   2.425   6.680   5.196
   17DOPE  H16R 2138   2.315   6.679   5.211
   17DOPE  H16S 2139   2.457   6.574   5.181
   17DOPE  C217 2140   2.460   6.760   5.070
   17DOPE  H17R 2141   2.571   6.767   5.063
   17DOPE  H17S 2142   2.422   6.864   5.082
   17DOPE  C218 2143   2.407   6.700   4.940
   17DOPE  H18R 2144   2.443   6.596   4.928
   17DOPE  H18S 2145   2.442   6.759   4.853
   17DOPE  H18T 2146   2.296   6.699   4.939
   17DOPE   C33 2147   2.568   7.189   6.604
   17DOPE   H3X 2148   2.528   7.291   6.587
   17DOPE   H3Y 2149   2.482   7.118   6.605
   17DOPE   C34 2150   2.660   7.153   6.486
   17DOPE   H4X 2151   2.747   7.222   6.486
   17DOPE   H4Y 2152   2.699   7.050   6.498
   17DOPE   C35 2153   2.589   7.165   6.350
   17DOPE   H5X 2154   2.535   7.262   6.345
   17DOPE   H5Y 2155   2.513   7.084   6.339
   17DOPE   C36 2156   2.687   7.160   6.231
   17DOPE   H6X 2157   2.738   7.062   6.228
   17DOPE   H6Y 2158   2.765   7.237   6.249
   17DOPE   C37 2159   2.622   7.191   6.094
   17DOPE   H7X 2160   2.558   7.281   6.105
   17DOPE   H7Y 2161   2.703   7.218   6.022
   17DOPE   C38 2162   2.538   7.078   6.032
   17DOPE   H8X 2163   2.486   7.119   5.943
   17DOPE   H8Y 2164   2.458   7.048   6.104
   17DOPE   C39 2165   2.621   6.957   5.995
   17DOPE   H9X 2166   2.657   6.900   6.081
   17DOPE  C310 2167   2.655   6.915   5.872
   17DOPE  H10X 2168   2.717   6.825   5.864
   17DOPE  C311 2169   2.620   6.975   5.737
   17DOPE  H11X 2170   2.558   6.903   5.681
   17DOPE  H11Y 2171   2.561   7.069   5.746
   17DOPE  C312 2172   2.746   7.003   5.653
   17DOPE  H12X 2173   2.819   6.920   5.668
   17DOPE  H12Y 2174   2.795   7.096   5.689
   17DOPE  C313 2175   2.722   7.012   5.501
   17DOPE  H13X 2176   2.821   7.023   5.453
   17DOPE  H13Y 2177   2.678   6.917   5.464
   17DOPE  C314 2178   2.635   7.130   5.456
   17DOPE  H14X 2179   2.652   7.215   5.525
   17DOPE  H14Y 2180   2.527   7.102   5.462
   17DOPE  C315 2181   2.669   7.178   5.313
   17DOPE  H15X 2182   2.774   7.214   5.313
   17DOPE  H15Y 2183   2.604   7.265   5.287
   17DOPE  C316 2184   2.653   7.072   5.203
   17DOPE  H16X 2185   2.546   7.045   5.192
   17DOPE  H16Y 2186   2.709   6.980   5.231
   17DOPE  C317 2187   2.707   7.122   5.068
   17DOPE  H17X 2188   2.649   7.211   5.037
   17DOPE  H17Y 2189   2.812   7.154   5.081
   17DOPE  C318 2190   2.702   7.017   4.956
   17DOPE  H18X 2191   2.765   6.930   4.981
   17DOPE  H18Y 2192   2.598   6.982   4.940
   17DOPE  H18Z 2193   2.738   7.061   4.860
   18DOPE     N 2194   7.561   3.079   7.305
   18DOPE   HN1 2195   7.481   3.145   7.306
   18DOPE   HN2 2196   7.587   3.057   7.404
   18DOPE   HN3 2197   7.643   3.126   7.261
   18DOPE   C12 2198   7.524   2.955   7.229
   18DOPE  H12A 2199   7.445   2.903   7.288
   18DOPE  H12B 2200   7.614   2.891   7.221
   18DOPE   C11 2201   7.468   2.992   7.091
   18DOPE  H11A 2202   7.431   2.901   7.041
   18DOPE  H11B 2203   7.550   3.034   7.029
   18DOPE     P 2204   7.308   3.181   6.998
   18DOPE   O13 2205   7.253   3.299   7.068
   18DOPE   O14 2206   7.221   3.100   6.909
   18DOPE   O11 2207   7.440   3.222   6.923
   18DOPE   O12 2208   7.362   3.084   7.110
   18DOPE    C1 2209   7.537   3.305   6.989
   18DOPE    HA 2210   7.575   3.253   7.080
   18DOPE    HB 2211   7.492   3.400   7.023
   18DOPE    C2 2212   7.662   3.333   6.899
   18DOPE    HS 2213   7.744   3.370   6.965
   18DOPE   O21 2214   7.633   3.432   6.798
   18DOPE   C21 2215   7.604   3.552   6.843
   18DOPE   O22 2216   7.626   3.592   6.957
   18DOPE   C22 2217   7.533   3.633   6.735
   18DOPE   H2R 2218   7.610   3.679   6.670
   18DOPE   H2S 2219   7.479   3.715   6.788
   18DOPE    C3 2220   7.713   3.204   6.829
   18DOPE    HX 2221   7.726   3.127   6.908
   18DOPE    HY 2222   7.812   3.225   6.784
   18DOPE   O31 2223   7.622   3.166   6.725
   18DOPE   C31 2224   7.587   3.040   6.715
   18DOPE   O32 2225   7.635   2.947   6.778
   18DOPE   C32 2226   7.468   3.029   6.619
   18DOPE   H2X 2227   7.381   2.998   6.680
   18DOPE   H2Y 2228   7.445   3.130   6.578
   18DOPE   C23 2229   7.431   3.551   6.651
   18DOPE   H3R 2230   7.343   3.616   6.635
   18DOPE   H3S 2231   7.395   3.461   6.705
   18DOPE   C24 2232   7.486   3.511   6.513
   18DOPE   H4R 2233   7.561   3.430   6.524
   18DOPE   H4S 2234   7.537   3.599   6.469
   18DOPE   C25 2235   7.374   3.468   6.416
   18DOPE   H5R 2236   7.288   3.537   6.429
   18DOPE   H5S 2237   7.339   3.366   6.441
   18DOPE   C26 2238   7.417   3.475   6.268
   18DOPE   H6R 2239   7.493   3.397   6.247
   18DOPE   H6S 2240   7.464   3.574   6.250
   18DOPE   C27 2241   7.300   3.461   6.170
   18DOPE   H7R 2242   7.225   3.540   6.192
   18DOPE   H7S 2243   7.250   3.363   6.188
   18DOPE   C28 2244   7.341   3.469   6.021
   18DOPE   H8R 2245   7.250   3.447   5.960
   18DOPE   H8S 2246   7.413   3.387   6.000
   18DOPE   C29 2247   7.396   3.604   5.982
   18DOPE   H9R 2248   7.348   3.689   6.034
   18DOPE  C210 2249   7.493   3.629   5.893
   18DOPE  H10R 2250   7.521   3.734   5.873
   18DOPE  C211 2251   7.569   3.528   5.810
   18DOPE  H11R 2252   7.582   3.433   5.867
   18DOPE  H11S 2253   7.671   3.566   5.789
   18DOPE  C212 2254   7.499   3.494   5.676
   18DOPE  H12R 2255   7.399   3.451   5.699
   18DOPE  H12S 2256   7.558   3.416   5.624
   18DOPE  C213 2257   7.479   3.613   5.581
   18DOPE  H13R 2258   7.434   3.698   5.637
   18DOPE  H13S 2259   7.407   3.584   5.502
   18DOPE  C214 2260   7.608   3.662   5.511
   18DOPE  H14R 2261   7.690   3.674   5.585
   18DOPE  H14S 2262   7.587   3.763   5.468
   18DOPE  C215 2263   7.652   3.572   5.395
   18DOPE  H15R 2264   7.564   3.548   5.333
   18DOPE  H15S 2265   7.691   3.476   5.436
   18DOPE  C216 2266   7.759   3.638   5.306
   18DOPE  H16R 2267   7.844   3.669   5.370
   18DOPE  H16S 2268   7.716   3.729   5.260
   18DOPE  C217 2269   7.812   3.546   5.195
   18DOPE  H17R 2270   7.851   3.453   5.240
   18DOPE  H17S 2271   7.897   3.598   5.146
   18DOPE  C218 2272   7.708   3.510   5.088
   18DOPE  H18R 2273   7.667   3.602   5.041
   18DOPE  H18S 2274   7.624   3.452   5.132
   18DOPE  H18T 2275   7.755   3.448   5.008
   18DOPE   C33 2276   7.491   2.929   6.504
   18DOPE   H3X 2277   7.392   2.907   6.458
   18DOPE   H3Y 2278   7.534   2.833   6.540
   18DOPE   C34 2279   7.580   2.987   6.393
   18DOPE   H4X 2280   7.539   3.086   6.362
   18DOPE   H4Y 2281   7.683   3.004   6.431
   18DOPE   C35 2282   7.586   2.897   6.268
   18DOPE   H5X 2283   7.482   2.875   6.235
   18DOPE   H5Y 2284   7.634   2.801   6.293
   18DOPE   C36 2285   7.659   2.963   6.150
   18DOPE   H6X 2286   7.767   2.976   6.177
   18DOPE   H6Y 2287   7.616   3.064   6.133
   18DOPE   C37 2288   7.648   2.880   6.021
   18DOPE   H7X 2289   7.686   2.778   6.042
   18DOPE   H7Y 2290   7.541   2.871   5.993
   18DOPE   C38 2291   7.727   2.938   5.902
   18DOPE   H8X 2292   7.724   2.863   5.820
   18DOPE   H8Y 2293   7.834   2.947   5.932
   18DOPE   C39 2294   7.676   3.072   5.855
   18DOPE   H9X 2295   7.705   3.157   5.919
   18DOPE  C310 2296   7.602   3.097   5.746
   18DOPE  H10X 2297   7.573   3.200   5.724
   18DOPE  C311 2298   7.551   2.995   5.646
   18DOPE  H11X 2299   7.615   2.996   5.555
   18DOPE  H11Y 2300   7.558   2.892   5.688
   18DOPE  C312 2301   7.404   3.018   5.605
   18DOPE  H12X 2302   7.342   3.026   5.697
   18DOPE  H12Y 2303   7.369   2.929   5.549
   18DOPE  C313 2304   7.380   3.142   5.517
   18DOPE  H13X 2305   7.271   3.162   5.513
   18DOPE  H13Y 2306   7.427   3.231   5.564
   18DOPE  C314 2307   7.431   3.126   5.373
   18DOPE  H14X 2308   7.369   3.051   5.320
   18DOPE  H14Y 2309   7.536   3.088   5.375
   18DOPE  C315 2310   7.432   3.258   5.293
   18DOPE  H15X 2311   7.471   3.236   5.191
   18DOPE  H15Y 2312   7.501   3.330   5.341
   18DOPE  C316 2313   7.294   3.323   5.276
   18DOPE  H16X 2314   7.256   3.355   5.375
   18DOPE  H16Y 2315   7.224   3.247   5.235
   18DOPE  C317 2316   7.298   3.443   5.181
   18DOPE  H17X 2317   7.364   3.522   5.224
   18DOPE  H17Y 2318   7.343   3.411   5.085
   18DOPE  C318 2319   7.160   3.502   5.154
   18DOPE  H18X 2320   7.093   3.425   5.109
   18DOPE  H18Y 2321   7.113   3.538   5.248
   18DOPE  H18Z 2322   7.166   3.587   5.083
   19DOPE     N 2323   7.584   4.305   7.156
   19DOPE   HN1 2324   7.533   4.225   7.200
   19DOPE   HN2 2325   7.684   4.296   7.184
   19DOPE   HN3 2326   7.547   4.394   7.195
   19DOPE   C12 2327   7.561   4.302   7.008
   19DOPE  H12A 2328   7.624   4.221   6.966
   19DOPE  H12B 2329   7.593   4.400   6.966
   19DOPE   C11 2330   7.413   4.274   6.979
   19DOPE  H11A 2331   7.395   4.274   6.869
   19DOPE  H11B 2332   7.351   4.356   7.020
   19DOPE     P 2333   7.386   4.015   6.960
   19DOPE   O13 2334   7.326   3.908   7.044
   19DOPE   O14 2335   7.528   4.000   6.922
   19DOPE   O11 2336   7.296   4.043   6.833
   19DOPE   O12 2337   7.373   4.151   7.041
   19DOPE    C1 2338   7.154   4.046   6.855
   19DOPE    HA 2339   7.125   4.129   6.923
   19DOPE    HB 2340   7.123   3.950   6.901
   19DOPE    C2 2341   7.066   4.057   6.725
   19DOPE    HS 2342   6.973   3.999   6.742
   19DOPE   O21 2343   7.135   4.006   6.610
   19DOPE   C21 2344   7.160   3.878   6.610
   19DOPE   O22 2345   7.132   3.798   6.698
   19DOPE   C22 2346   7.215   3.839   6.473
   19DOPE   H2R 2347   7.169   3.903   6.395
   19DOPE   H2S 2348   7.182   3.734   6.455
   19DOPE    C3 2349   7.021   4.203   6.695
   19DOPE    HX 2350   6.975   4.244   6.788
   19DOPE    HY 2351   6.939   4.200   6.620
   19DOPE   O31 2352   7.130   4.289   6.657
   19DOPE   C31 2353   7.151   4.295   6.525
   19DOPE   O32 2354   7.088   4.234   6.440
   19DOPE   C32 2355   7.258   4.401   6.497
   19DOPE   H2X 2356   7.203   4.495   6.478
   19DOPE   H2Y 2357   7.320   4.413   6.588
   19DOPE   C23 2358   7.370   3.845   6.464
   19DOPE   H3R 2359   7.402   3.767   6.392
   19DOPE   H3S 2360   7.417   3.821   6.562
   19DOPE   C24 2361   7.425   3.978   6.412
   19DOPE   H4R 2362   7.399   4.060   6.483
   19DOPE   H4S 2363   7.375   4.001   6.316
   19DOPE   C25 2364   7.577   3.971   6.393
   19DOPE   H5R 2365   7.601   3.876   6.340
   19DOPE   H5S 2366   7.626   3.966   6.493
   19DOPE   C26 2367   7.638   4.086   6.311
   19DOPE   H6R 2368   7.748   4.070   6.308
   19DOPE   H6S 2369   7.621   4.183   6.363
   19DOPE   C27 2370   7.585   4.093   6.168
   19DOPE   H7R 2371   7.480   4.132   6.171
   19DOPE   H7S 2372   7.580   3.991   6.124
   19DOPE   C28 2373   7.667   4.185   6.075
   19DOPE   H8R 2374   7.684   4.282   6.126
   19DOPE   H8S 2375   7.605   4.207   5.986
   19DOPE   C29 2376   7.798   4.122   6.035
   19DOPE   H9R 2377   7.877   4.127   6.112
   19DOPE  C210 2378   7.826   4.063   5.917
   19DOPE  H10R 2379   7.927   4.021   5.902
   19DOPE  C211 2380   7.734   4.045   5.799
   19DOPE  H11R 2381   7.628   4.071   5.823
   19DOPE  H11S 2382   7.733   3.938   5.769
   19DOPE  C212 2383   7.777   4.128   5.677
   19DOPE  H12R 2384   7.719   4.094   5.588
   19DOPE  H12S 2385   7.884   4.109   5.655
   19DOPE  C213 2386   7.756   4.280   5.695
   19DOPE  H13R 2387   7.846   4.335   5.661
   19DOPE  H13S 2388   7.742   4.303   5.802
   19DOPE  C214 2389   7.634   4.333   5.617
   19DOPE  H14R 2390   7.605   4.432   5.659
   19DOPE  H14S 2391   7.549   4.263   5.631
   19DOPE  C215 2392   7.662   4.351   5.467
   19DOPE  H15R 2393   7.692   4.255   5.422
   19DOPE  H15S 2394   7.747   4.422   5.456
   19DOPE  C216 2395   7.543   4.409   5.388
   19DOPE  H16R 2396   7.580   4.440   5.288
   19DOPE  H16S 2397   7.505   4.501   5.439
   19DOPE  C217 2398   7.427   4.311   5.367
   19DOPE  H17R 2399   7.385   4.281   5.466
   19DOPE  H17S 2400   7.467   4.219   5.320
   19DOPE  C218 2401   7.315   4.368   5.280
   19DOPE  H18R 2402   7.272   4.460   5.327
   19DOPE  H18S 2403   7.233   4.294   5.268
   19DOPE  H18T 2404   7.353   4.395   5.180
   19DOPE   C33 2405   7.351   4.370   6.377
   19DOPE   H3X 2406   7.411   4.279   6.397
   19DOPE   H3Y 2407   7.421   4.455   6.366
   19DOPE   C34 2408   7.276   4.352   6.243
   19DOPE   H4X 2409   7.246   4.246   6.233
   19DOPE   H4Y 2410   7.183   4.412   6.244
   19DOPE   C35 2411   7.358   4.394   6.121
   19DOPE   H5X 2412   7.464   4.362   6.133
   19DOPE   H5Y 2413   7.359   4.505   6.114
   19DOPE   C36 2414   7.303   4.335   5.991
   19DOPE   H6X 2415   7.192   4.344   5.992
   19DOPE   H6Y 2416   7.327   4.226   5.987
   19DOPE   C37 2417   7.357   4.405   5.866
   19DOPE   H7X 2418   7.333   4.513   5.873
   19DOPE   H7Y 2419   7.468   4.396   5.866
   19DOPE   C38 2420   7.304   4.348   5.733
   19DOPE   H8X 2421   7.335   4.241   5.727
   19DOPE   H8Y 2422   7.357   4.400   5.651
   19DOPE   C39 2423   7.155   4.363   5.711
   19DOPE   H9X 2424   7.125   4.460   5.669
   19DOPE  C310 2425   7.060   4.271   5.737
   19DOPE  H10X 2426   6.955   4.297   5.716
   19DOPE  C311 2427   7.081   4.133   5.795
   19DOPE  H11X 2428   7.189   4.113   5.815
   19DOPE  H11Y 2429   7.029   4.127   5.893
   19DOPE  C312 2430   7.027   4.020   5.705
   19DOPE  H12X 2431   6.917   4.032   5.693
   19DOPE  H12Y 2432   7.043   3.924   5.758
   19DOPE  C313 2433   7.091   4.010   5.566
   19DOPE  H13X 2434   7.044   3.923   5.514
   19DOPE  H13Y 2435   7.068   4.100   5.506
   19DOPE  C314 2436   7.243   3.989   5.569
   19DOPE  H14X 2437   7.270   3.940   5.665
   19DOPE  H14Y 2438   7.295   4.087   5.565
   19DOPE  C315 2439   7.293   3.898   5.456
   19DOPE  H15X 2440   7.242   3.800   5.465
   19DOPE  H15Y 2441   7.402   3.879   5.468
   19DOPE  C316 2442   7.269   3.953   5.314
   19DOPE  H16X 2443   7.349   4.026   5.289
   19DOPE  H16Y 2444   7.172   4.007   5.310
   19DOPE  C317 2445   7.266   3.840   5.210
   19DOPE  H17X 2446   7.361   3.783   5.215
   19DOPE  H17Y 2447   7.183   3.771   5.238
   19DOPE  C318 2448   7.242   3.889   5.067
   19DOPE  H18X 2449   7.149   3.949   5.061
   19DOPE  H18Y 2450   7.327   3.953   5.033
   19DOPE  H18Z 2451   7.233   3.803   4.997
   20DOPE     N 2452   6.359   6.837   7.037
   20DOPE   HN1 2453   6.431   6.888   6.984
   20DOPE   HN2 2454   6.403   6.759   7.090
   20DOPE   HN3 2455   6.293   6.794   6.969
   20DOPE   C12 2456   6.283   6.927   7.130
   20DOPE  H12A 2457   6.258   7.020   7.075
   20DOPE  H12B 2458   6.350   6.952   7.214
   20DOPE   C11 2459   6.153   6.860   7.181
   20DOPE  H11A 2460   6.114   6.923   7.264
   20DOPE  H11B 2461   6.175   6.761   7.226
   20DOPE     P 2462   6.033   6.727   6.986
   20DOPE   O13 2463   5.985   6.614   7.068
   20DOPE   O14 2464   6.160   6.706   6.913
   20DOPE   O11 2465   5.919   6.771   6.889
   20DOPE   O12 2466   6.053   6.854   7.079
   20DOPE    C1 2467   5.797   6.826   6.941
   20DOPE    HA 2468   5.815   6.895   7.027
   20DOPE    HB 2469   5.732   6.744   6.977
   20DOPE    C2 2470   5.720   6.908   6.833
   20DOPE    HS 2471   5.616   6.924   6.868
   20DOPE   O21 2472   5.719   6.840   6.706
   20DOPE   C21 2473   5.663   6.721   6.706
   20DOPE   O22 2474   5.581   6.682   6.788
   20DOPE   C22 2475   5.717   6.640   6.589
   20DOPE   H2R 2476   5.722   6.534   6.623
   20DOPE   H2S 2477   5.821   6.673   6.567
   20DOPE    C3 2478   5.784   7.047   6.811
   20DOPE    HX 2479   5.778   7.104   6.906
   20DOPE    HY 2480   5.724   7.099   6.733
   20DOPE   O31 2481   5.922   7.033   6.771
   20DOPE   C31 2482   5.976   7.134   6.709
   20DOPE   O32 2483   5.923   7.243   6.689
   20DOPE   C32 2484   6.122   7.102   6.677
   20DOPE   H2X 2485   6.170   7.199   6.652
   20DOPE   H2Y 2486   6.169   7.061   6.769
   20DOPE   C23 2487   5.628   6.648   6.464
   20DOPE   H3R 2488   5.527   6.608   6.487
   20DOPE   H3S 2489   5.672   6.583   6.386
   20DOPE   C24 2490   5.613   6.790   6.405
   20DOPE   H4R 2491   5.557   6.854   6.477
   20DOPE   H4S 2492   5.551   6.783   6.312
   20DOPE   C25 2493   5.746   6.858   6.371
   20DOPE   H5R 2494   5.810   6.785   6.318
   20DOPE   H5S 2495   5.797   6.886   6.465
   20DOPE   C26 2496   5.732   6.982   6.282
   20DOPE   H6R 2497   5.645   7.044   6.314
   20DOPE   H6S 2498   5.712   6.949   6.178
   20DOPE   C27 2499   5.859   7.069   6.286
   20DOPE   H7R 2500   5.945   7.000   6.302
   20DOPE   H7S 2501   5.855   7.138   6.372
   20DOPE   C28 2502   5.890   7.144   6.155
   20DOPE   H8R 2503   5.901   7.068   6.075
   20DOPE   H8S 2504   5.989   7.194   6.166
   20DOPE   C29 2505   5.786   7.247   6.121
   20DOPE   H9R 2506   5.757   7.313   6.204
   20DOPE  C210 2507   5.726   7.264   6.002
   20DOPE  H10R 2508   5.653   7.345   5.990
   20DOPE  C211 2509   5.751   7.184   5.876
   20DOPE  H11R 2510   5.666   7.115   5.857
   20DOPE  H11S 2511   5.843   7.122   5.882
   20DOPE  C212 2512   5.765   7.278   5.755
   20DOPE  H12R 2513   5.844   7.353   5.776
   20DOPE  H12S 2514   5.670   7.333   5.738
   20DOPE  C213 2515   5.807   7.207   5.626
   20DOPE  H13R 2516   5.907   7.160   5.641
   20DOPE  H13S 2517   5.818   7.283   5.546
   20DOPE  C214 2518   5.709   7.100   5.577
   20DOPE  H14R 2519   5.605   7.138   5.588
   20DOPE  H14S 2520   5.718   7.008   5.639
   20DOPE  C215 2521   5.730   7.066   5.428
   20DOPE  H15R 2522   5.715   7.159   5.370
   20DOPE  H15S 2523   5.653   6.993   5.395
   20DOPE  C216 2524   5.869   7.009   5.398
   20DOPE  H16R 2525   5.874   6.905   5.436
   20DOPE  H16S 2526   5.948   7.067   5.450
   20DOPE  C217 2527   5.903   7.011   5.248
   20DOPE  H17R 2528   5.818   6.968   5.191
   20DOPE  H17S 2529   5.991   6.944   5.233
   20DOPE  C218 2530   5.938   7.150   5.195
   20DOPE  H18R 2531   6.025   7.192   5.251
   20DOPE  H18S 2532   5.852   7.220   5.208
   20DOPE  H18T 2533   5.964   7.146   5.087
   20DOPE   C33 2534   6.143   7.004   6.559
   20DOPE   H3X 2535   6.246   7.020   6.519
   20DOPE   H3Y 2536   6.072   7.025   6.476
   20DOPE   C34 2537   6.136   6.856   6.600
   20DOPE   H4X 2538   6.200   6.841   6.689
   20DOPE   H4Y 2539   6.032   6.830   6.631
   20DOPE   C35 2540   6.185   6.758   6.491
   20DOPE   H5X 2541   6.199   6.658   6.537
   20DOPE   H5Y 2542   6.284   6.792   6.455
   20DOPE   C36 2543   6.088   6.744   6.373
   20DOPE   H6X 2544   6.073   6.843   6.326
   20DOPE   H6Y 2545   5.991   6.708   6.413
   20DOPE   C37 2546   6.135   6.646   6.264
   20DOPE   H7X 2547   6.222   6.689   6.210
   20DOPE   H7Y 2548   6.169   6.553   6.313
   20DOPE   C38 2549   6.025   6.608   6.162
   20DOPE   H8X 2550   5.940   6.565   6.219
   20DOPE   H8Y 2551   6.065   6.526   6.099
   20DOPE   C39 2552   5.975   6.723   6.077
   20DOPE   H9X 2553   5.953   6.815   6.134
   20DOPE  C310 2554   5.955   6.725   5.944
   20DOPE  H10X 2555   5.918   6.817   5.898
   20DOPE  C311 2556   5.978   6.611   5.846
   20DOPE  H11X 2557   6.064   6.636   5.780
   20DOPE  H11Y 2558   6.003   6.517   5.898
   20DOPE  C312 2559   5.856   6.582   5.755
   20DOPE  H12X 2560   5.768   6.552   5.817
   20DOPE  H12Y 2561   5.882   6.494   5.693
   20DOPE  C313 2562   5.817   6.698   5.662
   20DOPE  H13X 2563   5.739   6.759   5.712
   20DOPE  H13Y 2564   5.906   6.763   5.645
   20DOPE  C314 2565   5.766   6.652   5.524
   20DOPE  H14X 2566   5.716   6.738   5.474
   20DOPE  H14Y 2567   5.691   6.571   5.536
   20DOPE  C315 2568   5.880   6.604   5.431
   20DOPE  H15X 2569   5.923   6.509   5.471
   20DOPE  H15Y 2570   5.961   6.680   5.433
   20DOPE  C316 2571   5.838   6.583   5.285
   20DOPE  H16X 2572   5.930   6.564   5.225
   20DOPE  H16Y 2573   5.792   6.677   5.246
   20DOPE  C317 2574   5.742   6.466   5.263
   20DOPE  H17X 2575   5.786   6.375   5.308
   20DOPE  H17Y 2576   5.646   6.486   5.316
   20DOPE  C318 2577   5.713   6.439   5.115
   20DOPE  H18X 2578   5.664   6.527   5.068
   20DOPE  H18Y 2579   5.807   6.418   5.060
   20DOPE  H18Z 2580   5.646   6.351   5.104
   21DOPE     N 2581   3.380   7.312   6.854
   21DOPE   HN1 2582   3.414   7.300   6.757
   21DOPE   HN2 2583   3.417   7.234   6.912
   21DOPE   HN3 2584   3.277   7.306   6.857
   21DOPE   C12 2585   3.425   7.440   6.919
   21DOPE  H12A 2586   3.413   7.524   6.847
   21DOPE  H12B 2587   3.533   7.428   6.944
   21DOPE   C11 2588   3.349   7.468   7.051
   21DOPE  H11A 2589   3.417   7.530   7.113
   21DOPE  H11B 2590   3.331   7.375   7.108
   21DOPE     P 2591   3.094   7.479   6.984
   21DOPE   O13 2592   2.997   7.489   7.095
   21DOPE   O14 2593   3.123   7.343   6.932
   21DOPE   O11 2594   3.051   7.571   6.864
   21DOPE   O12 2595   3.230   7.544   7.030
   21DOPE    C1 2596   3.147   7.609   6.764
   21DOPE    HA 2597   3.189   7.519   6.714
   21DOPE    HB 2598   3.230   7.666   6.811
   21DOPE    C2 2599   3.085   7.699   6.655
   21DOPE    HS 2600   3.032   7.782   6.708
   21DOPE   O21 2601   2.995   7.622   6.573
   21DOPE   C21 2602   2.868   7.621   6.610
   21DOPE   O22 2603   2.817   7.695   6.692
   21DOPE   C22 2604   2.795   7.509   6.536
   21DOPE   H2R 2605   2.789   7.424   6.608
   21DOPE   H2S 2606   2.856   7.475   6.449
   21DOPE    C3 2607   3.192   7.768   6.565
   21DOPE    HX 2608   3.266   7.821   6.630
   21DOPE    HY 2609   3.140   7.847   6.507
   21DOPE   O31 2610   3.255   7.680   6.470
   21DOPE   C31 2611   3.370   7.624   6.504
   21DOPE   O32 2612   3.423   7.633   6.614
   21DOPE   C32 2613   3.429   7.547   6.386
   21DOPE   H2X 2614   3.538   7.570   6.384
   21DOPE   H2Y 2615   3.417   7.438   6.407
   21DOPE   C23 2616   2.651   7.547   6.492
   21DOPE   H3R 2617   2.599   7.599   6.575
   21DOPE   H3S 2618   2.595   7.453   6.471
   21DOPE   C24 2619   2.644   7.632   6.364
   21DOPE   H4R 2620   2.703   7.725   6.378
   21DOPE   H4S 2621   2.538   7.662   6.348
   21DOPE   C25 2622   2.691   7.557   6.238
   21DOPE   H5R 2623   2.634   7.462   6.229
   21DOPE   H5S 2624   2.799   7.531   6.249
   21DOPE   C26 2625   2.672   7.638   6.109
   21DOPE   H6R 2626   2.735   7.729   6.114
   21DOPE   H6S 2627   2.566   7.671   6.102
   21DOPE   C27 2628   2.707   7.560   5.980
   21DOPE   H7R 2629   2.694   7.627   5.893
   21DOPE   H7S 2630   2.633   7.477   5.969
   21DOPE   C28 2631   2.848   7.498   5.976
   21DOPE   H8R 2632   2.857   7.442   5.880
   21DOPE   H8S 2633   2.858   7.422   6.057
   21DOPE   C29 2634   2.956   7.602   5.990
   21DOPE   H9R 2635   2.956   7.654   6.087
   21DOPE  C210 2636   3.050   7.636   5.899
   21DOPE  H10R 2637   3.121   7.716   5.926
   21DOPE  C211 2638   3.070   7.579   5.761
   21DOPE  H11R 2639   3.008   7.489   5.742
   21DOPE  H11S 2640   3.176   7.545   5.752
   21DOPE  C212 2641   3.044   7.683   5.650
   21DOPE  H12R 2642   3.089   7.645   5.556
   21DOPE  H12S 2643   3.097   7.777   5.674
   21DOPE  C213 2644   2.895   7.713   5.624
   21DOPE  H13R 2645   2.890   7.799   5.554
   21DOPE  H13S 2646   2.844   7.742   5.718
   21DOPE  C214 2647   2.817   7.596   5.561
   21DOPE  H14R 2648   2.792   7.521   5.640
   21DOPE  H14S 2649   2.881   7.546   5.486
   21DOPE  C215 2650   2.689   7.643   5.490
   21DOPE  H15R 2651   2.718   7.714   5.410
   21DOPE  H15S 2652   2.624   7.697   5.562
   21DOPE  C216 2653   2.612   7.526   5.427
   21DOPE  H16R 2654   2.566   7.466   5.508
   21DOPE  H16S 2655   2.685   7.461   5.374
   21DOPE  C217 2656   2.505   7.569   5.326
   21DOPE  H17R 2657   2.453   7.478   5.288
   21DOPE  H17S 2658   2.555   7.616   5.239
   21DOPE  C218 2659   2.400   7.667   5.380
   21DOPE  H18R 2660   2.349   7.624   5.469
   21DOPE  H18S 2661   2.324   7.689   5.303
   21DOPE  H18T 2662   2.448   7.763   5.410
   21DOPE   C33 2663   3.368   7.582   6.248
   21DOPE   H3X 2664   3.360   7.692   6.238
   21DOPE   H3Y 2665   3.266   7.539   6.240
   21DOPE   C34 2666   3.455   7.532   6.131
   21DOPE   H4X 2667   3.407   7.564   6.035
   21DOPE   H4Y 2668   3.553   7.584   6.136
   21DOPE   C35 2669   3.481   7.381   6.128
   21DOPE   H5X 2670   3.537   7.351   6.219
   21DOPE   H5Y 2671   3.546   7.359   6.041
   21DOPE   C36 2672   3.355   7.294   6.116
   21DOPE   H6X 2673   3.293   7.304   6.207
   21DOPE   H6Y 2674   3.387   7.188   6.110
   21DOPE   C37 2675   3.269   7.329   5.993
   21DOPE   H7X 2676   3.223   7.429   6.010
   21DOPE   H7Y 2677   3.334   7.338   5.903
   21DOPE   C38 2678   3.155   7.229   5.965
   21DOPE   H8X 2679   3.086   7.277   5.892
   21DOPE   H8Y 2680   3.096   7.214   6.058
   21DOPE   C39 2681   3.209   7.098   5.914
   21DOPE   H9X 2682   3.277   7.047   5.984
   21DOPE  C310 2683   3.185   7.040   5.795
   21DOPE  H10X 2684   3.234   6.944   5.773
   21DOPE  C311 2685   3.097   7.092   5.685
   21DOPE  H11X 2686   3.033   7.009   5.648
   21DOPE  H11Y 2687   3.028   7.172   5.719
   21DOPE  C312 2688   3.178   7.146   5.565
   21DOPE  H12X 2689   3.253   7.071   5.534
   21DOPE  H12Y 2690   3.232   7.239   5.595
   21DOPE  C313 2691   3.087   7.175   5.444
   21DOPE  H13X 2692   3.031   7.082   5.423
   21DOPE  H13Y 2693   3.013   7.254   5.470
   21DOPE  C314 2694   3.165   7.212   5.317
   21DOPE  H14X 2695   3.096   7.198   5.230
   21DOPE  H14Y 2696   3.249   7.142   5.304
   21DOPE  C315 2697   3.218   7.356   5.312
   21DOPE  H15X 2698   3.277   7.368   5.219
   21DOPE  H15Y 2699   3.286   7.375   5.398
   21DOPE  C316 2700   3.105   7.460   5.311
   21DOPE  H16X 2701   3.060   7.465   5.412
   21DOPE  H16Y 2702   3.026   7.428   5.240
   21DOPE  C317 2703   3.153   7.600   5.269
   21DOPE  H17X 2704   3.231   7.634   5.341
   21DOPE  H17Y 2705   3.201   7.590   5.169
   21DOPE  C318 2706   3.042   7.704   5.260
   21DOPE  H18X 2707   2.965   7.673   5.186
   21DOPE  H18Y 2708   2.992   7.718   5.358
   21DOPE  H18Z 2709   3.084   7.802   5.228
   22DOPE     N 2710   7.340   4.862   7.039
   22DOPE   HN1 2711   7.273   4.804   7.095
   22DOPE   HN2 2712   7.290   4.911   6.962
   22DOPE   HN3 2713   7.413   4.800   6.999
   22DOPE   C12 2714   7.413   4.958   7.131
   22DOPE  H12A 2715   7.461   4.895   7.209
   22DOPE  H12B 2716   7.338   5.025   7.179
   22DOPE   C11 2717   7.523   5.039   7.059
   22DOPE  H11A 2718   7.598   5.074   7.133
   22DOPE  H11B 2719   7.476   5.131   7.017
   22DOPE     P 2720   7.673   4.840   6.974
   22DOPE   O13 2721   7.578   4.729   6.999
   22DOPE   O14 2722   7.771   4.866   7.082
   22DOPE   O11 2723   7.746   4.821   6.835
   22DOPE   O12 2724   7.584   4.968   6.952
   22DOPE    C1 2725   7.707   4.901   6.722
   22DOPE    HA 2726   7.757   5.000   6.727
   22DOPE    HB 2727   7.598   4.917   6.716
   22DOPE    C2 2728   7.750   4.833   6.589
   22DOPE    HS 2729   7.856   4.804   6.602
   22DOPE   O21 2730   7.736   4.929   6.482
   22DOPE   C21 2731   7.800   4.891   6.371
   22DOPE   O22 2732   7.874   4.794   6.363
   22DOPE   C22 2733   7.779   4.994   6.260
   22DOPE   H2R 2734   7.862   5.067   6.266
   22DOPE   H2S 2735   7.683   5.047   6.277
   22DOPE    C3 2736   7.667   4.702   6.564
   22DOPE    HX 2737   7.689   4.635   6.649
   22DOPE    HY 2738   7.703   4.650   6.473
   22DOPE   O31 2739   7.524   4.726   6.562
   22DOPE   C31 2740   7.471   4.749   6.442
   22DOPE   O32 2741   7.533   4.753   6.337
   22DOPE   C32 2742   7.320   4.765   6.458
   22DOPE   H2X 2743   7.287   4.701   6.543
   22DOPE   H2Y 2744   7.298   4.871   6.483
   22DOPE   C23 2745   7.778   4.927   6.120
   22DOPE   H3R 2746   7.686   4.867   6.109
   22DOPE   H3S 2747   7.864   4.858   6.111
   22DOPE   C24 2748   7.789   5.027   6.004
   22DOPE   H4R 2749   7.883   5.085   6.014
   22DOPE   H4S 2750   7.704   5.098   6.008
   22DOPE   C25 2751   7.788   4.955   5.868
   22DOPE   H5R 2752   7.690   4.904   5.855
   22DOPE   H5S 2753   7.866   4.875   5.870
   22DOPE   C26 2754   7.815   5.045   5.747
   22DOPE   H6R 2755   7.814   4.981   5.656
   22DOPE   H6S 2756   7.917   5.090   5.755
   22DOPE   C27 2757   7.711   5.157   5.729
   22DOPE   H7R 2758   7.729   5.238   5.803
   22DOPE   H7S 2759   7.611   5.114   5.750
   22DOPE   C28 2760   7.707   5.215   5.586
   22DOPE   H8R 2761   7.625   5.290   5.582
   22DOPE   H8S 2762   7.678   5.132   5.517
   22DOPE   C29 2763   7.836   5.278   5.540
   22DOPE   H9R 2764   7.916   5.286   5.615
   22DOPE  C210 2765   7.857   5.324   5.415
   22DOPE  H10R 2766   7.954   5.370   5.390
   22DOPE  C211 2767   7.755   5.320   5.304
   22DOPE  H11R 2768   7.679   5.400   5.321
   22DOPE  H11S 2769   7.700   5.224   5.305
   22DOPE  C212 2770   7.815   5.341   5.164
   22DOPE  H12R 2771   7.887   5.260   5.139
   22DOPE  H12S 2772   7.870   5.437   5.162
   22DOPE  C213 2773   7.706   5.347   5.054
   22DOPE  H13R 2774   7.749   5.393   4.962
   22DOPE  H13S 2775   7.625   5.414   5.090
   22DOPE  C214 2776   7.649   5.210   5.018
   22DOPE  H14R 2777   7.631   5.151   5.110
   22DOPE  H14S 2778   7.724   5.155   4.957
   22DOPE  C215 2779   7.516   5.216   4.941
   22DOPE  H15R 2780   7.495   5.116   4.899
   22DOPE  H15S 2781   7.524   5.287   4.856
   22DOPE  C216 2782   7.398   5.255   5.031
   22DOPE  H16R 2783   7.407   5.361   5.063
   22DOPE  H16S 2784   7.403   5.192   5.123
   22DOPE  C217 2785   7.260   5.233   4.967
   22DOPE  H17R 2786   7.183   5.241   5.046
   22DOPE  H17S 2787   7.256   5.130   4.926
   22DOPE  C218 2788   7.224   5.334   4.857
   22DOPE  H18R 2789   7.305   5.340   4.782
   22DOPE  H18S 2790   7.208   5.434   4.902
   22DOPE  H18T 2791   7.131   5.303   4.806
   22DOPE   C33 2792   7.240   4.725   6.331
   22DOPE   H3X 2793   7.136   4.702   6.361
   22DOPE   H3Y 2794   7.283   4.633   6.286
   22DOPE   C34 2795   7.234   4.835   6.225
   22DOPE   H4X 2796   7.181   4.923   6.266
   22DOPE   H4Y 2797   7.337   4.866   6.197
   22DOPE   C35 2798   7.159   4.789   6.100
   22DOPE   H5X 2799   7.055   4.762   6.130
   22DOPE   H5Y 2800   7.208   4.698   6.059
   22DOPE   C36 2801   7.149   4.896   5.991
   22DOPE   H6X 2802   7.111   4.990   6.037
   22DOPE   H6Y 2803   7.074   4.864   5.915
   22DOPE   C37 2804   7.282   4.925   5.921
   22DOPE   H7X 2805   7.264   5.007   5.848
   22DOPE   H7Y 2806   7.356   4.963   5.995
   22DOPE   C38 2807   7.346   4.806   5.845
   22DOPE   H8X 2808   7.376   4.729   5.918
   22DOPE   H8Y 2809   7.440   4.843   5.798
   22DOPE   C39 2810   7.254   4.748   5.740
   22DOPE   H9X 2811   7.202   4.656   5.769
   22DOPE  C310 2812   7.231   4.800   5.618
   22DOPE  H10X 2813   7.163   4.748   5.550
   22DOPE  C311 2814   7.292   4.927   5.563
   22DOPE  H11X 2815   7.213   4.991   5.519
   22DOPE  H11Y 2816   7.341   4.987   5.643
   22DOPE  C312 2817   7.399   4.897   5.457
   22DOPE  H12X 2818   7.475   4.829   5.500
   22DOPE  H12Y 2819   7.450   4.992   5.432
   22DOPE  C313 2820   7.341   4.838   5.327
   22DOPE  H13X 2821   7.307   4.734   5.343
   22DOPE  H13Y 2822   7.251   4.899   5.301
   22DOPE  C314 2823   7.437   4.845   5.208
   22DOPE  H14X 2824   7.486   4.945   5.203
   22DOPE  H14Y 2825   7.376   4.835   5.116
   22DOPE  C315 2826   7.543   4.732   5.202
   22DOPE  H15X 2827   7.589   4.736   5.101
   22DOPE  H15Y 2828   7.490   4.635   5.209
   22DOPE  C316 2829   7.656   4.737   5.306
   22DOPE  H16X 2830   7.730   4.658   5.280
   22DOPE  H16Y 2831   7.616   4.711   5.406
   22DOPE  C317 2832   7.731   4.871   5.314
   22DOPE  H17X 2833   7.662   4.950   5.351
   22DOPE  H17Y 2834   7.812   4.862   5.390
   22DOPE  C318 2835   7.792   4.916   5.182
   22DOPE  H18X 2836   7.851   5.009   5.195
   22DOPE  H18Y 2837   7.859   4.837   5.142
   22DOPE  H18Z 2838   7.713   4.935   5.106
   23DOPE     N 2839   4.744   7.373   7.243
   23DOPE   HN1 2840   4.706   7.348   7.337
   23DOPE   HN2 2841   4.842   7.406   7.255
   23DOPE   HN3 2842   4.685   7.446   7.197
   23DOPE   C12 2843   4.741   7.256   7.150
   23DOPE  H12A 2844   4.634   7.232   7.131
   23DOPE  H12B 2845   4.788   7.170   7.202
   23DOPE   C11 2846   4.811   7.288   7.016
   23DOPE  H11A 2847   4.781   7.214   6.939
   23DOPE  H11B 2848   4.921   7.274   7.031
   23DOPE     P 2849   4.646   7.472   6.928
   23DOPE   O13 2850   4.571   7.483   7.057
   23DOPE   O14 2851   4.589   7.380   6.828
   23DOPE   O11 2852   4.673   7.616   6.869
   23DOPE   O12 2853   4.789   7.421   6.971
   23DOPE    C1 2854   4.676   7.732   6.954
   23DOPE    HA 2855   4.669   7.708   7.062
   23DOPE    HB 2856   4.587   7.795   6.930
   23DOPE    C2 2857   4.805   7.820   6.936
   23DOPE    HS 2858   4.797   7.905   7.007
   23DOPE   O21 2859   4.816   7.867   6.801
   23DOPE   C21 2860   4.733   7.965   6.770
   23DOPE   O22 2861   4.662   8.026   6.849
   23DOPE   C22 2862   4.745   7.998   6.622
   23DOPE   H2R 2863   4.825   7.936   6.577
   23DOPE   H2S 2864   4.774   8.105   6.613
   23DOPE    C3 2865   4.936   7.744   6.974
   23DOPE    HX 2866   4.923   7.707   7.078
   23DOPE    HY 2867   5.020   7.816   6.975
   23DOPE   O31 2868   4.960   7.631   6.889
   23DOPE   C31 2869   5.032   7.653   6.780
   23DOPE   O32 2870   5.105   7.749   6.762
   23DOPE   C32 2871   5.019   7.534   6.685
   23DOPE   H2X 2872   5.122   7.493   6.673
   23DOPE   H2Y 2873   4.954   7.457   6.731
   23DOPE   C23 2874   4.612   7.974   6.548
   23DOPE   H3R 2875   4.532   8.040   6.587
   23DOPE   H3S 2876   4.579   7.869   6.566
   23DOPE   C24 2877   4.625   7.994   6.396
   23DOPE   H4R 2878   4.710   7.935   6.359
   23DOPE   H4S 2879   4.646   8.101   6.373
   23DOPE   C25 2880   4.498   7.949   6.323
   23DOPE   H5R 2881   4.416   8.021   6.340
   23DOPE   H5S 2882   4.466   7.852   6.366
   23DOPE   C26 2883   4.519   7.926   6.172
   23DOPE   H6R 2884   4.429   7.872   6.134
   23DOPE   H6S 2885   4.606   7.860   6.156
   23DOPE   C27 2886   4.537   8.055   6.090
   23DOPE   H7R 2887   4.637   8.098   6.115
   23DOPE   H7S 2888   4.460   8.129   6.119
   23DOPE   C28 2889   4.531   8.029   5.938
   23DOPE   H8R 2890   4.604   7.950   5.913
   23DOPE   H8S 2891   4.564   8.121   5.884
   23DOPE   C29 2892   4.391   7.993   5.893
   23DOPE   H9R 2893   4.322   8.079   5.887
   23DOPE  C210 2894   4.344   7.871   5.863
   23DOPE  H10R 2895   4.238   7.861   5.834
   23DOPE  C211 2896   4.420   7.740   5.864
   23DOPE  H11R 2897   4.391   7.681   5.954
   23DOPE  H11S 2898   4.530   7.757   5.873
   23DOPE  C212 2899   4.394   7.653   5.739
   23DOPE  H12R 2900   4.292   7.611   5.746
   23DOPE  H12S 2901   4.465   7.568   5.741
   23DOPE  C213 2902   4.406   7.726   5.604
   23DOPE  H13R 2903   4.327   7.804   5.598
   23DOPE  H13S 2904   4.386   7.654   5.521
   23DOPE  C214 2905   4.541   7.794   5.579
   23DOPE  H14R 2906   4.617   7.717   5.554
   23DOPE  H14S 2907   4.575   7.845   5.672
   23DOPE  C215 2908   4.536   7.901   5.468
   23DOPE  H15R 2909   4.636   7.950   5.462
   23DOPE  H15S 2910   4.462   7.978   5.498
   23DOPE  C216 2911   4.500   7.844   5.330
   23DOPE  H16R 2912   4.397   7.804   5.333
   23DOPE  H16S 2913   4.569   7.760   5.307
   23DOPE  C217 2914   4.511   7.948   5.218
   23DOPE  H17R 2915   4.489   7.898   5.121
   23DOPE  H17S 2916   4.615   7.986   5.212
   23DOPE  C218 2917   4.416   8.067   5.234
   23DOPE  H18R 2918   4.442   8.126   5.324
   23DOPE  H18S 2919   4.311   8.032   5.246
   23DOPE  H18T 2920   4.420   8.134   5.146
   23DOPE   C33 2921   4.965   7.573   6.545
   23DOPE   H3X 2922   4.991   7.493   6.474
   23DOPE   H3Y 2923   5.013   7.667   6.509
   23DOPE   C34 2924   4.812   7.589   6.545
   23DOPE   H4X 2925   4.764   7.493   6.571
   23DOPE   H4Y 2926   4.783   7.662   6.624
   23DOPE   C35 2927   4.756   7.639   6.410
   23DOPE   H5X 2928   4.802   7.738   6.387
   23DOPE   H5Y 2929   4.647   7.655   6.422
   23DOPE   C36 2930   4.781   7.545   6.292
   23DOPE   H6X 2931   4.741   7.444   6.316
   23DOPE   H6Y 2932   4.890   7.536   6.273
   23DOPE   C37 2933   4.712   7.596   6.164
   23DOPE   H7X 2934   4.603   7.602   6.183
   23DOPE   H7Y 2935   4.747   7.699   6.143
   23DOPE   C38 2936   4.735   7.509   6.039
   23DOPE   H8X 2937   4.664   7.541   5.961
   23DOPE   H8Y 2938   4.708   7.404   6.064
   23DOPE   C39 2939   4.877   7.516   5.990
   23DOPE   H9X 2940   4.946   7.443   6.036
   23DOPE  C310 2941   4.926   7.604   5.900
   23DOPE  H10X 2942   5.032   7.599   5.872
   23DOPE  C311 2943   4.847   7.712   5.831
   23DOPE  H11X 2944   4.738   7.688   5.827
   23DOPE  H11Y 2945   4.857   7.807   5.887
   23DOPE  C312 2946   4.892   7.738   5.686
   23DOPE  H12X 2947   4.998   7.773   5.684
   23DOPE  H12Y 2948   4.831   7.821   5.645
   23DOPE  C313 2949   4.878   7.617   5.592
   23DOPE  H13X 2950   4.947   7.536   5.624
   23DOPE  H13Y 2951   4.774   7.576   5.600
   23DOPE  C314 2952   4.907   7.655   5.446
   23DOPE  H14X 2953   5.012   7.692   5.442
   23DOPE  H14Y 2954   4.841   7.739   5.415
   23DOPE  C315 2955   4.893   7.539   5.347
   23DOPE  H15X 2956   4.947   7.451   5.387
   23DOPE  H15Y 2957   4.944   7.569   5.252
   23DOPE  C316 2958   4.749   7.501   5.314
   23DOPE  H16X 2959   4.694   7.590   5.276
   23DOPE  H16Y 2960   4.698   7.468   5.408
   23DOPE  C317 2961   4.739   7.388   5.210
   23DOPE  H17X 2962   4.802   7.303   5.244
   23DOPE  H17Y 2963   4.634   7.352   5.207
   23DOPE  C318 2964   4.781   7.428   5.068
   23DOPE  H18X 2965   4.888   7.457   5.065
   23DOPE  H18Y 2966   4.766   7.343   4.998
   23DOPE  H18Z 2967   4.720   7.514   5.032
   24DOPE     N 2968   6.816   6.382   7.204
   24DOPE   HN1 2969   6.772   6.308   7.262
   24DOPE   HN2 2970   6.866   6.339   7.124
   24DOPE   HN3 2971   6.886   6.434   7.260
   24DOPE   C12 2972   6.718   6.480   7.144
   24DOPE  H12A 2973   6.776   6.567   7.108
   24DOPE  H12B 2974   6.648   6.513   7.224
   24DOPE   C11 2975   6.640   6.417   7.026
   24DOPE  H11A 2976   6.598   6.497   6.962
   24DOPE  H11B 2977   6.554   6.360   7.067
   24DOPE     P 2978   6.839   6.375   6.858
   24DOPE   O13 2979   6.945   6.419   6.952
   24DOPE   O14 2980   6.788   6.472   6.760
   24DOPE   O11 2981   6.883   6.239   6.790
   24DOPE   O12 2982   6.721   6.327   6.951
   24DOPE    C1 2983   6.799   6.123   6.807
   24DOPE    HA 2984   6.702   6.139   6.755
   24DOPE    HB 2985   6.778   6.102   6.914
   24DOPE    C2 2986   6.862   5.992   6.750
   24DOPE    HS 2987   6.947   5.965   6.816
   24DOPE   O21 2988   6.904   6.013   6.614
   24DOPE   C21 2989   7.026   6.063   6.603
   24DOPE   O22 2990   7.108   6.071   6.693
   24DOPE   C22 2991   7.055   6.110   6.460
   24DOPE   H2R 2992   7.165   6.128   6.456
   24DOPE   H2S 2993   7.004   6.208   6.447
   24DOPE    C3 2994   6.763   5.873   6.760
   24DOPE    HX 2995   6.746   5.853   6.868
   24DOPE    HY 2996   6.810   5.782   6.718
   24DOPE   O31 2997   6.637   5.906   6.700
   24DOPE   C31 2998   6.626   5.873   6.572
   24DOPE   O32 2999   6.693   5.790   6.514
   24DOPE   C32 3000   6.521   5.962   6.508
   24DOPE   H2X 3001   6.510   5.925   6.403
   24DOPE   H2Y 3002   6.425   5.948   6.561
   24DOPE   C23 3003   7.016   6.013   6.347
   24DOPE   H3R 3004   7.025   5.907   6.379
   24DOPE   H3S 3005   7.089   6.028   6.264
   24DOPE   C24 3006   6.877   6.040   6.289
   24DOPE   H4R 3007   6.862   6.150   6.281
   24DOPE   H4S 3008   6.799   6.000   6.359
   24DOPE   C25 3009   6.857   5.980   6.149
   24DOPE   H5R 3010   6.865   5.869   6.155
   24DOPE   H5S 3011   6.938   6.017   6.084
   24DOPE   C26 3012   6.722   6.018   6.086
   24DOPE   H6R 3013   6.734   6.025   5.975
   24DOPE   H6S 3014   6.695   6.120   6.121
   24DOPE   C27 3015   6.609   5.920   6.119
   24DOPE   H7R 3016   6.513   5.975   6.122
   24DOPE   H7S 3017   6.627   5.879   6.221
   24DOPE   C28 3018   6.596   5.803   6.019
   24DOPE   H8R 3019   6.522   5.731   6.060
   24DOPE   H8S 3020   6.693   5.750   6.015
   24DOPE   C29 3021   6.550   5.852   5.884
   24DOPE   H9R 3022   6.461   5.916   5.887
   24DOPE  C210 3023   6.604   5.825   5.764
   24DOPE  H10R 3024   6.558   5.870   5.674
   24DOPE  C211 3025   6.724   5.738   5.734
   24DOPE  H11R 3026   6.771   5.699   5.827
   24DOPE  H11S 3027   6.802   5.798   5.683
   24DOPE  C212 3028   6.688   5.617   5.646
   24DOPE  H12R 3029   6.605   5.561   5.693
   24DOPE  H12S 3030   6.776   5.548   5.642
   24DOPE  C213 3031   6.650   5.654   5.501
   24DOPE  H13R 3032   6.573   5.734   5.503
   24DOPE  H13S 3033   6.602   5.566   5.453
   24DOPE  C214 3034   6.769   5.698   5.415
   24DOPE  H14R 3035   6.837   5.764   5.473
   24DOPE  H14S 3036   6.731   5.758   5.329
   24DOPE  C215 3037   6.847   5.580   5.356
   24DOPE  H15R 3038   6.778   5.522   5.291
   24DOPE  H15S 3039   6.880   5.512   5.438
   24DOPE  C216 3040   6.969   5.624   5.275
   24DOPE  H16R 3041   7.051   5.650   5.345
   24DOPE  H16S 3042   6.944   5.715   5.217
   24DOPE  C217 3043   7.018   5.516   5.176
   24DOPE  H17R 3044   7.020   5.418   5.228
   24DOPE  H17S 3045   7.122   5.540   5.145
   24DOPE  C218 3046   6.932   5.506   5.049
   24DOPE  H18R 3047   6.970   5.425   4.984
   24DOPE  H18S 3048   6.935   5.602   4.993
   24DOPE  H18T 3049   6.826   5.484   5.075
   24DOPE   C33 3050   6.564   6.111   6.508
   24DOPE   H3X 3051   6.675   6.116   6.506
   24DOPE   H3Y 3052   6.531   6.161   6.601
   24DOPE   C34 3053   6.514   6.188   6.385
   24DOPE   H4X 3054   6.522   6.121   6.297
   24DOPE   H4Y 3055   6.406   6.215   6.397
   24DOPE   C35 3056   6.598   6.313   6.356
   24DOPE   H5X 3057   6.705   6.284   6.365
   24DOPE   H5Y 3058   6.580   6.392   6.432
   24DOPE   C36 3059   6.576   6.368   6.214
   24DOPE   H6X 3060   6.496   6.445   6.216
   24DOPE   H6Y 3061   6.540   6.285   6.149
   24DOPE   C37 3062   6.705   6.423   6.152
   24DOPE   H7X 3063   6.745   6.504   6.216
   24DOPE   H7Y 3064   6.781   6.342   6.151
   24DOPE   C38 3065   6.683   6.473   6.008
   24DOPE   H8X 3066   6.606   6.553   6.009
   24DOPE   H8Y 3067   6.640   6.389   5.949
   24DOPE   C39 3068   6.811   6.524   5.946
   24DOPE   H9X 3069   6.832   6.630   5.963
   24DOPE  C310 3070   6.898   6.451   5.874
   24DOPE  H10X 3071   6.987   6.501   5.832
   24DOPE  C311 3072   6.888   6.304   5.840
   24DOPE  H11X 3073   6.983   6.253   5.868
   24DOPE  H11Y 3074   6.808   6.254   5.899
   24DOPE  C312 3075   6.860   6.278   5.691
   24DOPE  H12X 3076   6.764   6.325   5.662
   24DOPE  H12Y 3077   6.849   6.169   5.676
   24DOPE  C313 3078   6.972   6.328   5.598
   24DOPE  H13X 3079   6.979   6.439   5.604
   24DOPE  H13Y 3080   7.069   6.287   5.633
   24DOPE  C314 3081   6.951   6.288   5.451
   24DOPE  H14X 3082   6.859   6.337   5.412
   24DOPE  H14Y 3083   6.936   6.178   5.445
   24DOPE  C315 3084   7.071   6.325   5.364
   24DOPE  H15X 3085   7.161   6.274   5.404
   24DOPE  H15Y 3086   7.089   6.435   5.372
   24DOPE  C316 3087   7.054   6.289   5.216
   24DOPE  H16X 3088   6.979   6.357   5.171
   24DOPE  H16Y 3089   7.015   6.185   5.208
   24DOPE  C317 3090   7.186   6.298   5.137
   24DOPE  H17X 3091   7.238   6.393   5.164
   24DOPE  H17Y 3092   7.252   6.215   5.169
   24DOPE  C318 3093   7.167   6.295   4.985
   24DOPE  H18X 3094   7.105   6.381   4.952
   24DOPE  H18Y 3095   7.265   6.301   4.933
   24DOPE  H18Z 3096   7.117   6.201   4.954
   25DOPE     N 3097   0.042   6.136   6.988
   25DOPE   HN1 3098   0.011   6.063   7.056
   25DOPE   HN2 3099   0.081   6.083   6.908
   25DOPE   HN3 3100   0.117   6.194   7.033
   25DOPE   C12 3101  -0.082   6.214   6.956
   25DOPE  H12A 3102  -0.140   6.155   6.883
   25DOPE  H12B 3103  -0.053   6.311   6.910
   25DOPE   C11 3104  -0.163   6.234   7.086
   25DOPE  H11A 3105  -0.265   6.270   7.060
   25DOPE  H11B 3106  -0.115   6.315   7.145
   25DOPE     P 3107  -0.241   5.985   7.115
   25DOPE   O13 3108  -0.334   6.021   7.007
   25DOPE   O14 3109  -0.289   5.908   7.231
   25DOPE   O11 3110  -0.114   5.915   7.051
   25DOPE   O12 3111  -0.169   6.116   7.168
   25DOPE    C1 3112  -0.127   5.775   7.023
   25DOPE    HA 3113  -0.218   5.753   6.963
   25DOPE    HB 3114  -0.134   5.718   7.118
   25DOPE    C2 3115  -0.006   5.721   6.943
   25DOPE    HS 3116   0.088   5.757   6.991
   25DOPE   O21 3117  -0.016   5.759   6.806
   25DOPE   C21 3118   0.053   5.862   6.762
   25DOPE   O22 3119   0.123   5.937   6.829
   25DOPE   C22 3120   0.033   5.872   6.611
   25DOPE   H2R 3121  -0.073   5.902   6.593
   25DOPE   H2S 3122   0.048   5.770   6.570
   25DOPE    C3 3123  -0.005   5.565   6.949
   25DOPE    HX 3124   0.002   5.535   7.056
   25DOPE    HY 3125   0.087   5.528   6.900
   25DOPE   O31 3126  -0.126   5.511   6.893
   25DOPE   C31 3127  -0.122   5.492   6.761
   25DOPE   O32 3128  -0.021   5.491   6.693
   25DOPE   C32 3129  -0.263   5.477   6.707
   25DOPE   H2X 3130  -0.295   5.373   6.726
   25DOPE   H2Y 3131  -0.330   5.546   6.763
   25DOPE   C23 3132   0.128   5.971   6.541
   25DOPE   H3R 3133   0.233   5.937   6.558
   25DOPE   H3S 3134   0.117   6.073   6.584
   25DOPE   C24 3135   0.104   5.979   6.389
   25DOPE   H4R 3136   0.186   6.038   6.343
   25DOPE   H4S 3137   0.009   6.031   6.368
   25DOPE   C25 3138   0.100   5.841   6.321
   25DOPE   H5R 3139   0.002   5.791   6.340
   25DOPE   H5S 3140   0.178   5.776   6.367
   25DOPE   C26 3141   0.125   5.844   6.170
   25DOPE   H6R 3142   0.227   5.885   6.153
   25DOPE   H6S 3143   0.053   5.912   6.120
   25DOPE   C27 3144   0.116   5.704   6.107
   25DOPE   H7R 3145   0.011   5.684   6.075
   25DOPE   H7S 3146   0.140   5.629   6.185
   25DOPE   C28 3147   0.215   5.682   5.991
   25DOPE   H8R 3148   0.223   5.572   5.974
   25DOPE   H8S 3149   0.316   5.715   6.022
   25DOPE   C29 3150   0.175   5.751   5.863
   25DOPE   H9R 3151   0.223   5.848   5.844
   25DOPE  C210 3152   0.086   5.704   5.774
   25DOPE  H10R 3153   0.063   5.763   5.684
   25DOPE  C211 3154   0.009   5.575   5.787
   25DOPE  H11R 3155   0.044   5.513   5.872
   25DOPE  H11S 3156   0.021   5.512   5.696
   25DOPE  C212 3157  -0.141   5.604   5.811
   25DOPE  H12R 3158  -0.152   5.678   5.893
   25DOPE  H12S 3159  -0.190   5.511   5.847
   25DOPE  C213 3160  -0.217   5.652   5.687
   25DOPE  H13R 3161  -0.171   5.744   5.646
   25DOPE  H13S 3162  -0.320   5.677   5.719
   25DOPE  C214 3163  -0.228   5.546   5.576
   25DOPE  H14R 3164  -0.270   5.453   5.620
   25DOPE  H14S 3165  -0.128   5.524   5.535
   25DOPE  C215 3166  -0.319   5.593   5.462
   25DOPE  H15R 3167  -0.284   5.694   5.430
   25DOPE  H15S 3168  -0.423   5.604   5.498
   25DOPE  C216 3169  -0.319   5.501   5.338
   25DOPE  H16R 3170  -0.215   5.476   5.308
   25DOPE  H16S 3171  -0.364   5.560   5.255
   25DOPE  C217 3172  -0.401   5.373   5.354
   25DOPE  H17R 3173  -0.437   5.343   5.253
   25DOPE  H17S 3174  -0.491   5.394   5.416
   25DOPE  C218 3175  -0.324   5.254   5.412
   25DOPE  H18R 3176  -0.299   5.270   5.519
   25DOPE  H18S 3177  -0.230   5.237   5.356
   25DOPE  H18T 3178  -0.386   5.162   5.404
   25DOPE   C33 3179  -0.271   5.509   6.556
   25DOPE   H3X 3180  -0.370   5.477   6.517
   25DOPE   H3Y 3181  -0.194   5.451   6.500
   25DOPE   C34 3182  -0.253   5.657   6.523
   25DOPE   H4X 3183  -0.325   5.718   6.583
   25DOPE   H4Y 3184  -0.151   5.688   6.553
   25DOPE   C35 3185  -0.275   5.690   6.375
   25DOPE   H5X 3186  -0.371   5.645   6.341
   25DOPE   H5Y 3187  -0.194   5.644   6.315
   25DOPE   C36 3188  -0.280   5.841   6.349
   25DOPE   H6X 3189  -0.185   5.888   6.382
   25DOPE   H6Y 3190  -0.362   5.886   6.410
   25DOPE   C37 3191  -0.304   5.874   6.201
   25DOPE   H7X 3192  -0.230   5.820   6.138
   25DOPE   H7Y 3193  -0.405   5.836   6.174
   25DOPE   C38 3194  -0.294   6.025   6.172
   25DOPE   H8X 3195  -0.188   6.056   6.180
   25DOPE   H8Y 3196  -0.349   6.080   6.251
   25DOPE   C39 3197  -0.352   6.059   6.037
   25DOPE   H9X 3198  -0.457   6.093   6.039
   25DOPE  C310 3199  -0.290   6.049   5.918
   25DOPE  H10X 3200  -0.347   6.075   5.828
   25DOPE  C311 3201  -0.150   6.001   5.893
   25DOPE  H11X 3202  -0.088   6.008   5.985
   25DOPE  H11Y 3203  -0.152   5.894   5.864
   25DOPE  C312 3204  -0.076   6.077   5.781
   25DOPE  H12X 3205   0.025   6.032   5.770
   25DOPE  H12Y 3206  -0.061   6.183   5.810
   25DOPE  C313 3207  -0.148   6.071   5.645
   25DOPE  H13X 3208  -0.186   5.968   5.628
   25DOPE  H13Y 3209  -0.235   6.139   5.647
   25DOPE  C314 3210  -0.057   6.111   5.527
   25DOPE  H14X 3211   0.012   6.191   5.561
   25DOPE  H14Y 3212  -0.119   6.153   5.445
   25DOPE  C315 3213   0.023   5.993   5.471
   25DOPE  H15X 3214   0.061   5.932   5.555
   25DOPE  H15Y 3215   0.111   6.031   5.415
   25DOPE  C316 3216  -0.060   5.905   5.376
   25DOPE  H16X 3217  -0.074   5.961   5.280
   25DOPE  H16Y 3218  -0.161   5.887   5.418
   25DOPE  C317 3219   0.005   5.770   5.348
   25DOPE  H17X 3220   0.115   5.786   5.338
   25DOPE  H17Y 3221  -0.010   5.703   5.435
   25DOPE  C318 3222  -0.044   5.703   5.220
   25DOPE  H18X 3223   0.005   5.604   5.206
   25DOPE  H18Y 3224  -0.154   5.688   5.224
   25DOPE  H18Z 3225  -0.021   5.766   5.131
   26DOPE     N 3226   0.678   6.315   6.915
   26DOPE   HN1 3227   0.717   6.411   6.924
   26DOPE   HN2 3228   0.722   6.264   6.994
   26DOPE   HN3 3229   0.706   6.273   6.824
   26DOPE   C12 3230   0.529   6.326   6.934
   26DOPE  H12A 3231   0.503   6.268   7.025
   26DOPE  H12B 3232   0.479   6.282   6.845
   26DOPE   C11 3233   0.489   6.474   6.952
   26DOPE  H11A 3234   0.379   6.478   6.968
   26DOPE  H11B 3235   0.509   6.531   6.859
   26DOPE     P 3236   0.674   6.629   7.056
   26DOPE   O13 3237   0.783   6.550   6.994
   26DOPE   O14 3238   0.696   6.683   7.192
   26DOPE   O11 3239   0.620   6.740   6.957
   26DOPE   O12 3240   0.553   6.529   7.067
   26DOPE    C1 3241   0.527   6.839   7.004
   26DOPE    HA 3242   0.581   6.933   7.025
   26DOPE    HB 3243   0.476   6.809   7.098
   26DOPE    C2 3244   0.412   6.869   6.903
   26DOPE    HS 3245   0.338   6.931   6.958
   26DOPE   O21 3246   0.352   6.743   6.864
   26DOPE   C21 3247   0.245   6.755   6.788
   26DOPE   O22 3248   0.178   6.856   6.773
   26DOPE   C22 3249   0.219   6.620   6.720
   26DOPE   H2R 3250   0.115   6.622   6.682
   26DOPE   H2S 3251   0.226   6.541   6.797
   26DOPE    C3 3252   0.460   6.953   6.780
   26DOPE    HX 3253   0.545   7.017   6.813
   26DOPE    HY 3254   0.377   7.022   6.752
   26DOPE   O31 3255   0.491   6.869   6.667
   26DOPE   C31 3256   0.598   6.897   6.597
   26DOPE   O32 3257   0.674   6.991   6.613
   26DOPE   C32 3258   0.610   6.789   6.489
   26DOPE   H2X 3259   0.612   6.691   6.542
   26DOPE   H2Y 3260   0.519   6.794   6.426
   26DOPE   C23 3261   0.319   6.593   6.605
   26DOPE   H3R 3262   0.422   6.607   6.644
   26DOPE   H3S 3263   0.305   6.667   6.524
   26DOPE   C24 3264   0.312   6.450   6.547
   26DOPE   H4R 3265   0.325   6.378   6.630
   26DOPE   H4S 3266   0.397   6.436   6.477
   26DOPE   C25 3267   0.182   6.416   6.472
   26DOPE   H5R 3268   0.096   6.425   6.543
   26DOPE   H5S 3269   0.186   6.310   6.439
   26DOPE   C26 3270   0.151   6.503   6.349
   26DOPE   H6R 3271   0.144   6.610   6.379
   26DOPE   H6S 3272   0.052   6.473   6.309
   26DOPE   C27 3273   0.255   6.493   6.235
   26DOPE   H7R 3274   0.266   6.387   6.203
   26DOPE   H7S 3275   0.353   6.526   6.275
   26DOPE   C28 3276   0.220   6.583   6.115
   26DOPE   H8R 3277   0.314   6.598   6.058
   26DOPE   H8S 3278   0.191   6.683   6.155
   26DOPE   C29 3279   0.110   6.529   6.027
   26DOPE   H9R 3280   0.017   6.502   6.080
   26DOPE  C210 3281   0.115   6.512   5.894
   26DOPE  H10R 3282   0.027   6.470   5.842
   26DOPE  C211 3283   0.233   6.544   5.804
   26DOPE  H11R 3284   0.297   6.622   5.850
   26DOPE  H11S 3285   0.197   6.587   5.708
   26DOPE  C212 3286   0.322   6.422   5.776
   26DOPE  H12R 3287   0.333   6.361   5.868
   26DOPE  H12S 3288   0.423   6.458   5.748
   26DOPE  C213 3289   0.271   6.333   5.661
   26DOPE  H13R 3290   0.161   6.318   5.670
   26DOPE  H13S 3291   0.319   6.233   5.668
   26DOPE  C214 3292   0.306   6.391   5.523
   26DOPE  H14R 3293   0.416   6.404   5.517
   26DOPE  H14S 3294   0.260   6.492   5.513
   26DOPE  C215 3295   0.260   6.305   5.405
   26DOPE  H15R 3296   0.149   6.294   5.408
   26DOPE  H15S 3297   0.305   6.204   5.412
   26DOPE  C216 3298   0.299   6.369   5.270
   26DOPE  H16R 3299   0.409   6.377   5.264
   26DOPE  H16S 3300   0.258   6.473   5.267
   26DOPE  C217 3301   0.246   6.293   5.149
   26DOPE  H17R 3302   0.135   6.285   5.157
   26DOPE  H17S 3303   0.287   6.190   5.150
   26DOPE  C218 3304   0.281   6.360   5.016
   26DOPE  H18R 3305   0.240   6.302   4.930
   26DOPE  H18S 3306   0.391   6.368   5.004
   26DOPE  H18T 3307   0.238   6.463   5.011
   26DOPE   C33 3308   0.736   6.801   6.401
   26DOPE   H3X 3309   0.827   6.808   6.464
   26DOPE   H3Y 3310   0.731   6.894   6.339
   26DOPE   C34 3311   0.748   6.679   6.310
   26DOPE   H4X 3312   0.753   6.587   6.372
   26DOPE   H4Y 3313   0.657   6.672   6.246
   26DOPE   C35 3314   0.872   6.684   6.220
   26DOPE   H5X 3315   0.961   6.703   6.284
   26DOPE   H5Y 3316   0.862   6.769   6.150
   26DOPE   C36 3317   0.897   6.554   6.141
   26DOPE   H6X 3318   0.916   6.471   6.212
   26DOPE   H6Y 3319   0.988   6.567   6.079
   26DOPE   C37 3320   0.780   6.514   6.048
   26DOPE   H7X 3321   0.689   6.500   6.110
   26DOPE   H7Y 3322   0.760   6.597   5.977
   26DOPE   C38 3323   0.810   6.385   5.970
   26DOPE   H8X 3324   0.839   6.306   6.043
   26DOPE   H8Y 3325   0.898   6.403   5.906
   26DOPE   C39 3326   0.689   6.339   5.892
   26DOPE   H9X 3327   0.598   6.329   5.953
   26DOPE  C310 3328   0.682   6.310   5.761
   26DOPE  H10X 3329   0.585   6.279   5.720
   26DOPE  C311 3330   0.793   6.317   5.659
   26DOPE  H11X 3331   0.889   6.352   5.702
   26DOPE  H11Y 3332   0.811   6.216   5.616
   26DOPE  C312 3333   0.754   6.412   5.544
   26DOPE  H12X 3334   0.663   6.375   5.493
   26DOPE  H12Y 3335   0.836   6.412   5.468
   26DOPE  C313 3336   0.733   6.557   5.590
   26DOPE  H13X 3337   0.649   6.562   5.663
   26DOPE  H13Y 3338   0.824   6.591   5.644
   26DOPE  C314 3339   0.703   6.655   5.476
   26DOPE  H14X 3340   0.784   6.650   5.400
   26DOPE  H14Y 3341   0.703   6.758   5.518
   26DOPE  C315 3342   0.567   6.630   5.409
   26DOPE  H15X 3343   0.490   6.617   5.488
   26DOPE  H15Y 3344   0.571   6.536   5.349
   26DOPE  C316 3345   0.523   6.746   5.319
   26DOPE  H16X 3346   0.602   6.766   5.243
   26DOPE  H16Y 3347   0.513   6.836   5.383
   26DOPE  C317 3348   0.389   6.722   5.248
   26DOPE  H17X 3349   0.400   6.636   5.179
   26DOPE  H17Y 3350   0.313   6.696   5.324
   26DOPE  C318 3351   0.341   6.844   5.169
   26DOPE  H18X 3352   0.244   6.823   5.119
   26DOPE  H18Y 3353   0.328   6.932   5.236
   26DOPE  H18Z 3354   0.416   6.872   5.091
   27DOPE     N 3355   5.859   7.494   6.756
   27DOPE   HN1 3356   5.756   7.506   6.751
   27DOPE   HN2 3357   5.906   7.561   6.691
   27DOPE   HN3 3358   5.884   7.397   6.729
   27DOPE   C12 3359   5.908   7.521   6.896
   27DOPE  H12A 3360   5.858   7.451   6.966
   27DOPE  H12B 3361   5.876   7.625   6.921
   27DOPE   C11 3362   6.061   7.505   6.904
   27DOPE  H11A 3363   6.112   7.555   6.819
   27DOPE  H11B 3364   6.085   7.396   6.896
   27DOPE     P 3365   6.110   7.708   7.060
   27DOPE   O13 3366   6.234   7.754   7.124
   27DOPE   O14 3367   5.984   7.738   7.133
   27DOPE   O11 3368   6.097   7.770   6.916
   27DOPE   O12 3369   6.112   7.553   7.028
   27DOPE    C1 3370   6.086   7.912   6.901
   27DOPE    HA 3371   6.156   7.966   6.968
   27DOPE    HB 3372   5.983   7.945   6.925
   27DOPE    C2 3373   6.118   7.957   6.756
   27DOPE    HS 3374   6.120   8.068   6.760
   27DOPE   O21 3375   6.011   7.914   6.670
   27DOPE   C21 3376   6.013   7.970   6.550
   27DOPE   O22 3377   6.102   8.041   6.506
   27DOPE   C22 3378   5.882   7.935   6.479
   27DOPE   H2R 3379   5.800   7.965   6.547
   27DOPE   H2S 3380   5.878   7.824   6.465
   27DOPE    C3 3381   6.260   7.910   6.710
   27DOPE    HX 3382   6.326   7.917   6.799
   27DOPE    HY 3383   6.297   7.984   6.635
   27DOPE   O31 3384   6.264   7.776   6.653
   27DOPE   C31 3385   6.388   7.744   6.616
   27DOPE   O32 3386   6.487   7.813   6.636
   27DOPE   C32 3387   6.391   7.609   6.546
   27DOPE   H2X 3388   6.449   7.541   6.613
   27DOPE   H2Y 3389   6.288   7.569   6.535
   27DOPE   C23 3390   5.864   8.008   6.344
   27DOPE   H3R 3391   5.888   8.115   6.355
   27DOPE   H3S 3392   5.757   8.001   6.315
   27DOPE   C24 3393   5.947   7.947   6.231
   27DOPE   H4R 3394   5.915   7.842   6.214
   27DOPE   H4S 3395   6.055   7.945   6.259
   27DOPE   C25 3396   5.932   8.026   6.100
   27DOPE   H5R 3397   5.981   8.125   6.112
   27DOPE   H5S 3398   5.824   8.043   6.083
   27DOPE   C26 3399   5.989   7.954   5.977
   27DOPE   H6R 3400   5.957   8.008   5.886
   27DOPE   H6S 3401   5.946   7.852   5.973
   27DOPE   C27 3402   6.143   7.944   5.974
   27DOPE   H7R 3403   6.178   7.894   6.067
   27DOPE   H7S 3404   6.186   8.046   5.971
   27DOPE   C28 3405   6.190   7.863   5.852
   27DOPE   H8R 3406   6.144   7.909   5.762
   27DOPE   H8S 3407   6.148   7.760   5.861
   27DOPE   C29 3408   6.340   7.854   5.839
   27DOPE   H9R 3409   6.392   7.828   5.933
   27DOPE  C210 3410   6.413   7.872   5.728
   27DOPE  H10R 3411   6.522   7.862   5.733
   27DOPE  C211 3412   6.360   7.904   5.590
   27DOPE  H11R 3413   6.369   8.013   5.572
   27DOPE  H11S 3414   6.252   7.879   5.580
   27DOPE  C212 3415   6.435   7.832   5.476
   27DOPE  H12R 3416   6.544   7.855   5.485
   27DOPE  H12S 3417   6.401   7.873   5.379
   27DOPE  C213 3418   6.417   7.679   5.475
   27DOPE  H13R 3419   6.433   7.639   5.577
   27DOPE  H13S 3420   6.495   7.636   5.408
   27DOPE  C214 3421   6.280   7.633   5.423
   27DOPE  H14R 3422   6.271   7.663   5.316
   27DOPE  H14S 3423   6.200   7.685   5.479
   27DOPE  C215 3424   6.256   7.481   5.434
   27DOPE  H15R 3425   6.156   7.458   5.392
   27DOPE  H15S 3426   6.253   7.454   5.542
   27DOPE  C216 3427   6.361   7.393   5.364
   27DOPE  H16R 3428   6.332   7.287   5.378
   27DOPE  H16S 3429   6.459   7.407   5.413
   27DOPE  C217 3430   6.377   7.419   5.213
   27DOPE  H17R 3431   6.457   7.352   5.175
   27DOPE  H17S 3432   6.413   7.524   5.198
   27DOPE  C218 3433   6.250   7.397   5.130
   27DOPE  H18R 3434   6.170   7.467   5.161
   27DOPE  H18S 3435   6.213   7.293   5.143
   27DOPE  H18T 3436   6.271   7.413   5.022
   27DOPE   C33 3437   6.462   7.615   6.409
   27DOPE   H3X 3438   6.503   7.515   6.384
   27DOPE   H3Y 3439   6.549   7.684   6.414
   27DOPE   C34 3440   6.370   7.658   6.293
   27DOPE   H4X 3441   6.310   7.747   6.321
   27DOPE   H4Y 3442   6.435   7.688   6.207
   27DOPE   C35 3443   6.280   7.544   6.244
   27DOPE   H5X 3444   6.207   7.516   6.323
   27DOPE   H5Y 3445   6.344   7.455   6.224
   27DOPE   C36 3446   6.204   7.577   6.114
   27DOPE   H6X 3447   6.276   7.615   6.039
   27DOPE   H6Y 3448   6.130   7.658   6.133
   27DOPE   C37 3449   6.134   7.453   6.056
   27DOPE   H7X 3450   6.210   7.373   6.045
   27DOPE   H7Y 3451   6.058   7.415   6.128
   27DOPE   C38 3452   6.069   7.476   5.918
   27DOPE   H8X 3453   6.046   7.376   5.876
   27DOPE   H8Y 3454   6.145   7.522   5.850
   27DOPE   C39 3455   5.942   7.557   5.924
   27DOPE   H9X 3456   5.889   7.550   6.020
   27DOPE  C310 3457   5.890   7.632   5.826
   27DOPE  H10X 3458   5.796   7.686   5.845
   27DOPE  C311 3459   5.945   7.653   5.687
   27DOPE  H11X 3460   5.980   7.759   5.678
   27DOPE  H11Y 3461   6.033   7.589   5.666
   27DOPE  C312 3462   5.839   7.628   5.578
   27DOPE  H12X 3463   5.746   7.685   5.601
   27DOPE  H12Y 3464   5.813   7.520   5.577
   27DOPE  C313 3465   5.884   7.668   5.436
   27DOPE  H13X 3466   5.979   7.616   5.411
   27DOPE  H13Y 3467   5.807   7.634   5.364
   27DOPE  C314 3468   5.902   7.820   5.418
   27DOPE  H14X 3469   5.988   7.855   5.479
   27DOPE  H14Y 3470   5.810   7.871   5.456
   27DOPE  C315 3471   5.923   7.863   5.272
   27DOPE  H15X 3472   5.925   7.974   5.268
   27DOPE  H15Y 3473   5.838   7.829   5.210
   27DOPE  C316 3474   6.055   7.813   5.212
   27DOPE  H16X 3475   6.052   7.702   5.202
   27DOPE  H16Y 3476   6.137   7.838   5.282
   27DOPE  C317 3477   6.090   7.874   5.075
   27DOPE  H17X 3478   6.101   7.984   5.087
   27DOPE  H17Y 3479   6.189   7.834   5.044
   27DOPE  C318 3480   5.989   7.846   4.963
   27DOPE  H18X 3481   5.889   7.886   4.989
   27DOPE  H18Y 3482   6.022   7.894   4.868
   27DOPE  H18Z 3483   5.980   7.737   4.945
   28DOPE     N 3484   7.529   7.037   7.041
   28DOPE   HN1 3485   7.524   6.999   6.944
   28DOPE   HN2 3486   7.491   7.134   7.042
   28DOPE   HN3 3487   7.629   7.036   7.070
   28DOPE   C12 3488   7.450   6.945   7.131
   28DOPE  H12A 3489   7.463   6.979   7.236
   28DOPE  H12B 3490   7.496   6.844   7.121
   28DOPE   C11 3491   7.301   6.939   7.093
   28DOPE  H11A 3492   7.250   7.024   7.143
   28DOPE  H11B 3493   7.255   6.846   7.135
   28DOPE     P 3494   7.319   6.840   6.848
   28DOPE   O13 3495   7.463   6.814   6.868
   28DOPE   O14 3496   7.274   6.890   6.716
   28DOPE   O11 3497   7.232   6.716   6.894
   28DOPE   O12 3498   7.277   6.950   6.953
   28DOPE    C1 3499   7.188   6.620   6.795
   28DOPE    HA 3500   7.140   6.669   6.708
   28DOPE    HB 3501   7.111   6.555   6.840
   28DOPE    C2 3502   7.302   6.527   6.745
   28DOPE    HS 3503   7.366   6.504   6.833
   28DOPE   O21 3504   7.373   6.599   6.644
   28DOPE   C21 3505   7.501   6.574   6.633
   28DOPE   O22 3506   7.564   6.490   6.695
   28DOPE   C22 3507   7.560   6.673   6.531
   28DOPE   H2R 3508   7.667   6.647   6.517
   28DOPE   H2S 3509   7.553   6.774   6.575
   28DOPE    C3 3510   7.247   6.394   6.688
   28DOPE    HX 3511   7.188   6.343   6.767
   28DOPE    HY 3512   7.331   6.326   6.663
   28DOPE   O31 3513   7.159   6.419   6.576
   28DOPE   C31 3514   7.215   6.411   6.456
   28DOPE   O32 3515   7.327   6.370   6.433
   28DOPE   C32 3516   7.116   6.465   6.352
   28DOPE   H2X 3517   7.013   6.448   6.391
   28DOPE   H2Y 3518   7.132   6.575   6.345
   28DOPE   C23 3519   7.487   6.670   6.394
   28DOPE   H3R 3520   7.382   6.701   6.409
   28DOPE   H3S 3521   7.487   6.566   6.354
   28DOPE   C24 3522   7.551   6.762   6.289
   28DOPE   H4R 3523   7.654   6.728   6.267
   28DOPE   H4S 3524   7.557   6.865   6.330
   28DOPE   C25 3525   7.469   6.765   6.159
   28DOPE   H5R 3526   7.368   6.805   6.183
   28DOPE   H5S 3527   7.457   6.661   6.122
   28DOPE   C26 3528   7.531   6.849   6.047
   28DOPE   H6R 3529   7.619   6.795   6.004
   28DOPE   H6S 3530   7.568   6.946   6.089
   28DOPE   C27 3531   7.429   6.880   5.937
   28DOPE   H7R 3532   7.352   6.948   5.981
   28DOPE   H7S 3533   7.375   6.787   5.908
   28DOPE   C28 3534   7.489   6.949   5.813
   28DOPE   H8R 3535   7.575   7.012   5.844
   28DOPE   H8S 3536   7.411   7.019   5.775
   28DOPE   C29 3537   7.530   6.851   5.706
   28DOPE   H9R 3538   7.601   6.774   5.739
   28DOPE  C210 3539   7.488   6.849   5.578
   28DOPE  H10R 3540   7.524   6.769   5.512
   28DOPE  C211 3541   7.391   6.945   5.513
   28DOPE  H11R 3542   7.430   6.973   5.413
   28DOPE  H11S 3543   7.385   7.040   5.570
   28DOPE  C212 3544   7.247   6.893   5.494
   28DOPE  H12R 3545   7.179   6.980   5.504
   28DOPE  H12S 3546   7.220   6.821   5.574
   28DOPE  C213 3547   7.222   6.832   5.356
   28DOPE  H13R 3548   7.283   6.740   5.343
   28DOPE  H13S 3549   7.255   6.905   5.279
   28DOPE  C214 3550   7.074   6.801   5.331
   28DOPE  H14R 3551   7.014   6.890   5.361
   28DOPE  H14S 3552   7.043   6.716   5.396
   28DOPE  C215 3553   7.038   6.770   5.185
   28DOPE  H15R 3554   7.059   6.858   5.121
   28DOPE  H15S 3555   6.929   6.751   5.181
   28DOPE  C216 3556   7.109   6.646   5.129
   28DOPE  H16R 3557   7.038   6.587   5.067
   28DOPE  H16S 3558   7.140   6.582   5.214
   28DOPE  C217 3559   7.232   6.676   5.042
   28DOPE  H17R 3560   7.285   6.580   5.024
   28DOPE  H17S 3561   7.302   6.742   5.097
   28DOPE  C218 3562   7.200   6.738   4.906
   28DOPE  H18R 3563   7.132   6.672   4.848
   28DOPE  H18S 3564   7.293   6.753   4.846
   28DOPE  H18T 3565   7.151   6.837   4.918
   28DOPE   C33 3566   7.128   6.401   6.211
   28DOPE   H3X 3567   7.044   6.440   6.150
   28DOPE   H3Y 3568   7.117   6.291   6.217
   28DOPE   C34 3569   7.259   6.437   6.140
   28DOPE   H4X 3570   7.284   6.543   6.160
   28DOPE   H4Y 3571   7.341   6.375   6.182
   28DOPE   C35 3572   7.253   6.416   5.988
   28DOPE   H5X 3573   7.189   6.495   5.943
   28DOPE   H5Y 3574   7.204   6.318   5.967
   28DOPE   C36 3575   7.391   6.416   5.921
   28DOPE   H6X 3576   7.450   6.333   5.965
   28DOPE   H6Y 3577   7.445   6.511   5.943
   28DOPE   C37 3578   7.383   6.395   5.769
   28DOPE   H7X 3579   7.477   6.350   5.733
   28DOPE   H7Y 3580   7.300   6.324   5.748
   28DOPE   C38 3581   7.362   6.527   5.693
   28DOPE   H8X 3582   7.458   6.584   5.697
   28DOPE   H8Y 3583   7.287   6.589   5.746
   28DOPE   C39 3584   7.318   6.506   5.550
   28DOPE   H9X 3585   7.209   6.508   5.536
   28DOPE  C310 3586   7.397   6.485   5.443
   28DOPE  H10X 3587   7.350   6.471   5.345
   28DOPE  C311 3588   7.547   6.479   5.443
   28DOPE  H11X 3589   7.591   6.556   5.510
   28DOPE  H11Y 3590   7.580   6.380   5.481
   28DOPE  C312 3591   7.607   6.497   5.302
   28DOPE  H12X 3592   7.565   6.421   5.233
   28DOPE  H12Y 3593   7.716   6.478   5.308
   28DOPE  C313 3594   7.586   6.637   5.243
   28DOPE  H13X 3595   7.478   6.656   5.228
   28DOPE  H13Y 3596   7.624   6.712   5.316
   28DOPE  C314 3597   7.660   6.660   5.109
   28DOPE  H14X 3598   7.768   6.643   5.123
   28DOPE  H14Y 3599   7.645   6.766   5.079
   28DOPE  C315 3600   7.609   6.570   4.994
   28DOPE  H15X 3601   7.499   6.576   4.991
   28DOPE  H15Y 3602   7.637   6.465   5.015
   28DOPE  C316 3603   7.666   6.613   4.858
   28DOPE  H16X 3604   7.776   6.612   4.863
   28DOPE  H16Y 3605   7.633   6.717   4.836
   28DOPE  C317 3606   7.621   6.523   4.741
   28DOPE  H17X 3607   7.671   6.558   4.648
   28DOPE  H17Y 3608   7.658   6.419   4.760
   28DOPE  C318 3609   7.470   6.518   4.717
   28DOPE  H18X 3610   7.417   6.476   4.805
   28DOPE  H18Y 3611   7.431   6.620   4.697
   28DOPE  H18Z 3612   7.447   6.454   4.628
   29DOPE     N 3613   7.050   0.902   7.149
   29DOPE   HN1 3614   7.022   0.998   7.180
   29DOPE   HN2 3615   7.042   0.900   7.045
   29DOPE   HN3 3616   6.979   0.835   7.185
   29DOPE   C12 3617   7.189   0.862   7.190
   29DOPE  H12A 3618   7.188   0.754   7.214
   29DOPE  H12B 3619   7.218   0.921   7.280
   29DOPE   C11 3620   7.287   0.889   7.074
   29DOPE  H11A 3621   7.283   0.998   7.054
   29DOPE  H11B 3622   7.253   0.834   6.984
   29DOPE     P 3623   7.534   0.890   7.005
   29DOPE   O13 3624   7.664   0.851   7.065
   29DOPE   O14 3625   7.514   1.031   6.968
   29DOPE   O11 3626   7.499   0.797   6.882
   29DOPE   O12 3627   7.419   0.847   7.108
   29DOPE    C1 3628   7.540   0.660   6.870
   29DOPE    HA 3629   7.451   0.594   6.874
   29DOPE    HB 3630   7.607   0.629   6.952
   29DOPE    C2 3631   7.616   0.632   6.736
   29DOPE    HS 3632   7.675   0.539   6.750
   29DOPE   O21 3633   7.703   0.741   6.704
   29DOPE   C21 3634   7.806   0.758   6.785
   29DOPE   O22 3635   7.850   0.673   6.861
   29DOPE   C22 3636   7.865   0.899   6.767
   29DOPE   H2R 3637   7.969   0.888   6.731
   29DOPE   H2S 3638   7.867   0.944   6.869
   29DOPE    C3 3639   7.523   0.606   6.613
   29DOPE    HX 3640   7.459   0.518   6.635
   29DOPE    HY 3641   7.592   0.579   6.530
   29DOPE   O31 3642   7.440   0.720   6.580
   29DOPE   C31 3643   7.406   0.730   6.451
   29DOPE   O32 3644   7.435   0.649   6.365
   29DOPE   C32 3645   7.326   0.859   6.431
   29DOPE   H2X 3646   7.255   0.866   6.516
   29DOPE   H2Y 3647   7.397   0.945   6.438
   29DOPE   C23 3648   7.785   0.993   6.674
   29DOPE   H3R 3649   7.818   1.097   6.691
   29DOPE   H3S 3650   7.677   0.990   6.701
   29DOPE   C24 3651   7.801   0.962   6.524
   29DOPE   H4R 3652   7.767   0.858   6.505
   29DOPE   H4S 3653   7.908   0.968   6.493
   29DOPE   C25 3654   7.716   1.056   6.437
   29DOPE   H5R 3655   7.770   1.151   6.420
   29DOPE   H5S 3656   7.623   1.078   6.494
   29DOPE   C26 3657   7.671   0.995   6.304
   29DOPE   H6R 3658   7.601   1.066   6.254
   29DOPE   H6S 3659   7.613   0.902   6.326
   29DOPE   C27 3660   7.783   0.962   6.205
   29DOPE   H7R 3661   7.855   0.891   6.251
   29DOPE   H7S 3662   7.839   1.056   6.183
   29DOPE   C28 3663   7.730   0.905   6.072
   29DOPE   H8R 3664   7.814   0.906   5.998
   29DOPE   H8S 3665   7.654   0.975   6.032
   29DOPE   C29 3666   7.669   0.767   6.086
   29DOPE   H9R 3667   7.595   0.757   6.167
   29DOPE  C210 3668   7.696   0.658   6.012
   29DOPE  H10R 3669   7.642   0.565   6.034
   29DOPE  C211 3670   7.793   0.649   5.897
   29DOPE  H11R 3671   7.848   0.553   5.902
   29DOPE  H11S 3672   7.871   0.729   5.905
   29DOPE  C212 3673   7.727   0.661   5.759
   29DOPE  H12R 3674   7.623   0.699   5.769
   29DOPE  H12S 3675   7.721   0.560   5.713
   29DOPE  C213 3676   7.803   0.756   5.664
   29DOPE  H13R 3677   7.907   0.719   5.652
   29DOPE  H13S 3678   7.809   0.857   5.711
   29DOPE  C214 3679   7.734   0.768   5.528
   29DOPE  H14R 3680   7.685   0.867   5.521
   29DOPE  H14S 3681   7.655   0.691   5.523
   29DOPE  C215 3682   7.825   0.748   5.406
   29DOPE  H15R 3683   7.915   0.689   5.435
   29DOPE  H15S 3684   7.861   0.847   5.370
   29DOPE  C216 3685   7.756   0.676   5.290
   29DOPE  H16R 3686   7.676   0.741   5.249
   29DOPE  H16S 3687   7.708   0.583   5.327
   29DOPE  C217 3688   7.854   0.638   5.178
   29DOPE  H17R 3689   7.930   0.568   5.219
   29DOPE  H17S 3690   7.907   0.730   5.145
   29DOPE  C218 3691   7.786   0.573   5.057
   29DOPE  H18R 3692   7.861   0.549   4.978
   29DOPE  H18S 3693   7.711   0.642   5.013
   29DOPE  H18T 3694   7.735   0.479   5.086
   29DOPE   C33 3695   7.246   0.867   6.299
   29DOPE   H3X 3696   7.176   0.953   6.309
   29DOPE   H3Y 3697   7.184   0.776   6.284
   29DOPE   C34 3698   7.330   0.893   6.173
   29DOPE   H4X 3699   7.411   0.966   6.198
   29DOPE   H4Y 3700   7.378   0.799   6.140
   29DOPE   C35 3701   7.249   0.954   6.057
   29DOPE   H5X 3702   7.203   1.048   6.094
   29DOPE   H5Y 3703   7.167   0.886   6.027
   29DOPE   C36 3704   7.335   0.988   5.933
   29DOPE   H6X 3705   7.435   1.023   5.967
   29DOPE   H6Y 3706   7.286   1.073   5.879
   29DOPE   C37 3707   7.352   0.872   5.835
   29DOPE   H7X 3708   7.390   0.784   5.892
   29DOPE   H7Y 3709   7.252   0.844   5.795
   29DOPE   C38 3710   7.450   0.899   5.719
   29DOPE   H8X 3711   7.460   0.804   5.662
   29DOPE   H8Y 3712   7.550   0.919   5.764
   29DOPE   C39 3713   7.415   1.013   5.626
   29DOPE   H9X 3714   7.403   1.111   5.675
   29DOPE  C310 3715   7.398   1.006   5.492
   29DOPE  H10X 3716   7.372   1.097   5.437
   29DOPE  C311 3717   7.410   0.882   5.407
   29DOPE  H11X 3718   7.506   0.829   5.426
   29DOPE  H11Y 3719   7.331   0.808   5.431
   29DOPE  C312 3720   7.402   0.906   5.255
   29DOPE  H12X 3721   7.303   0.950   5.229
   29DOPE  H12Y 3722   7.409   0.808   5.205
   29DOPE  C313 3723   7.514   0.995   5.200
   29DOPE  H13X 3724   7.493   1.100   5.229
   29DOPE  H13Y 3725   7.610   0.966   5.248
   29DOPE  C314 3726   7.530   0.985   5.048
   29DOPE  H14X 3727   7.561   0.881   5.023
   29DOPE  H14Y 3728   7.611   1.053   5.017
   29DOPE  C315 3729   7.403   1.018   4.967
   29DOPE  H15X 3730   7.323   0.946   4.993
   29DOPE  H15Y 3731   7.426   1.003   4.859
   29DOPE  C316 3732   7.350   1.161   4.986
   29DOPE  H16X 3733   7.323   1.177   5.093
   29DOPE  H16Y 3734   7.257   1.171   4.926
   29DOPE  C317 3735   7.449   1.269   4.941
   29DOPE  H17X 3736   7.540   1.265   5.005
   29DOPE  H17Y 3737   7.482   1.244   4.838
   29DOPE  C318 3738   7.391   1.411   4.943
   29DOPE  H18X 3739   7.307   1.419   4.871
   29DOPE  H18Y 3740   7.353   1.435   5.045
   29DOPE  H18Z 3741   7.469   1.485   4.916
   30DOPE     N 3742   0.657   7.326   7.285
   30DOPE   HN1 3743   0.748   7.371   7.264
   30DOPE   HN2 3744   0.667   7.275   7.375
   30DOPE   HN3 3745   0.633   7.258   7.210
   30DOPE   C12 3746   0.548   7.431   7.294
   30DOPE  H12A 3747   0.597   7.528   7.318
   30DOPE  H12B 3748   0.481   7.403   7.378
   30DOPE   C11 3749   0.467   7.442   7.163
   30DOPE  H11A 3750   0.532   7.447   7.074
   30DOPE  H11B 3751   0.412   7.538   7.167
   30DOPE     P 3752   0.402   7.196   7.094
   30DOPE   O13 3753   0.333   7.099   7.182
   30DOPE   O14 3754   0.549   7.184   7.083
   30DOPE   O11 3755   0.330   7.197   6.954
   30DOPE   O12 3756   0.369   7.338   7.154
   30DOPE    C1 3757   0.186   7.201   6.950
   30DOPE    HA 3758   0.141   7.230   7.047
   30DOPE    HB 3759   0.149   7.100   6.925
   30DOPE    C2 3760   0.128   7.305   6.848
   30DOPE    HS 3761   0.024   7.326   6.879
   30DOPE   O21 3762   0.130   7.249   6.714
   30DOPE   C21 3763   0.036   7.157   6.694
   30DOPE   O22 3764  -0.047   7.123   6.777
   30DOPE   C22 3765   0.037   7.107   6.549
   30DOPE   H2R 3766  -0.014   7.185   6.488
   30DOPE   H2S 3767  -0.023   7.014   6.546
   30DOPE    C3 3768   0.203   7.442   6.853
   30DOPE    HX 3769   0.205   7.473   6.960
   30DOPE    HY 3770   0.142   7.518   6.799
   30DOPE   O31 3771   0.339   7.434   6.806
   30DOPE   C31 3772   0.355   7.462   6.677
   30DOPE   O32 3773   0.272   7.515   6.605
   30DOPE   C32 3774   0.496   7.420   6.636
   30DOPE   H2X 3775   0.566   7.475   6.703
   30DOPE   H2Y 3776   0.507   7.311   6.655
   30DOPE   C23 3777   0.176   7.082   6.485
   30DOPE   H3R 3778   0.230   7.002   6.540
   30DOPE   H3S 3779   0.237   7.174   6.490
   30DOPE   C24 3780   0.161   7.041   6.337
   30DOPE   H4R 3781   0.097   7.116   6.286
   30DOPE   H4S 3782   0.109   6.943   6.331
   30DOPE   C25 3783   0.295   7.032   6.262
   30DOPE   H5R 3784   0.361   6.960   6.314
   30DOPE   H5S 3785   0.345   7.131   6.265
   30DOPE   C26 3786   0.282   6.989   6.114
   30DOPE   H6R 3787   0.243   6.885   6.108
   30DOPE   H6S 3788   0.384   6.987   6.069
   30DOPE   C27 3789   0.192   7.080   6.029
   30DOPE   H7R 3790   0.206   7.185   6.063
   30DOPE   H7S 3791   0.086   7.054   6.048
   30DOPE   C28 3792   0.221   7.077   5.877
   30DOPE   H8R 3793   0.319   7.127   5.860
   30DOPE   H8S 3794   0.144   7.139   5.827
   30DOPE   C29 3795   0.221   6.939   5.815
   30DOPE   H9R 3796   0.156   6.865   5.865
   30DOPE  C210 3797   0.291   6.902   5.707
   30DOPE  H10R 3798   0.283   6.798   5.672
   30DOPE  C211 3799   0.384   6.988   5.624
   30DOPE  H11R 3800   0.354   7.095   5.629
   30DOPE  H11S 3801   0.376   6.959   5.517
   30DOPE  C212 3802   0.531   6.976   5.668
   30DOPE  H12R 3803   0.557   6.869   5.681
   30DOPE  H12S 3804   0.541   7.024   5.768
   30DOPE  C213 3805   0.635   7.038   5.572
   30DOPE  H13R 3806   0.648   6.972   5.483
   30DOPE  H13S 3807   0.732   7.037   5.626
   30DOPE  C214 3808   0.608   7.182   5.526
   30DOPE  H14R 3809   0.706   7.234   5.515
   30DOPE  H14S 3810   0.552   7.236   5.606
   30DOPE  C215 3811   0.533   7.199   5.393
   30DOPE  H15R 3812   0.529   7.307   5.368
   30DOPE  H15S 3813   0.428   7.164   5.407
   30DOPE  C216 3814   0.592   7.124   5.272
   30DOPE  H16R 3815   0.535   7.153   5.181
   30DOPE  H16S 3816   0.576   7.015   5.285
   30DOPE  C217 3817   0.742   7.147   5.246
   30DOPE  H17R 3818   0.799   7.127   5.339
   30DOPE  H17S 3819   0.758   7.254   5.220
   30DOPE  C218 3820   0.796   7.058   5.135
   30DOPE  H18R 3821   0.788   6.951   5.163
   30DOPE  H18S 3822   0.903   7.080   5.114
   30DOPE  H18T 3823   0.738   7.073   5.041
   30DOPE   C33 3824   0.527   7.453   6.489
   30DOPE   H3X 3825   0.637   7.443   6.474
   30DOPE   H3Y 3826   0.500   7.558   6.466
   30DOPE   C34 3827   0.456   7.361   6.390
   30DOPE   H4X 3828   0.492   7.256   6.401
   30DOPE   H4Y 3829   0.347   7.361   6.412
   30DOPE   C35 3830   0.473   7.407   6.244
   30DOPE   H5X 3831   0.447   7.515   6.239
   30DOPE   H5Y 3832   0.399   7.354   6.180
   30DOPE   C36 3833   0.615   7.388   6.188
   30DOPE   H6X 3834   0.689   7.421   6.264
   30DOPE   H6Y 3835   0.628   7.454   6.100
   30DOPE   C37 3836   0.647   7.244   6.144
   30DOPE   H7X 3837   0.755   7.236   6.120
   30DOPE   H7Y 3838   0.627   7.175   6.229
   30DOPE   C38 3839   0.566   7.196   6.022
   30DOPE   H8X 3840   0.458   7.203   6.046
   30DOPE   H8Y 3841   0.587   7.088   6.007
   30DOPE   C39 3842   0.597   7.270   5.894
   30DOPE   H9X 3843   0.686   7.233   5.840
   30DOPE  C310 3844   0.530   7.374   5.841
   30DOPE  H10X 3845   0.564   7.415   5.746
   30DOPE  C311 3846   0.407   7.441   5.897
   30DOPE  H11X 3847   0.345   7.373   5.959
   30DOPE  H11Y 3848   0.438   7.525   5.962
   30DOPE  C312 3849   0.317   7.501   5.787
   30DOPE  H12X 3850   0.378   7.554   5.711
   30DOPE  H12Y 3851   0.249   7.576   5.832
   30DOPE  C313 3852   0.229   7.396   5.718
   30DOPE  H13X 3853   0.290   7.308   5.689
   30DOPE  H13Y 3854   0.153   7.361   5.791
   30DOPE  C314 3855   0.157   7.449   5.593
   30DOPE  H14X 3856   0.125   7.554   5.610
   30DOPE  H14Y 3857   0.066   7.389   5.576
   30DOPE  C315 3858   0.245   7.439   5.467
   30DOPE  H15X 3859   0.270   7.332   5.453
   30DOPE  H15Y 3860   0.340   7.494   5.483
   30DOPE  C316 3861   0.175   7.493   5.342
   30DOPE  H16X 3862   0.164   7.603   5.352
   30DOPE  H16Y 3863   0.073   7.450   5.334
   30DOPE  C317 3864   0.251   7.462   5.212
   30DOPE  H17X 3865   0.207   7.522   5.130
   30DOPE  H17Y 3866   0.357   7.494   5.224
   30DOPE  C318 3867   0.248   7.314   5.170
   30DOPE  H18X 3868   0.291   7.249   5.250
   30DOPE  H18Y 3869   0.144   7.281   5.151
   30DOPE  H18Z 3870   0.307   7.298   5.077
   31DOPE     N 3871   3.331   3.248   2.805
   31DOPE   HN1 3872   3.353   3.285   2.711
   31DOPE   HN2 3873   3.234   3.276   2.829
   31DOPE   HN3 3874   3.395   3.292   2.874
   31DOPE   C12 3875   3.347   3.098   2.805
   31DOPE  H12A 3876   3.449   3.076   2.844
   31DOPE  H12B 3877   3.342   3.064   2.699
   31DOPE   C11 3878   3.240   3.026   2.889
   31DOPE  H11A 3879   3.252   3.055   2.995
   31DOPE  H11B 3880   3.262   2.917   2.884
   31DOPE     P 3881   3.012   3.154   2.905
   31DOPE   O13 3882   2.871   3.127   2.871
   31DOPE   O14 3883   3.065   3.288   2.869
   31DOPE   O11 3884   3.037   3.130   3.058
   31DOPE   O12 3885   3.107   3.047   2.837
   31DOPE    C1 3886   2.947   3.050   3.135
   31DOPE    HA 3887   2.902   2.968   3.075
   31DOPE    HB 3888   2.865   3.115   3.174
   31DOPE    C2 3889   3.021   2.988   3.257
   31DOPE    HS 3890   3.089   2.909   3.219
   31DOPE   O21 3891   2.923   2.935   3.349
   31DOPE   C21 3892   2.859   2.829   3.304
   31DOPE   O22 3893   2.899   2.753   3.217
   31DOPE   C22 3894   2.720   2.822   3.367
   31DOPE   H2R 3895   2.671   2.734   3.320
   31DOPE   H2S 3896   2.664   2.913   3.338
   31DOPE    C3 3897   3.109   3.093   3.330
   31DOPE    HX 3898   3.177   3.138   3.255
   31DOPE    HY 3899   3.173   3.040   3.404
   31DOPE   O31 3900   3.028   3.197   3.389
   31DOPE   C31 3901   3.003   3.185   3.518
   31DOPE   O32 3902   3.059   3.108   3.595
   31DOPE   C32 3903   2.892   3.281   3.559
   31DOPE   H2X 3904   2.819   3.289   3.475
   31DOPE   H2Y 3905   2.841   3.233   3.645
   31DOPE   C23 3906   2.718   2.802   3.520
   31DOPE   H3R 3907   2.785   2.720   3.551
   31DOPE   H3S 3908   2.614   2.772   3.545
   31DOPE   C24 3909   2.747   2.928   3.603
   31DOPE   H4R 3910   2.708   3.019   3.551
   31DOPE   H4S 3911   2.857   2.939   3.613
   31DOPE   C25 3912   2.682   2.918   3.742
   31DOPE   H5R 3913   2.694   2.814   3.779
   31DOPE   H5S 3914   2.573   2.936   3.732
   31DOPE   C26 3915   2.743   3.013   3.846
   31DOPE   H6R 3916   2.719   3.118   3.818
   31DOPE   H6S 3917   2.853   3.002   3.843
   31DOPE   C27 3918   2.694   2.984   3.989
   31DOPE   H7R 3919   2.742   3.056   4.059
   31DOPE   H7S 3920   2.729   2.883   4.018
   31DOPE   C28 3921   2.542   2.989   4.010
   31DOPE   H8R 3922   2.520   2.969   4.118
   31DOPE   H8S 3923   2.495   2.905   3.953
   31DOPE   C29 3924   2.484   3.120   3.965
   31DOPE   H9R 3925   2.473   3.130   3.856
   31DOPE  C210 3926   2.447   3.224   4.042
   31DOPE  H10R 3927   2.408   3.313   3.992
   31DOPE  C211 3928   2.453   3.236   4.193
   31DOPE  H11R 3929   2.505   3.151   4.241
   31DOPE  H11S 3930   2.350   3.238   4.233
   31DOPE  C212 3931   2.523   3.368   4.235
   31DOPE  H12R 3932   2.504   3.446   4.158
   31DOPE  H12S 3933   2.633   3.351   4.239
   31DOPE  C213 3934   2.473   3.426   4.368
   31DOPE  H13R 3935   2.363   3.440   4.361
   31DOPE  H13S 3936   2.518   3.527   4.382
   31DOPE  C214 3937   2.505   3.342   4.492
   31DOPE  H14R 3938   2.464   3.239   4.479
   31DOPE  H14S 3939   2.452   3.388   4.579
   31DOPE  C215 3940   2.654   3.333   4.527
   31DOPE  H15R 3941   2.699   3.435   4.523
   31DOPE  H15S 3942   2.706   3.270   4.451
   31DOPE  C216 3943   2.677   3.275   4.667
   31DOPE  H16R 3944   2.626   3.177   4.675
   31DOPE  H16S 3945   2.630   3.342   4.742
   31DOPE  C217 3946   2.826   3.257   4.702
   31DOPE  H17R 3947   2.877   3.355   4.694
   31DOPE  H17S 3948   2.872   3.190   4.626
   31DOPE  C218 3949   2.849   3.198   4.841
   31DOPE  H18R 3950   2.798   3.100   4.851
   31DOPE  H18S 3951   2.807   3.266   4.919
   31DOPE  H18T 3952   2.957   3.185   4.861
   31DOPE   C33 3953   2.945   3.420   3.599
   31DOPE   H3X 3954   2.984   3.471   3.508
   31DOPE   H3Y 3955   3.030   3.408   3.669
   31DOPE   C34 3956   2.839   3.509   3.665
   31DOPE   H4X 3957   2.884   3.608   3.688
   31DOPE   H4Y 3958   2.756   3.527   3.593
   31DOPE   C35 3959   2.779   3.452   3.795
   31DOPE   H5X 3960   2.720   3.361   3.772
   31DOPE   H5Y 3961   2.707   3.526   3.837
   31DOPE   C36 3962   2.883   3.420   3.903
   31DOPE   H6X 3963   2.945   3.510   3.923
   31DOPE   H6Y 3964   2.950   3.340   3.866
   31DOPE   C37 3965   2.817   3.376   4.035
   31DOPE   H7X 3966   2.757   3.461   4.073
   31DOPE   H7Y 3967   2.747   3.292   4.014
   31DOPE   C38 3968   2.918   3.334   4.144
   31DOPE   H8X 3969   2.861   3.314   4.237
   31DOPE   H8Y 3970   2.985   3.420   4.164
   31DOPE   C39 3971   2.996   3.211   4.105
   31DOPE   H9X 3972   2.948   3.147   4.030
   31DOPE  C310 3973   3.117   3.176   4.152
   31DOPE  H10X 3974   3.164   3.084   4.115
   31DOPE  C311 3975   3.198   3.253   4.253
   31DOPE  H11X 3976   3.281   3.305   4.200
   31DOPE  H11Y 3977   3.138   3.331   4.305
   31DOPE  C312 3978   3.263   3.163   4.360
   31DOPE  H12X 3979   3.328   3.229   4.422
   31DOPE  H12Y 3980   3.329   3.088   4.312
   31DOPE  C313 3981   3.166   3.092   4.455
   31DOPE  H13X 3982   3.092   3.165   4.494
   31DOPE  H13Y 3983   3.110   3.013   4.400
   31DOPE  C314 3984   3.243   3.030   4.573
   31DOPE  H14X 3985   3.296   3.113   4.625
   31DOPE  H14Y 3986   3.320   2.960   4.533
   31DOPE  C315 3987   3.157   2.957   4.676
   31DOPE  H15X 3988   3.116   2.864   4.631
   31DOPE  H15Y 3989   3.070   3.021   4.704
   31DOPE  C316 3990   3.239   2.925   4.802
   31DOPE  H16X 3991   3.255   3.020   4.858
   31DOPE  H16Y 3992   3.339   2.888   4.771
   31DOPE  C317 3993   3.176   2.821   4.896
   31DOPE  H17X 3994   3.187   2.721   4.848
   31DOPE  H17Y 3995   3.234   2.818   4.990
   31DOPE  C318 3996   3.028   2.843   4.927
   31DOPE  H18X 3997   2.967   2.833   4.835
   31DOPE  H18Y 3998   2.993   2.768   5.001
   31DOPE  H18Z 3999   3.012   2.945   4.969
   32DOPE     N 4000   4.759   2.956   3.175
   32DOPE   HN1 4001   4.807   3.015   3.247
   32DOPE   HN2 4002   4.816   2.871   3.153
   32DOPE   HN3 4003   4.755   3.011   3.087
   32DOPE   C12 4004   4.617   2.923   3.212
   32DOPE  H12A 4005   4.587   2.992   3.295
   32DOPE  H12B 4006   4.613   2.819   3.249
   32DOPE   C11 4007   4.521   2.943   3.093
   32DOPE  H11A 4008   4.418   2.921   3.126
   32DOPE  H11B 4009   4.544   2.870   3.012
   32DOPE     P 4010   4.606   3.119   2.917
   32DOPE   O13 4011   4.532   3.069   2.799
   32DOPE   O14 4012   4.743   3.071   2.941
   32DOPE   O11 4013   4.599   3.277   2.920
   32DOPE   O12 4014   4.525   3.078   3.047
   32DOPE    C1 4015   4.706   3.357   2.870
   32DOPE    HA 4016   4.663   3.441   2.812
   32DOPE    HB 4017   4.773   3.302   2.800
   32DOPE    C2 4018   4.794   3.422   2.983
   32DOPE    HS 4019   4.865   3.492   2.934
   32DOPE   O21 4020   4.865   3.321   3.057
   32DOPE   C21 4021   4.976   3.276   3.001
   32DOPE   O22 4022   5.015   3.298   2.888
   32DOPE   C22 4023   5.055   3.200   3.108
   32DOPE   H2R 4024   5.148   3.162   3.060
   32DOPE   H2S 4025   4.994   3.114   3.142
   32DOPE    C3 4026   4.710   3.508   3.083
   32DOPE    HX 4027   4.661   3.588   3.023
   32DOPE    HY 4028   4.780   3.559   3.153
   32DOPE   O31 4029   4.607   3.433   3.151
   32DOPE   C31 4030   4.641   3.379   3.267
   32DOPE   O32 4031   4.746   3.393   3.326
   32DOPE   C32 4032   4.527   3.289   3.316
   32DOPE   H2X 4033   4.432   3.344   3.299
   32DOPE   H2Y 4034   4.524   3.199   3.251
   32DOPE   C23 4035   5.092   3.292   3.227
   32DOPE   H3R 4036   5.001   3.340   3.268
   32DOPE   H3S 4037   5.157   3.374   3.189
   32DOPE   C24 4038   5.167   3.221   3.340
   32DOPE   H4R 4039   5.208   3.299   3.408
   32DOPE   H4S 4040   5.254   3.166   3.297
   32DOPE   C25 4041   5.083   3.124   3.426
   32DOPE   H5R 4042   5.149   3.091   3.509
   32DOPE   H5S 4043   5.056   3.034   3.368
   32DOPE   C26 4044   4.958   3.189   3.486
   32DOPE   H6R 4045   4.875   3.190   3.412
   32DOPE   H6S 4046   4.981   3.296   3.507
   32DOPE   C27 4047   4.911   3.125   3.619
   32DOPE   H7R 4048   4.984   3.048   3.649
   32DOPE   H7S 4049   4.813   3.075   3.603
   32DOPE   C28 4050   4.898   3.230   3.731
   32DOPE   H8R 4051   4.819   3.302   3.702
   32DOPE   H8S 4052   4.994   3.287   3.732
   32DOPE   C29 4053   4.869   3.171   3.866
   32DOPE   H9R 4054   4.812   3.077   3.864
   32DOPE  C210 4055   4.905   3.223   3.985
   32DOPE  H10R 4056   4.877   3.170   4.077
   32DOPE  C211 4057   4.982   3.351   4.007
   32DOPE  H11R 4058   5.024   3.391   3.913
   32DOPE  H11S 4059   5.069   3.333   4.075
   32DOPE  C212 4060   4.896   3.464   4.067
   32DOPE  H12R 4061   4.813   3.486   3.997
   32DOPE  H12S 4062   4.959   3.556   4.074
   32DOPE  C213 4063   4.838   3.436   4.207
   32DOPE  H13R 4064   4.767   3.351   4.201
   32DOPE  H13S 4065   4.781   3.525   4.239
   32DOPE  C214 4066   4.944   3.405   4.314
   32DOPE  H14R 4067   5.021   3.485   4.315
   32DOPE  H14S 4068   4.995   3.309   4.290
   32DOPE  C215 4069   4.881   3.394   4.453
   32DOPE  H15R 4070   4.796   3.322   4.447
   32DOPE  H15S 4071   4.838   3.493   4.482
   32DOPE  C216 4072   4.977   3.346   4.563
   32DOPE  H16R 4073   5.028   3.253   4.530
   32DOPE  H16S 4074   4.917   3.321   4.653
   32DOPE  C217 4075   5.082   3.450   4.604
   32DOPE  H17R 4076   5.030   3.545   4.631
   32DOPE  H17S 4077   5.148   3.472   4.517
   32DOPE  C218 4078   5.168   3.405   4.722
   32DOPE  H18R 4079   5.105   3.383   4.810
   32DOPE  H18S 4080   5.241   3.484   4.750
   32DOPE  H18T 4081   5.225   3.313   4.696
   32DOPE   C33 4082   4.539   3.249   3.465
   32DOPE   H3X 4083   4.549   3.341   3.526
   32DOPE   H3Y 4084   4.630   3.189   3.483
   32DOPE   C34 4085   4.414   3.173   3.514
   32DOPE   H4X 4086   4.329   3.204   3.450
   32DOPE   H4Y 4087   4.428   3.064   3.502
   32DOPE   C35 4088   4.373   3.207   3.658
   32DOPE   H5X 4089   4.272   3.167   3.679
   32DOPE   H5Y 4090   4.365   3.318   3.665
   32DOPE   C36 4091   4.470   3.159   3.767
   32DOPE   H6X 4092   4.464   3.231   3.852
   32DOPE   H6Y 4093   4.575   3.160   3.731
   32DOPE   C37 4094   4.435   3.021   3.825
   32DOPE   H7X 4095   4.326   3.020   3.848
   32DOPE   H7Y 4096   4.454   2.942   3.749
   32DOPE   C38 4097   4.513   2.991   3.954
   32DOPE   H8X 4098   4.499   3.077   4.023
   32DOPE   H8Y 4099   4.621   2.987   3.929
   32DOPE   C39 4100   4.467   2.865   4.023
   32DOPE   H9X 4101   4.358   2.853   4.027
   32DOPE  C310 4102   4.544   2.769   4.079
   32DOPE  H10X 4103   4.495   2.683   4.128
   32DOPE  C311 4104   4.695   2.767   4.086
   32DOPE  H11X 4105   4.732   2.676   4.034
   32DOPE  H11Y 4106   4.742   2.854   4.036
   32DOPE  C312 4107   4.748   2.762   4.231
   32DOPE  H12X 4108   4.858   2.748   4.227
   32DOPE  H12Y 4109   4.706   2.675   4.285
   32DOPE  C313 4110   4.723   2.890   4.312
   32DOPE  H13X 4111   4.763   2.977   4.256
   32DOPE  H13Y 4112   4.614   2.906   4.325
   32DOPE  C314 4113   4.791   2.883   4.450
   32DOPE  H14X 4114   4.900   2.866   4.436
   32DOPE  H14Y 4115   4.750   2.797   4.505
   32DOPE  C315 4116   4.772   3.012   4.532
   32DOPE  H15X 4117   4.663   3.029   4.547
   32DOPE  H15Y 4118   4.811   3.097   4.473
   32DOPE  C316 4119   4.844   3.009   4.668
   32DOPE  H16X 4120   4.825   3.105   4.719
   32DOPE  H16Y 4121   4.953   3.002   4.650
   32DOPE  C317 4122   4.801   2.894   4.761
   32DOPE  H17X 4123   4.831   2.797   4.716
   32DOPE  H17Y 4124   4.859   2.904   4.856
   32DOPE  C318 4125   4.651   2.892   4.794
   32DOPE  H18X 4126   4.592   2.870   4.702
   32DOPE  H18Y 4127   4.629   2.814   4.869
   32DOPE  H18Z 4128   4.619   2.990   4.834
   33DOPE     N 4129   3.475   2.224   2.884
   33DOPE   HN1 4130   3.554   2.236   2.818
   33DOPE   HN2 4131   3.440   2.126   2.879
   33DOPE   HN3 4132   3.397   2.289   2.858
   33DOPE   C12 4133   3.516   2.253   3.026
   33DOPE  H12A 4134   3.535   2.363   3.033
   33DOPE  H12B 4135   3.611   2.200   3.046
   33DOPE   C11 4136   3.406   2.208   3.124
   33DOPE  H11A 4137   3.431   2.243   3.227
   33DOPE  H11B 4138   3.406   2.097   3.130
   33DOPE     P 4139   3.236   2.403   3.092
   33DOPE   O13 4140   3.089   2.415   3.094
   33DOPE   O14 4141   3.308   2.472   2.982
   33DOPE   O11 4142   3.297   2.445   3.231
   33DOPE   O12 4143   3.275   2.250   3.083
   33DOPE    C1 4144   3.226   2.415   3.352
   33DOPE    HA 4145   3.298   2.398   3.434
   33DOPE    HB 4146   3.165   2.323   3.343
   33DOPE    C2 4147   3.133   2.533   3.393
   33DOPE    HS 4148   3.087   2.576   3.301
   33DOPE   O21 4149   3.208   2.632   3.465
   33DOPE   C21 4150   3.277   2.717   3.392
   33DOPE   O22 4151   3.268   2.733   3.272
   33DOPE   C22 4152   3.373   2.797   3.481
   33DOPE   H2R 4153   3.412   2.880   3.417
   33DOPE   H2S 4154   3.459   2.731   3.507
   33DOPE    C3 4155   3.014   2.485   3.481
   33DOPE    HX 4156   2.956   2.409   3.425
   33DOPE    HY 4157   2.947   2.573   3.494
   33DOPE   O31 4158   3.055   2.441   3.613
   33DOPE   C31 4159   3.051   2.311   3.639
   33DOPE   O32 4160   3.026   2.223   3.559
   33DOPE   C32 4161   3.081   2.292   3.788
   33DOPE   H2X 4162   3.191   2.282   3.800
   33DOPE   H2Y 4163   3.049   2.385   3.840
   33DOPE   C23 4164   3.309   2.859   3.608
   33DOPE   H3R 4165   3.207   2.897   3.585
   33DOPE   H3S 4166   3.370   2.946   3.640
   33DOPE   C24 4167   3.300   2.763   3.729
   33DOPE   H4R 4168   3.247   2.671   3.700
   33DOPE   H4S 4169   3.239   2.813   3.807
   33DOPE   C25 4170   3.436   2.727   3.791
   33DOPE   H5R 4171   3.484   2.819   3.830
   33DOPE   H5S 4172   3.503   2.683   3.714
   33DOPE   C26 4173   3.421   2.625   3.905
   33DOPE   H6R 4174   3.376   2.532   3.864
   33DOPE   H6S 4175   3.350   2.665   3.981
   33DOPE   C27 4176   3.554   2.591   3.974
   33DOPE   H7R 4177   3.589   2.680   4.031
   33DOPE   H7S 4178   3.630   2.569   3.896
   33DOPE   C28 4179   3.545   2.469   4.069
   33DOPE   H8R 4180   3.647   2.449   4.109
   33DOPE   H8S 4181   3.519   2.380   4.007
   33DOPE   C29 4182   3.443   2.487   4.178
   33DOPE   H9R 4183   3.339   2.476   4.146
   33DOPE  C210 4184   3.467   2.516   4.308
   33DOPE  H10R 4185   3.381   2.527   4.375
   33DOPE  C211 4186   3.601   2.538   4.374
   33DOPE  H11R 4187   3.684   2.531   4.301
   33DOPE  H11S 4188   3.619   2.458   4.449
   33DOPE  C212 4189   3.612   2.675   4.443
   33DOPE  H12R 4190   3.599   2.755   4.367
   33DOPE  H12S 4191   3.716   2.687   4.483
   33DOPE  C213 4192   3.513   2.701   4.558
   33DOPE  H13R 4193   3.412   2.710   4.514
   33DOPE  H13S 4194   3.537   2.799   4.604
   33DOPE  C214 4195   3.508   2.594   4.670
   33DOPE  H14R 4196   3.484   2.494   4.627
   33DOPE  H14S 4197   3.423   2.622   4.735
   33DOPE  C215 4198   3.633   2.585   4.759
   33DOPE  H15R 4199   3.599   2.546   4.858
   33DOPE  H15S 4200   3.674   2.687   4.777
   33DOPE  C216 4201   3.742   2.491   4.706
   33DOPE  H16R 4202   3.787   2.535   4.615
   33DOPE  H16S 4203   3.696   2.394   4.678
   33DOPE  C217 4204   3.855   2.464   4.807
   33DOPE  H17R 4205   3.895   2.562   4.842
   33DOPE  H17S 4206   3.938   2.413   4.753
   33DOPE  C218 4207   3.814   2.378   4.927
   33DOPE  H18R 4208   3.779   2.279   4.893
   33DOPE  H18S 4209   3.732   2.427   4.985
   33DOPE  H18T 4210   3.901   2.363   4.995
   33DOPE   C33 4211   3.008   2.171   3.854
   33DOPE   H3X 4212   3.075   2.082   3.850
   33DOPE   H3Y 4213   2.916   2.146   3.798
   33DOPE   C34 4214   2.968   2.195   4.000
   33DOPE   H4X 4215   2.889   2.273   4.003
   33DOPE   H4Y 4216   2.921   2.103   4.042
   33DOPE   C35 4217   3.082   2.242   4.092
   33DOPE   H5X 4218   3.037   2.298   4.177
   33DOPE   H5Y 4219   3.147   2.315   4.038
   33DOPE   C36 4220   3.169   2.129   4.147
   33DOPE   H6X 4221   3.254   2.176   4.201
   33DOPE   H6Y 4222   3.212   2.071   4.063
   33DOPE   C37 4223   3.098   2.032   4.243
   33DOPE   H7X 4224   3.029   1.968   4.185
   33DOPE   H7Y 4225   3.175   1.966   4.288
   33DOPE   C38 4226   3.017   2.098   4.357
   33DOPE   H8X 4227   2.976   2.018   4.422
   33DOPE   H8Y 4228   2.929   2.150   4.314
   33DOPE   C39 4229   3.100   2.196   4.437
   33DOPE   H9X 4230   3.101   2.298   4.397
   33DOPE  C310 4231   3.171   2.168   4.547
   33DOPE  H10X 4232   3.229   2.250   4.593
   33DOPE  C311 4233   3.185   2.035   4.616
   33DOPE  H11X 4234   3.140   1.954   4.555
   33DOPE  H11Y 4235   3.293   2.010   4.628
   33DOPE  C312 4236   3.122   2.032   4.757
   33DOPE  H12X 4237   3.132   1.929   4.798
   33DOPE  H12Y 4238   3.013   2.052   4.749
   33DOPE  C313 4239   3.187   2.131   4.856
   33DOPE  H13X 4240   3.238   2.072   4.936
   33DOPE  H13Y 4241   3.267   2.190   4.806
   33DOPE  C314 4242   3.087   2.226   4.923
   33DOPE  H14X 4243   3.137   2.284   5.002
   33DOPE  H14Y 4244   3.011   2.161   4.973
   33DOPE  C315 4245   3.015   2.324   4.828
   33DOPE  H15X 4246   2.930   2.371   4.882
   33DOPE  H15Y 4247   2.973   2.267   4.742
   33DOPE  C316 4248   3.106   2.435   4.776
   33DOPE  H16X 4249   3.202   2.391   4.742
   33DOPE  H16Y 4250   3.130   2.506   4.858
   33DOPE  C317 4251   3.045   2.512   4.658
   33DOPE  H17X 4252   2.992   2.439   4.592
   33DOPE  H17Y 4253   2.969   2.583   4.696
   33DOPE  C318 4254   3.150   2.585   4.574
   33DOPE  H18X 4255   3.206   2.657   4.637
   33DOPE  H18Y 4256   3.223   2.512   4.532
   33DOPE  H18Z 4257   3.102   2.640   4.490
   34DOPE     N 4258   2.426   4.428   2.904
   34DOPE   HN1 4259   2.526   4.432   2.877
   34DOPE   HN2 4260   2.385   4.340   2.868
   34DOPE   HN3 4261   2.375   4.508   2.859
   34DOPE   C12 4262   2.408   4.442   3.052
   34DOPE  H12A 4263   2.441   4.544   3.081
   34DOPE  H12B 4264   2.473   4.367   3.103
   34DOPE   C11 4265   2.260   4.421   3.088
   34DOPE  H11A 4266   2.248   4.446   3.196
   34DOPE  H11B 4267   2.233   4.314   3.076
   34DOPE     P 4268   2.049   4.576   3.058
   34DOPE   O13 4269   1.938   4.572   2.959
   34DOPE   O14 4270   2.090   4.710   3.104
   34DOPE   O11 4271   2.007   4.489   3.183
   34DOPE   O12 4272   2.176   4.500   3.003
   34DOPE    C1 4273   1.932   4.549   3.290
   34DOPE    HA 4274   1.840   4.489   3.309
   34DOPE    HB 4275   1.895   4.651   3.264
   34DOPE    C2 4276   2.011   4.564   3.424
   34DOPE    HS 4277   1.972   4.654   3.476
   34DOPE   O21 4278   2.153   4.568   3.403
   34DOPE   C21 4279   2.206   4.689   3.406
   34DOPE   O22 4280   2.145   4.794   3.399
   34DOPE   C22 4281   2.355   4.675   3.436
   34DOPE   H2R 4282   2.403   4.774   3.421
   34DOPE   H2S 4283   2.399   4.603   3.365
   34DOPE    C3 4284   1.985   4.446   3.521
   34DOPE    HX 4285   2.048   4.360   3.491
   34DOPE    HY 4286   1.879   4.416   3.514
   34DOPE   O31 4287   2.017   4.491   3.655
   34DOPE   C31 4288   1.997   4.398   3.747
   34DOPE   O32 4289   1.961   4.284   3.725
   34DOPE   C32 4290   2.022   4.460   3.885
   34DOPE   H2X 4291   2.119   4.514   3.882
   34DOPE   H2Y 4292   1.941   4.534   3.903
   34DOPE   C23 4293   2.376   4.627   3.582
   34DOPE   H3R 4294   2.324   4.530   3.596
   34DOPE   H3S 4295   2.330   4.700   3.652
   34DOPE   C24 4296   2.523   4.609   3.620
   34DOPE   H4R 4297   2.578   4.703   3.596
   34DOPE   H4S 4298   2.568   4.528   3.558
   34DOPE   C25 4299   2.544   4.577   3.769
   34DOPE   H5R 4300   2.505   4.662   3.829
   34DOPE   H5S 4301   2.653   4.569   3.789
   34DOPE   C26 4302   2.478   4.447   3.816
   34DOPE   H6R 4303   2.515   4.363   3.752
   34DOPE   H6S 4304   2.368   4.453   3.802
   34DOPE   C27 4305   2.507   4.413   3.963
   34DOPE   H7R 4306   2.616   4.403   3.978
   34DOPE   H7S 4307   2.461   4.313   3.983
   34DOPE   C28 4308   2.449   4.516   4.062
   34DOPE   H8R 4309   2.347   4.543   4.028
   34DOPE   H8S 4310   2.510   4.609   4.056
   34DOPE   C29 4311   2.445   4.465   4.204
   34DOPE   H9R 4312   2.497   4.370   4.222
   34DOPE  C210 4313   2.382   4.526   4.306
   34DOPE  H10R 4314   2.382   4.477   4.405
   34DOPE  C211 4315   2.305   4.655   4.299
   34DOPE  H11R 4316   2.332   4.711   4.206
   34DOPE  H11S 4317   2.333   4.721   4.383
   34DOPE  C212 4318   2.152   4.640   4.295
   34DOPE  H12R 4319   2.123   4.581   4.205
   34DOPE  H12S 4320   2.108   4.741   4.281
   34DOPE  C213 4321   2.086   4.578   4.419
   34DOPE  H13R 4322   2.102   4.468   4.417
   34DOPE  H13S 4323   1.977   4.595   4.412
   34DOPE  C214 4324   2.137   4.633   4.554
   34DOPE  H14R 4325   2.156   4.741   4.543
   34DOPE  H14S 4326   2.233   4.583   4.580
   34DOPE  C215 4327   2.035   4.612   4.667
   34DOPE  H15R 4328   2.001   4.507   4.669
   34DOPE  H15S 4329   1.947   4.676   4.644
   34DOPE  C216 4330   2.087   4.652   4.806
   34DOPE  H16R 4331   2.139   4.749   4.796
   34DOPE  H16S 4332   2.162   4.578   4.841
   34DOPE  C217 4333   1.976   4.669   4.911
   34DOPE  H17R 4334   1.895   4.731   4.866
   34DOPE  H17S 4335   2.017   4.726   4.997
   34DOPE  C218 4336   1.915   4.538   4.963
   34DOPE  H18R 4337   1.827   4.559   5.027
   34DOPE  H18S 4338   1.990   4.482   5.024
   34DOPE  H18T 4339   1.883   4.474   4.879
   34DOPE   C33 4340   2.023   4.355   3.997
   34DOPE   H3X 4341   1.931   4.292   3.991
   34DOPE   H3Y 4342   2.022   4.406   4.095
   34DOPE   C34 4343   2.147   4.266   3.989
   34DOPE   H4X 4344   2.151   4.218   3.888
   34DOPE   H4Y 4345   2.238   4.327   4.001
   34DOPE   C35 4346   2.146   4.153   4.092
   34DOPE   H5X 4347   2.225   4.081   4.061
   34DOPE   H5Y 4348   2.050   4.099   4.089
   34DOPE   C36 4349   2.180   4.197   4.235
   34DOPE   H6X 4350   2.225   4.299   4.235
   34DOPE   H6Y 4351   2.257   4.127   4.273
   34DOPE   C37 4352   2.059   4.195   4.331
   34DOPE   H7X 4353   1.996   4.284   4.310
   34DOPE   H7Y 4354   1.997   4.106   4.309
   34DOPE   C38 4355   2.100   4.193   4.480
   34DOPE   H8X 4356   2.008   4.202   4.541
   34DOPE   H8Y 4357   2.160   4.284   4.501
   34DOPE   C39 4358   2.174   4.068   4.517
   34DOPE   H9X 4359   2.111   3.978   4.522
   34DOPE  C310 4360   2.306   4.054   4.539
   34DOPE  H10X 4361   2.346   3.955   4.566
   34DOPE  C311 4362   2.411   4.163   4.531
   34DOPE  H11X 4363   2.488   4.136   4.457
   34DOPE  H11Y 4364   2.367   4.260   4.497
   34DOPE  C312 4365   2.480   4.186   4.667
   34DOPE  H12X 4366   2.530   4.092   4.698
   34DOPE  H12Y 4367   2.404   4.210   4.745
   34DOPE  C313 4368   2.585   4.298   4.663
   34DOPE  H13X 4369   2.647   4.293   4.755
   34DOPE  H13Y 4370   2.652   4.279   4.577
   34DOPE  C314 4371   2.526   4.440   4.651
   34DOPE  H14X 4372   2.420   4.435   4.617
   34DOPE  H14Y 4373   2.583   4.495   4.574
   34DOPE  C315 4374   2.532   4.521   4.781
   34DOPE  H15X 4375   2.636   4.518   4.820
   34DOPE  H15Y 4376   2.466   4.475   4.858
   34DOPE  C316 4377   2.492   4.668   4.760
   34DOPE  H16X 4378   2.387   4.675   4.724
   34DOPE  H16Y 4379   2.557   4.710   4.681
   34DOPE  C317 4380   2.509   4.753   4.887
   34DOPE  H17X 4381   2.600   4.720   4.941
   34DOPE  H17Y 4382   2.526   4.859   4.856
   34DOPE  C318 4383   2.389   4.749   4.982
   34DOPE  H18X 4384   2.364   4.644   5.008
   34DOPE  H18Y 4385   2.412   4.805   5.075
   34DOPE  H18Z 4386   2.300   4.796   4.934
   35DOPE     N 4387   5.835   2.973   3.023
   35DOPE   HN1 4388   5.804   3.055   2.967
   35DOPE   HN2 4389   5.842   3.012   3.120
   35DOPE   HN3 4390   5.928   2.939   2.990
   35DOPE   C12 4391   5.728   2.867   3.015
   35DOPE  H12A 4392   5.756   2.785   3.085
   35DOPE  H12B 4393   5.728   2.828   2.911
   35DOPE   C11 4394   5.589   2.923   3.050
   35DOPE  H11A 4395   5.587   2.952   3.158
   35DOPE  H11B 4396   5.515   2.841   3.039
   35DOPE     P 4397   5.570   3.181   2.999
   35DOPE   O13 4398   5.468   3.264   2.929
   35DOPE   O14 4399   5.713   3.214   2.980
   35DOPE   O11 4400   5.538   3.179   3.154
   35DOPE   O12 4401   5.552   3.029   2.962
   35DOPE    C1 4402   5.530   3.299   3.231
   35DOPE    HA 4403   5.444   3.289   3.301
   35DOPE    HB 4404   5.510   3.389   3.169
   35DOPE    C2 4405   5.657   3.325   3.317
   35DOPE    HS 4406   5.743   3.340   3.249
   35DOPE   O21 4407   5.680   3.216   3.409
   35DOPE   C21 4408   5.763   3.122   3.370
   35DOPE   O22 4409   5.808   3.106   3.258
   35DOPE   C22 4410   5.799   3.031   3.488
   35DOPE   H2R 4411   5.719   2.955   3.498
   35DOPE   H2S 4412   5.799   3.094   3.580
   35DOPE    C3 4413   5.637   3.456   3.398
   35DOPE    HX 4414   5.629   3.540   3.325
   35DOPE    HY 4415   5.729   3.473   3.458
   35DOPE   O31 4416   5.516   3.449   3.476
   35DOPE   C31 4417   5.526   3.470   3.607
   35DOPE   O32 4418   5.621   3.518   3.666
   35DOPE   C32 4419   5.396   3.425   3.673
   35DOPE   H2X 4420   5.358   3.510   3.734
   35DOPE   H2Y 4421   5.321   3.403   3.594
   35DOPE   C23 4422   5.938   2.963   3.472
   35DOPE   H3R 4423   5.990   3.005   3.384
   35DOPE   H3S 4424   5.925   2.854   3.454
   35DOPE   C24 4425   6.034   2.984   3.590
   35DOPE   H4R 4426   6.026   3.088   3.628
   35DOPE   H4S 4427   6.138   2.974   3.551
   35DOPE   C25 4428   6.018   2.885   3.706
   35DOPE   H5R 4429   6.021   2.782   3.665
   35DOPE   H5S 4430   5.917   2.897   3.752
   35DOPE   C26 4431   6.127   2.897   3.814
   35DOPE   H6R 4432   6.225   2.864   3.773
   35DOPE   H6S 4433   6.101   2.825   3.895
   35DOPE   C27 4434   6.144   3.037   3.876
   35DOPE   H7R 4435   6.045   3.087   3.879
   35DOPE   H7S 4436   6.211   3.099   3.813
   35DOPE   C28 4437   6.196   3.030   4.021
   35DOPE   H8R 4438   6.291   2.972   4.020
   35DOPE   H8S 4439   6.123   2.970   4.078
   35DOPE   C29 4440   6.221   3.164   4.087
   35DOPE   H9R 4441   6.305   3.220   4.045
   35DOPE  C210 4442   6.151   3.220   4.188
   35DOPE  H10R 4443   6.182   3.320   4.223
   35DOPE  C211 4444   6.030   3.164   4.259
   35DOPE  H11R 4445   5.954   3.140   4.182
   35DOPE  H11S 4446   5.984   3.240   4.327
   35DOPE  C212 4447   6.051   3.036   4.342
   35DOPE  H12R 4448   6.120   2.970   4.286
   35DOPE  H12S 4449   5.954   2.982   4.352
   35DOPE  C213 4450   6.108   3.056   4.483
   35DOPE  H13R 4451   6.171   3.148   4.486
   35DOPE  H13S 4452   6.175   2.970   4.503
   35DOPE  C214 4453   6.002   3.057   4.594
   35DOPE  H14R 4454   5.936   2.970   4.579
   35DOPE  H14S 4455   5.940   3.149   4.587
   35DOPE  C215 4456   6.065   3.045   4.734
   35DOPE  H15R 4457   6.120   3.139   4.757
   35DOPE  H15S 4458   6.140   2.963   4.731
   35DOPE  C216 4459   5.963   3.013   4.844
   35DOPE  H16R 4460   5.907   2.922   4.813
   35DOPE  H16S 4461   5.890   3.096   4.853
   35DOPE  C217 4462   6.029   2.985   4.980
   35DOPE  H17R 4463   6.110   2.910   4.966
   35DOPE  H17S 4464   5.954   2.939   5.047
   35DOPE  C218 4465   6.087   3.109   5.047
   35DOPE  H18R 4466   6.007   3.185   5.064
   35DOPE  H18S 4467   6.165   3.155   4.984
   35DOPE  H18T 4468   6.132   3.083   5.145
   35DOPE   C33 4469   5.415   3.300   3.762
   35DOPE   H3X 4470   5.475   3.327   3.852
   35DOPE   H3Y 4471   5.471   3.222   3.706
   35DOPE   C34 4472   5.280   3.240   3.805
   35DOPE   H4X 4473   5.221   3.317   3.858
   35DOPE   H4Y 4474   5.225   3.211   3.713
   35DOPE   C35 4475   5.292   3.115   3.895
   35DOPE   H5X 4476   5.369   3.047   3.853
   35DOPE   H5Y 4477   5.195   3.062   3.894
   35DOPE   C36 4478   5.327   3.149   4.041
   35DOPE   H6X 4479   5.247   3.210   4.087
   35DOPE   H6Y 4480   5.420   3.211   4.041
   35DOPE   C37 4481   5.352   3.024   4.127
   35DOPE   H7X 4482   5.413   2.952   4.069
   35DOPE   H7Y 4483   5.411   3.055   4.216
   35DOPE   C38 4484   5.223   2.955   4.176
   35DOPE   H8X 4485   5.161   2.928   4.088
   35DOPE   H8Y 4486   5.164   3.029   4.234
   35DOPE   C39 4487   5.254   2.833   4.258
   35DOPE   H9X 4488   5.260   2.739   4.201
   35DOPE  C310 4489   5.279   2.828   4.391
   35DOPE  H10X 4490   5.302   2.732   4.437
   35DOPE  C311 4491   5.280   2.946   4.485
   35DOPE  H11X 4492   5.238   3.037   4.438
   35DOPE  H11Y 4493   5.219   2.925   4.575
   35DOPE  C312 4494   5.424   2.980   4.530
   35DOPE  H12X 4495   5.487   2.995   4.440
   35DOPE  H12Y 4496   5.467   2.895   4.588
   35DOPE  C313 4497   5.431   3.108   4.614
   35DOPE  H13X 4498   5.379   3.189   4.558
   35DOPE  H13Y 4499   5.376   3.093   4.710
   35DOPE  C314 4500   5.575   3.154   4.642
   35DOPE  H14X 4501   5.629   3.155   4.545
   35DOPE  H14Y 4502   5.626   3.082   4.709
   35DOPE  C315 4503   5.582   3.296   4.701
   35DOPE  H15X 4504   5.515   3.362   4.641
   35DOPE  H15Y 4505   5.686   3.334   4.690
   35DOPE  C316 4506   5.543   3.305   4.849
   35DOPE  H16X 4507   5.619   3.251   4.909
   35DOPE  H16Y 4508   5.445   3.255   4.864
   35DOPE  C317 4509   5.532   3.450   4.898
   35DOPE  H17X 4510   5.629   3.501   4.881
   35DOPE  H17Y 4511   5.456   3.501   4.836
   35DOPE  C318 4512   5.494   3.463   5.046
   35DOPE  H18X 4513   5.398   3.410   5.066
   35DOPE  H18Y 4514   5.572   3.419   5.110
   35DOPE  H18Z 4515   5.481   3.570   5.073
   36DOPE     N 4516   5.874   4.592   3.036
   36DOPE   HN1 4517   5.833   4.669   2.979
   36DOPE   HN2 4518   5.964   4.623   3.076
   36DOPE   HN3 4519   5.887   4.518   2.965
   36DOPE   C12 4520   5.765   4.559   3.136
   36DOPE  H12A 4521   5.733   4.654   3.182
   36DOPE  H12B 4522   5.807   4.492   3.214
   36DOPE   C11 4523   5.642   4.493   3.068
   36DOPE  H11A 4524   5.552   4.508   3.131
   36DOPE  H11B 4525   5.659   4.383   3.064
   36DOPE     P 4526   5.586   4.687   2.900
   36DOPE   O13 4527   5.504   4.695   2.776
   36DOPE   O14 4528   5.718   4.756   2.897
   36DOPE   O11 4529   5.508   4.737   3.027
   36DOPE   O12 4530   5.618   4.537   2.935
   36DOPE    C1 4531   5.457   4.871   3.030
   36DOPE    HA 4532   5.358   4.875   2.980
   36DOPE    HB 4533   5.524   4.941   2.975
   36DOPE    C2 4534   5.443   4.930   3.174
   36DOPE    HS 4535   5.440   5.041   3.165
   36DOPE   O21 4536   5.551   4.889   3.260
   36DOPE   C21 4537   5.669   4.940   3.234
   36DOPE   O22 4538   5.699   5.010   3.139
   36DOPE   C22 4539   5.769   4.900   3.345
   36DOPE   H2R 4540   5.814   4.994   3.384
   36DOPE   H2S 4541   5.849   4.840   3.299
   36DOPE    C3 4542   5.308   4.888   3.241
   36DOPE    HX 4543   5.227   4.908   3.168
   36DOPE    HY 4544   5.289   4.956   3.327
   36DOPE   O31 4545   5.304   4.748   3.278
   36DOPE   C31 4546   5.346   4.723   3.402
   36DOPE   O32 4547   5.381   4.806   3.483
   36DOPE   C32 4548   5.344   4.572   3.425
   36DOPE   H2X 4549   5.237   4.541   3.426
   36DOPE   H2Y 4550   5.395   4.524   3.339
   36DOPE   C23 4551   5.703   4.823   3.463
   36DOPE   H3R 4552   5.658   4.729   3.425
   36DOPE   H3S 4553   5.621   4.885   3.505
   36DOPE   C24 4554   5.797   4.788   3.580
   36DOPE   H4R 4555   5.835   4.881   3.627
   36DOPE   H4S 4556   5.885   4.731   3.543
   36DOPE   C25 4557   5.722   4.704   3.685
   36DOPE   H5R 4558   5.710   4.602   3.643
   36DOPE   H5S 4559   5.621   4.747   3.700
   36DOPE   C26 4560   5.792   4.692   3.822
   36DOPE   H6R 4561   5.902   4.693   3.810
   36DOPE   H6S 4562   5.763   4.594   3.865
   36DOPE   C27 4563   5.748   4.799   3.923
   36DOPE   H7R 4564   5.639   4.791   3.938
   36DOPE   H7S 4565   5.770   4.900   3.882
   36DOPE   C28 4566   5.820   4.781   4.059
   36DOPE   H8R 4567   5.928   4.799   4.039
   36DOPE   H8S 4568   5.810   4.675   4.091
   36DOPE   C29 4569   5.772   4.877   4.165
   36DOPE   H9R 4570   5.759   4.980   4.129
   36DOPE  C210 4571   5.746   4.851   4.295
   36DOPE  H10R 4572   5.714   4.935   4.358
   36DOPE  C211 4573   5.757   4.720   4.369
   36DOPE  H11R 4574   5.750   4.632   4.301
   36DOPE  H11S 4575   5.671   4.712   4.439
   36DOPE  C212 4576   5.885   4.707   4.453
   36DOPE  H12R 4577   5.919   4.807   4.489
   36DOPE  H12S 4578   5.966   4.667   4.388
   36DOPE  C213 4579   5.870   4.618   4.578
   36DOPE  H13R 4580   5.825   4.521   4.548
   36DOPE  H13S 4581   5.799   4.667   4.648
   36DOPE  C214 4582   6.004   4.593   4.649
   36DOPE  H14R 4583   6.050   4.691   4.675
   36DOPE  H14S 4584   6.072   4.542   4.577
   36DOPE  C215 4585   5.997   4.506   4.776
   36DOPE  H15R 4586   6.101   4.488   4.811
   36DOPE  H15S 4587   5.954   4.407   4.749
   36DOPE  C216 4588   5.917   4.568   4.890
   36DOPE  H16R 4589   5.814   4.589   4.856
   36DOPE  H16S 4590   5.965   4.665   4.917
   36DOPE  C217 4591   5.909   4.481   5.017
   36DOPE  H17R 4592   5.858   4.540   5.096
   36DOPE  H17S 4593   6.012   4.460   5.052
   36DOPE  C218 4594   5.834   4.349   4.997
   36DOPE  H18R 4595   5.731   4.369   4.959
   36DOPE  H18S 4596   5.826   4.295   5.094
   36DOPE  H18T 4597   5.887   4.284   4.925
   36DOPE   C33 4598   5.411   4.529   3.558
   36DOPE   H3X 4599   5.511   4.576   3.565
   36DOPE   H3Y 4600   5.426   4.418   3.557
   36DOPE   C34 4601   5.327   4.565   3.680
   36DOPE   H4X 4602   5.302   4.673   3.674
   36DOPE   H4Y 4603   5.231   4.508   3.678
   36DOPE   C35 4604   5.397   4.541   3.815
   36DOPE   H5X 4605   5.488   4.604   3.820
   36DOPE   H5Y 4606   5.429   4.435   3.821
   36DOPE   C36 4607   5.308   4.573   3.937
   36DOPE   H6X 4608   5.369   4.563   4.029
   36DOPE   H6Y 4609   5.227   4.497   3.942
   36DOPE   C37 4610   5.242   4.713   3.935
   36DOPE   H7X 4611   5.186   4.723   3.840
   36DOPE   H7Y 4612   5.165   4.722   4.015
   36DOPE   C38 4613   5.340   4.832   3.945
   36DOPE   H8X 4614   5.286   4.920   3.905
   36DOPE   H8Y 4615   5.421   4.813   3.872
   36DOPE   C39 4616   5.402   4.876   4.076
   36DOPE   H9X 4617   5.469   4.962   4.061
   36DOPE  C310 4618   5.390   4.832   4.203
   36DOPE  H10X 4619   5.450   4.885   4.280
   36DOPE  C311 4620   5.310   4.719   4.263
   36DOPE  H11X 4621   5.245   4.758   4.344
   36DOPE  H11Y 4622   5.242   4.670   4.190
   36DOPE  C312 4623   5.402   4.611   4.322
   36DOPE  H12X 4624   5.464   4.658   4.401
   36DOPE  H12Y 4625   5.471   4.573   4.243
   36DOPE  C313 4626   5.323   4.494   4.380
   36DOPE  H13X 4627   5.249   4.534   4.453
   36DOPE  H13Y 4628   5.266   4.444   4.299
   36DOPE  C314 4629   5.409   4.390   4.454
   36DOPE  H14X 4630   5.475   4.338   4.381
   36DOPE  H14Y 4631   5.341   4.314   4.498
   36DOPE  C315 4632   5.493   4.454   4.565
   36DOPE  H15X 4633   5.441   4.546   4.599
   36DOPE  H15Y 4634   5.591   4.485   4.523
   36DOPE  C316 4635   5.515   4.364   4.688
   36DOPE  H16X 4636   5.594   4.410   4.750
   36DOPE  H16Y 4637   5.549   4.264   4.656
   36DOPE  C317 4638   5.389   4.350   4.775
   36DOPE  H17X 4639   5.345   4.451   4.791
   36DOPE  H17Y 4640   5.313   4.291   4.719
   36DOPE  C318 4641   5.416   4.285   4.910
   36DOPE  H18X 4642   5.489   4.345   4.968
   36DOPE  H18Y 4643   5.322   4.278   4.969
   36DOPE  H18Z 4644   5.457   4.183   4.897
   37DOPE     N 4645   2.867   2.539   3.032
   37DOPE   HN1 4646   2.882   2.631   2.985
   37DOPE   HN2 4647   2.799   2.553   3.109
   37DOPE   HN3 4648   2.957   2.506   3.072
   37DOPE   C12 4649   2.814   2.432   2.941
   37DOPE  H12A 4650   2.798   2.342   3.004
   37DOPE  H12B 4651   2.893   2.408   2.866
   37DOPE   C11 4652   2.682   2.473   2.871
   37DOPE  H11A 4653   2.635   2.383   2.826
   37DOPE  H11B 4654   2.709   2.540   2.787
   37DOPE     P 4655   2.542   2.477   3.093
   37DOPE   O13 4656   2.645   2.522   3.190
   37DOPE   O14 4657   2.528   2.332   3.070
   37DOPE   O11 4658   2.402   2.546   3.116
   37DOPE   O12 4659   2.588   2.542   2.955
   37DOPE    C1 4660   2.386   2.656   3.206
   37DOPE    HA 4661   2.311   2.727   3.164
   37DOPE    HB 4662   2.480   2.714   3.218
   37DOPE    C2 4663   2.337   2.613   3.347
   37DOPE    HS 4664   2.336   2.705   3.410
   37DOPE   O21 4665   2.424   2.510   3.398
   37DOPE   C21 4666   2.457   2.520   3.525
   37DOPE   O22 4667   2.428   2.612   3.599
   37DOPE   C22 4668   2.537   2.396   3.564
   37DOPE   H2R 4669   2.620   2.384   3.491
   37DOPE   H2S 4670   2.469   2.309   3.553
   37DOPE    C3 4671   2.192   2.556   3.342
   37DOPE    HX 4672   2.198   2.456   3.294
   37DOPE    HY 4673   2.130   2.620   3.276
   37DOPE   O31 4674   2.135   2.542   3.475
   37DOPE   C31 4675   2.072   2.650   3.521
   37DOPE   O32 4676   2.053   2.752   3.456
   37DOPE   C32 4677   2.027   2.631   3.666
   37DOPE   H2X 4678   1.971   2.723   3.693
   37DOPE   H2Y 4679   1.958   2.544   3.671
   37DOPE   C23 4680   2.592   2.401   3.708
   37DOPE   H3R 4681   2.633   2.301   3.734
   37DOPE   H3S 4682   2.510   2.422   3.780
   37DOPE   C24 4683   2.703   2.505   3.726
   37DOPE   H4R 4684   2.665   2.605   3.698
   37DOPE   H4S 4685   2.788   2.480   3.658
   37DOPE   C25 4686   2.754   2.513   3.870
   37DOPE   H5R 4687   2.782   2.410   3.901
   37DOPE   H5S 4688   2.672   2.547   3.937
   37DOPE   C26 4689   2.876   2.605   3.887
   37DOPE   H6R 4690   2.843   2.711   3.878
   37DOPE   H6S 4691   2.949   2.586   3.807
   37DOPE   C27 4692   2.944   2.585   4.023
   37DOPE   H7R 4693   2.985   2.481   4.026
   37DOPE   H7S 4694   2.868   2.591   4.104
   37DOPE   C28 4695   3.059   2.683   4.050
   37DOPE   H8R 4696   3.125   2.686   3.960
   37DOPE   H8S 4697   3.121   2.643   4.134
   37DOPE   C29 4698   3.010   2.821   4.083
   37DOPE   H9R 4699   3.020   2.896   4.003
   37DOPE  C210 4700   2.951   2.857   4.199
   37DOPE  H10R 4701   2.917   2.961   4.212
   37DOPE  C211 4702   2.925   2.767   4.317
   37DOPE  H11R 4703   2.969   2.811   4.409
   37DOPE  H11S 4704   2.973   2.668   4.304
   37DOPE  C212 4705   2.774   2.741   4.340
   37DOPE  H12R 4706   2.764   2.666   4.421
   37DOPE  H12S 4707   2.730   2.696   4.249
   37DOPE  C213 4708   2.691   2.865   4.378
   37DOPE  H13R 4709   2.587   2.833   4.400
   37DOPE  H13S 4710   2.686   2.934   4.291
   37DOPE  C214 4711   2.746   2.944   4.499
   37DOPE  H14R 4712   2.673   3.024   4.524
   37DOPE  H14S 4713   2.840   2.995   4.468
   37DOPE  C215 4714   2.774   2.861   4.625
   37DOPE  H15R 4715   2.824   2.926   4.699
   37DOPE  H15S 4716   2.846   2.780   4.600
   37DOPE  C216 4717   2.649   2.799   4.690
   37DOPE  H16R 4718   2.588   2.748   4.613
   37DOPE  H16S 4719   2.588   2.881   4.733
   37DOPE  C217 4720   2.684   2.697   4.799
   37DOPE  H17R 4721   2.757   2.744   4.869
   37DOPE  H17S 4722   2.735   2.611   4.751
   37DOPE  C218 4723   2.563   2.649   4.877
   37DOPE  H18R 4724   2.486   2.607   4.809
   37DOPE  H18S 4725   2.517   2.734   4.932
   37DOPE  H18T 4726   2.591   2.571   4.951
   37DOPE   C33 4727   2.145   2.613   3.765
   37DOPE   H3X 4728   2.115   2.653   3.864
   37DOPE   H3Y 4729   2.231   2.675   3.732
   37DOPE   C34 4730   2.190   2.467   3.783
   37DOPE   H4X 4731   2.162   2.409   3.692
   37DOPE   H4Y 4732   2.301   2.465   3.789
   37DOPE   C35 4733   2.134   2.397   3.908
   37DOPE   H5X 4734   2.160   2.289   3.903
   37DOPE   H5Y 4735   2.023   2.405   3.906
   37DOPE   C36 4736   2.185   2.453   4.043
   37DOPE   H6X 4737   2.131   2.401   4.125
   37DOPE   H6Y 4738   2.158   2.561   4.049
   37DOPE   C37 4739   2.336   2.440   4.069
   37DOPE   H7X 4740   2.392   2.488   3.986
   37DOPE   H7Y 4741   2.359   2.498   4.161
   37DOPE   C38 4742   2.384   2.295   4.090
   37DOPE   H8X 4743   2.360   2.237   3.999
   37DOPE   H8Y 4744   2.326   2.251   4.173
   37DOPE   C39 4745   2.533   2.291   4.115
   37DOPE   H9X 4746   2.593   2.333   4.033
   37DOPE  C310 4747   2.598   2.243   4.223
   37DOPE  H10X 4748   2.708   2.248   4.224
   37DOPE  C311 4749   2.538   2.182   4.348
   37DOPE  H11X 4750   2.428   2.194   4.353
   37DOPE  H11Y 4751   2.558   2.073   4.347
   37DOPE  C312 4752   2.600   2.240   4.477
   37DOPE  H12X 4753   2.710   2.245   4.466
   37DOPE  H12Y 4754   2.580   2.169   4.561
   37DOPE  C313 4755   2.546   2.379   4.516
   37DOPE  H13X 4756   2.621   2.429   4.581
   37DOPE  H13Y 4757   2.536   2.440   4.424
   37DOPE  C314 4758   2.412   2.377   4.592
   37DOPE  H14X 4759   2.337   2.320   4.533
   37DOPE  H14Y 4760   2.376   2.481   4.600
   37DOPE  C315 4761   2.422   2.319   4.734
   37DOPE  H15X 4762   2.507   2.368   4.786
   37DOPE  H15Y 4763   2.445   2.210   4.728
   37DOPE  C316 4764   2.295   2.339   4.817
   37DOPE  H16X 4765   2.207   2.294   4.766
   37DOPE  H16Y 4766   2.276   2.449   4.824
   37DOPE  C317 4767   2.306   2.283   4.960
   37DOPE  H17X 4768   2.410   2.300   4.996
   37DOPE  H17Y 4769   2.239   2.340   5.027
   37DOPE  C318 4770   2.271   2.135   4.972
   37DOPE  H18X 4771   2.284   2.099   5.077
   37DOPE  H18Y 4772   2.165   2.117   4.943
   37DOPE  H18Z 4773   2.336   2.073   4.906
   38DOPE     N 4774   5.271   5.417   2.814
   38DOPE   HN1 4775   5.332   5.485   2.764
   38DOPE   HN2 4776   5.181   5.410   2.761
   38DOPE   HN3 4777   5.249   5.452   2.909
   38DOPE   C12 4778   5.337   5.283   2.825
   38DOPE  H12A 4779   5.395   5.265   2.732
   38DOPE  H12B 4780   5.257   5.207   2.832
   38DOPE   C11 4781   5.427   5.276   2.951
   38DOPE  H11A 4782   5.518   5.337   2.933
   38DOPE  H11B 4783   5.460   5.171   2.966
   38DOPE     P 4784   5.228   5.262   3.124
   38DOPE   O13 4785   5.207   5.132   3.058
   38DOPE   O14 4786   5.124   5.365   3.102
   38DOPE   O11 4787   5.259   5.240   3.277
   38DOPE   O12 4788   5.362   5.325   3.069
   38DOPE    C1 4789   5.271   5.350   3.367
   38DOPE    HA 4790   5.181   5.416   3.361
   38DOPE    HB 4791   5.361   5.410   3.342
   38DOPE    C2 4792   5.283   5.301   3.514
   38DOPE    HS 4793   5.369   5.231   3.517
   38DOPE   O21 4794   5.160   5.234   3.549
   38DOPE   C21 4795   5.171   5.142   3.643
   38DOPE   O22 4796   5.275   5.104   3.693
   38DOPE   C22 4797   5.032   5.097   3.687
   38DOPE   H2R 4798   4.986   5.038   3.605
   38DOPE   H2S 4799   4.972   5.189   3.704
   38DOPE    C3 4800   5.311   5.420   3.610
   38DOPE    HX 4801   5.220   5.484   3.614
   38DOPE    HY 4802   5.391   5.481   3.563
   38DOPE   O31 4803   5.358   5.379   3.741
   38DOPE   C31 4804   5.267   5.373   3.837
   38DOPE   O32 4805   5.150   5.404   3.826
   38DOPE   C32 4806   5.328   5.318   3.966
   38DOPE   H2X 4807   5.263   5.233   3.997
   38DOPE   H2Y 4808   5.430   5.277   3.946
   38DOPE   C23 4809   5.039   5.015   3.817
   38DOPE   H3R 4810   5.102   5.069   3.891
   38DOPE   H3S 4811   5.089   4.917   3.796
   38DOPE   C24 4812   4.902   4.989   3.881
   38DOPE   H4R 4813   4.838   4.935   3.808
   38DOPE   H4S 4814   4.854   5.086   3.903
   38DOPE   C25 4815   4.910   4.907   4.012
   38DOPE   H5R 4816   4.951   4.806   3.990
   38DOPE   H5S 4817   4.807   4.894   4.051
   38DOPE   C26 4818   4.997   4.972   4.121
   38DOPE   H6R 4819   4.972   5.080   4.126
   38DOPE   H6S 4820   5.104   4.965   4.093
   38DOPE   C27 4821   4.976   4.909   4.259
   38DOPE   H7R 4822   5.014   4.805   4.256
   38DOPE   H7S 4823   4.867   4.906   4.281
   38DOPE   C28 4824   5.048   4.987   4.371
   38DOPE   H8R 4825   5.008   5.091   4.371
   38DOPE   H8S 4826   5.156   4.994   4.345
   38DOPE   C29 4827   5.025   4.925   4.507
   38DOPE   H9R 4828   4.922   4.892   4.524
   38DOPE  C210 4829   5.115   4.907   4.606
   38DOPE  H10R 4830   5.081   4.860   4.699
   38DOPE  C211 4831   5.261   4.946   4.605
   38DOPE  H11R 4832   5.276   5.034   4.672
   38DOPE  H11S 4833   5.294   4.977   4.504
   38DOPE  C212 4834   5.354   4.834   4.653
   38DOPE  H12R 4835   5.459   4.868   4.636
   38DOPE  H12S 4836   5.340   4.743   4.590
   38DOPE  C213 4837   5.338   4.796   4.802
   38DOPE  H13R 4838   5.242   4.740   4.811
   38DOPE  H13S 4839   5.328   4.887   4.864
   38DOPE  C214 4840   5.450   4.708   4.858
   38DOPE  H14R 4841   5.486   4.638   4.780
   38DOPE  H14S 4842   5.407   4.646   4.940
   38DOPE  C215 4843   5.572   4.781   4.918
   38DOPE  H15R 4844   5.639   4.704   4.961
   38DOPE  H15S 4845   5.538   4.846   5.002
   38DOPE  C216 4846   5.654   4.864   4.817
   38DOPE  H16R 4847   5.604   4.961   4.797
   38DOPE  H16S 4848   5.655   4.808   4.721
   38DOPE  C217 4849   5.800   4.887   4.858
   38DOPE  H17R 4850   5.865   4.842   4.780
   38DOPE  H17S 4851   5.821   4.832   4.953
   38DOPE  C218 4852   5.843   5.033   4.876
   38DOPE  H18R 4853   5.796   5.080   4.965
   38DOPE  H18S 4854   5.816   5.093   4.786
   38DOPE  H18T 4855   5.953   5.039   4.890
   38DOPE   C33 4856   5.333   5.424   4.078
   38DOPE   H3X 4857   5.242   5.489   4.073
   38DOPE   H3Y 4858   5.421   5.490   4.060
   38DOPE   C34 4859   5.340   5.367   4.221
   38DOPE   H4X 4860   5.429   5.302   4.228
   38DOPE   H4Y 4861   5.355   5.452   4.291
   38DOPE   C35 4862   5.216   5.288   4.268
   38DOPE   H5X 4863   5.239   5.250   4.370
   38DOPE   H5Y 4864   5.201   5.198   4.204
   38DOPE   C36 4865   5.084   5.367   4.278
   38DOPE   H6X 4866   5.102   5.466   4.324
   38DOPE   H6Y 4867   5.017   5.311   4.347
   38DOPE   C37 4868   5.009   5.383   4.144
   38DOPE   H7X 4869   5.022   5.486   4.106
   38DOPE   H7Y 4870   5.056   5.315   4.070
   38DOPE   C38 4871   4.859   5.346   4.148
   38DOPE   H8X 4872   4.852   5.240   4.182
   38DOPE   H8Y 4873   4.822   5.349   4.044
   38DOPE   C39 4874   4.774   5.435   4.234
   38DOPE   H9X 4875   4.807   5.540   4.242
   38DOPE  C310 4876   4.663   5.396   4.299
   38DOPE  H10X 4877   4.607   5.469   4.359
   38DOPE  C311 4878   4.604   5.256   4.297
   38DOPE  H11X 4879   4.494   5.261   4.295
   38DOPE  H11Y 4880   4.635   5.202   4.205
   38DOPE  C312 4881   4.648   5.172   4.419
   38DOPE  H12X 4882   4.759   5.174   4.427
   38DOPE  H12Y 4883   4.619   5.066   4.401
   38DOPE  C313 4884   4.584   5.218   4.551
   38DOPE  H13X 4885   4.610   5.324   4.569
   38DOPE  H13Y 4886   4.474   5.211   4.540
   38DOPE  C314 4887   4.627   5.134   4.672
   38DOPE  H14X 4888   4.599   5.027   4.654
   38DOPE  H14Y 4889   4.570   5.168   4.761
   38DOPE  C315 4890   4.777   5.141   4.705
   38DOPE  H15X 4891   4.836   5.098   4.621
   38DOPE  H15Y 4892   4.796   5.078   4.794
   38DOPE  C316 4893   4.827   5.283   4.733
   38DOPE  H16X 4894   4.757   5.332   4.804
   38DOPE  H16Y 4895   4.826   5.343   4.640
   38DOPE  C317 4896   4.968   5.286   4.794
   38DOPE  H17X 4897   4.980   5.381   4.851
   38DOPE  H17Y 4898   4.978   5.204   4.868
   38DOPE  C318 4899   5.080   5.277   4.691
   38DOPE  H18X 4900   5.180   5.278   4.741
   38DOPE  H18Y 4901   5.071   5.183   4.632
   38DOPE  H18Z 4902   5.076   5.362   4.619
   39DOPE     N 4903   1.818   3.588   3.110
   39DOPE   HN1 4904   1.744   3.578   3.182
   39DOPE   HN2 4905   1.776   3.567   3.017
   39DOPE   HN3 4906   1.894   3.518   3.125
   39DOPE   C12 4907   1.875   3.727   3.104
   39DOPE  H12A 4908   1.977   3.725   3.150
   39DOPE  H12B 4909   1.810   3.793   3.165
   39DOPE   C11 4910   1.882   3.776   2.958
   39DOPE  H11A 4911   1.962   3.720   2.906
   39DOPE  H11B 4912   1.914   3.883   2.956
   39DOPE     P 4913   1.631   3.839   2.924
   39DOPE   O13 4914   1.585   3.784   3.053
   39DOPE   O14 4915   1.540   3.837   2.808
   39DOPE   O11 4916   1.692   3.984   2.942
   39DOPE   O12 4917   1.760   3.755   2.886
   39DOPE    C1 4918   1.618   4.095   2.992
   39DOPE    HA 4919   1.508   4.079   2.991
   39DOPE    HB 4920   1.637   4.182   2.925
   39DOPE    C2 4921   1.662   4.139   3.135
   39DOPE    HS 4922   1.630   4.244   3.147
   39DOPE   O21 4923   1.806   4.130   3.143
   39DOPE   C21 4924   1.859   4.188   3.250
   39DOPE   O22 4925   1.799   4.252   3.334
   39DOPE   C22 4926   2.011   4.166   3.248
   39DOPE   H2R 4927   2.060   4.255   3.293
   39DOPE   H2S 4928   2.042   4.159   3.142
   39DOPE    C3 4929   1.587   4.056   3.245
   39DOPE    HX 4930   1.523   3.980   3.195
   39DOPE    HY 4931   1.519   4.129   3.294
   39DOPE   O31 4932   1.674   3.989   3.340
   39DOPE   C31 4933   1.618   3.970   3.459
   39DOPE   O32 4934   1.505   4.001   3.491
   39DOPE   C32 4935   1.719   3.897   3.548
   39DOPE   H2X 4936   1.764   3.816   3.488
   39DOPE   H2Y 4937   1.798   3.970   3.576
   39DOPE   C23 4938   2.052   4.037   3.323
   39DOPE   H3R 4939   2.152   4.006   3.287
   39DOPE   H3S 4940   1.982   3.955   3.300
   39DOPE   C24 4941   2.063   4.055   3.476
   39DOPE   H4R 4942   1.967   4.093   3.518
   39DOPE   H4S 4943   2.141   4.130   3.498
   39DOPE   C25 4944   2.100   3.922   3.544
   39DOPE   H5R 4945   2.190   3.884   3.491
   39DOPE   H5S 4946   2.020   3.847   3.529
   39DOPE   C26 4947   2.136   3.933   3.693
   39DOPE   H6R 4948   2.194   4.026   3.714
   39DOPE   H6S 4949   2.204   3.848   3.713
   39DOPE   C27 4950   2.019   3.920   3.791
   39DOPE   H7R 4951   1.939   3.859   3.742
   39DOPE   H7S 4952   1.976   4.020   3.813
   39DOPE   C28 4953   2.063   3.847   3.919
   39DOPE   H8R 4954   2.143   3.906   3.968
   39DOPE   H8S 4955   2.112   3.753   3.884
   39DOPE   C29 4956   1.952   3.810   4.015
   39DOPE   H9R 4957   1.857   3.786   3.966
   39DOPE  C210 4958   1.959   3.804   4.150
   39DOPE  H10R 4959   1.868   3.775   4.205
   39DOPE  C211 4960   2.078   3.833   4.238
   39DOPE  H11R 4961   2.045   3.895   4.324
   39DOPE  H11S 4962   2.154   3.894   4.184
   39DOPE  C212 4963   2.153   3.710   4.295
   39DOPE  H12R 4964   2.237   3.746   4.357
   39DOPE  H12S 4965   2.197   3.655   4.209
   39DOPE  C213 4966   2.067   3.614   4.378
   39DOPE  H13R 4967   2.127   3.523   4.402
   39DOPE  H13S 4968   1.981   3.580   4.315
   39DOPE  C214 4969   2.010   3.671   4.509
   39DOPE  H14R 4970   1.935   3.598   4.547
   39DOPE  H14S 4971   1.957   3.766   4.489
   39DOPE  C215 4972   2.114   3.689   4.621
   39DOPE  H15R 4973   2.191   3.763   4.590
   39DOPE  H15S 4974   2.166   3.592   4.635
   39DOPE  C216 4975   2.051   3.731   4.754
   39DOPE  H16R 4976   2.124   3.716   4.836
   39DOPE  H16S 4977   1.963   3.666   4.775
   39DOPE  C217 4978   2.005   3.878   4.757
   39DOPE  H17R 4979   1.938   3.897   4.670
   39DOPE  H17S 4980   2.095   3.942   4.746
   39DOPE  C218 4981   1.932   3.917   4.885
   39DOPE  H18R 4982   1.900   4.023   4.882
   39DOPE  H18S 4983   1.999   3.903   4.973
   39DOPE  H18T 4984   1.842   3.854   4.899
   39DOPE   C33 4985   1.654   3.839   3.676
   39DOPE   H3X 4986   1.722   3.762   3.718
   39DOPE   H3Y 4987   1.558   3.789   3.653
   39DOPE   C34 4988   1.633   3.946   3.784
   39DOPE   H4X 4989   1.731   3.993   3.808
   39DOPE   H4Y 4990   1.566   4.026   3.745
   39DOPE   C35 4991   1.572   3.889   3.913
   39DOPE   H5X 4992   1.630   3.800   3.944
   39DOPE   H5Y 4993   1.468   3.857   3.893
   39DOPE   C36 4994   1.575   3.992   4.027
   39DOPE   H6X 4995   1.515   4.081   3.996
   39DOPE   H6Y 4996   1.680   4.025   4.042
   39DOPE   C37 4997   1.519   3.937   4.159
   39DOPE   H7X 4998   1.413   3.906   4.141
   39DOPE   H7Y 4999   1.575   3.845   4.187
   39DOPE   C38 5000   1.523   4.039   4.274
   39DOPE   H8X 5001   1.460   3.999   4.357
   39DOPE   H8Y 5002   1.473   4.132   4.239
   39DOPE   C39 5003   1.664   4.070   4.318
   39DOPE   H9X 5004   1.725   4.119   4.241
   39DOPE  C310 5005   1.720   4.045   4.437
   39DOPE  H10X 5006   1.824   4.075   4.454
   39DOPE  C311 5007   1.654   3.980   4.557
   39DOPE  H11X 5008   1.549   3.952   4.537
   39DOPE  H11Y 5009   1.708   3.886   4.582
   39DOPE  C312 5010   1.656   4.071   4.680
   39DOPE  H12X 5011   1.602   4.166   4.659
   39DOPE  H12Y 5012   1.762   4.098   4.703
   39DOPE  C313 5013   1.595   4.004   4.804
   39DOPE  H13X 5014   1.629   3.898   4.807
   39DOPE  H13Y 5015   1.634   4.054   4.895
   39DOPE  C314 5016   1.442   4.011   4.808
   39DOPE  H14X 5017   1.398   3.974   4.713
   39DOPE  H14Y 5018   1.413   4.117   4.820
   39DOPE  C315 5019   1.383   3.930   4.925
   39DOPE  H15X 5020   1.281   3.967   4.949
   39DOPE  H15Y 5021   1.446   3.946   5.015
   39DOPE  C316 5022   1.373   3.780   4.894
   39DOPE  H16X 5023   1.464   3.747   4.841
   39DOPE  H16Y 5024   1.287   3.764   4.825
   39DOPE  C317 5025   1.356   3.691   5.017
   39DOPE  H17X 5026   1.277   3.733   5.083
   39DOPE  H17Y 5027   1.322   3.591   4.984
   39DOPE  C318 5028   1.487   3.674   5.096
   39DOPE  H18X 5029   1.472   3.606   5.182
   39DOPE  H18Y 5030   1.566   3.631   5.031
   39DOPE  H18Z 5031   1.523   3.772   5.134
   40DOPE     N 5032   4.355   6.009   3.097
   40DOPE   HN1 5033   4.329   5.951   3.015
   40DOPE   HN2 5034   4.451   5.981   3.126
   40DOPE   HN3 5035   4.287   5.989   3.173
   40DOPE   C12 5036   4.351   6.155   3.058
   40DOPE  H12A 5037   4.393   6.162   2.956
   40DOPE  H12B 5038   4.418   6.209   3.129
   40DOPE   C11 5039   4.209   6.215   3.064
   40DOPE  H11A 5040   4.218   6.322   3.033
   40DOPE  H11B 5041   4.172   6.218   3.168
   40DOPE     P 5042   4.038   6.019   3.014
   40DOPE   O13 5043   4.111   5.907   2.952
   40DOPE   O14 5044   3.896   6.037   2.980
   40DOPE   O11 5045   4.062   6.011   3.169
   40DOPE   O12 5046   4.117   6.151   2.975
   40DOPE    C1 5047   3.958   5.968   3.257
   40DOPE    HA 5048   4.005   5.933   3.352
   40DOPE    HB 5049   3.902   5.881   3.216
   40DOPE    C2 5050   3.857   6.081   3.295
   40DOPE    HS 5051   3.802   6.108   3.202
   40DOPE   O21 5052   3.933   6.195   3.340
   40DOPE   C21 5053   3.864   6.307   3.357
   40DOPE   O22 5054   3.744   6.321   3.336
   40DOPE   C22 5055   3.956   6.421   3.401
   40DOPE   H2R 5056   3.893   6.501   3.443
   40DOPE   H2S 5057   4.004   6.459   3.308
   40DOPE    C3 5058   3.752   6.030   3.399
   40DOPE    HX 5059   3.700   5.943   3.354
   40DOPE    HY 5060   3.674   6.108   3.414
   40DOPE   O31 5061   3.814   6.002   3.526
   40DOPE   C31 5062   3.817   5.876   3.567
   40DOPE   O32 5063   3.766   5.781   3.510
   40DOPE   C32 5064   3.899   5.870   3.696
   40DOPE   H2X 5065   4.005   5.884   3.667
   40DOPE   H2Y 5066   3.869   5.955   3.761
   40DOPE   C23 5067   4.068   6.381   3.502
   40DOPE   H3R 5068   4.148   6.457   3.495
   40DOPE   H3S 5069   4.113   6.284   3.475
   40DOPE   C24 5070   4.022   6.379   3.649
   40DOPE   H4R 5071   3.988   6.480   3.680
   40DOPE   H4S 5072   4.111   6.353   3.711
   40DOPE   C25 5073   3.912   6.276   3.679
   40DOPE   H5R 5074   3.936   6.183   3.622
   40DOPE   H5S 5075   3.815   6.315   3.641
   40DOPE   C26 5076   3.899   6.239   3.827
   40DOPE   H6R 5077   3.989   6.182   3.858
   40DOPE   H6S 5078   3.811   6.172   3.839
   40DOPE   C27 5079   3.881   6.360   3.921
   40DOPE   H7R 5080   3.799   6.423   3.880
   40DOPE   H7S 5081   3.974   6.421   3.921
   40DOPE   C28 5082   3.845   6.320   4.065
   40DOPE   H8R 5083   3.751   6.261   4.061
   40DOPE   H8S 5084   3.821   6.413   4.121
   40DOPE   C29 5085   3.950   6.238   4.135
   40DOPE   H9R 5086   3.958   6.134   4.098
   40DOPE  C210 5087   4.031   6.278   4.234
   40DOPE  H10R 5088   4.101   6.205   4.277
   40DOPE  C211 5089   4.035   6.415   4.297
   40DOPE  H11R 5090   3.970   6.418   4.387
   40DOPE  H11S 5091   3.996   6.492   4.227
   40DOPE  C212 5092   4.178   6.459   4.336
   40DOPE  H12R 5093   4.174   6.564   4.371
   40DOPE  H12S 5094   4.243   6.457   4.246
   40DOPE  C213 5095   4.244   6.375   4.448
   40DOPE  H13R 5096   4.346   6.415   4.466
   40DOPE  H13S 5097   4.256   6.269   4.414
   40DOPE  C214 5098   4.168   6.376   4.581
   40DOPE  H14R 5099   4.066   6.335   4.566
   40DOPE  H14S 5100   4.157   6.481   4.615
   40DOPE  C215 5101   4.237   6.293   4.690
   40DOPE  H15R 5102   4.341   6.329   4.703
   40DOPE  H15S 5103   4.241   6.188   4.657
   40DOPE  C216 5104   4.164   6.303   4.825
   40DOPE  H16R 5105   4.057   6.276   4.811
   40DOPE  H16S 5106   4.167   6.409   4.859
   40DOPE  C217 5107   4.223   6.213   4.935
   40DOPE  H17R 5108   4.174   6.239   5.031
   40DOPE  H17S 5109   4.331   6.237   4.946
   40DOPE  C218 5110   4.205   6.063   4.911
   40DOPE  H18R 5111   4.244   6.004   4.997
   40DOPE  H18S 5112   4.260   6.031   4.819
   40DOPE  H18T 5113   4.098   6.037   4.899
   40DOPE   C33 5114   3.883   5.737   3.772
   40DOPE   H3X 5115   3.963   5.730   3.849
   40DOPE   H3Y 5116   3.897   5.652   3.703
   40DOPE   C34 5117   3.747   5.725   3.843
   40DOPE   H4X 5118   3.677   5.804   3.808
   40DOPE   H4Y 5119   3.702   5.628   3.815
   40DOPE   C35 5120   3.757   5.729   3.997
   40DOPE   H5X 5121   3.835   5.657   4.029
   40DOPE   H5Y 5122   3.660   5.694   4.038
   40DOPE   C36 5123   3.786   5.869   4.054
   40DOPE   H6X 5124   3.706   5.938   4.018
   40DOPE   H6Y 5125   3.883   5.906   4.015
   40DOPE   C37 5126   3.785   5.870   4.208
   40DOPE   H7X 5127   3.777   5.975   4.244
   40DOPE   H7Y 5128   3.694   5.817   4.241
   40DOPE   C38 5129   3.909   5.802   4.271
   40DOPE   H8X 5130   3.932   5.709   4.215
   40DOPE   H8Y 5131   3.880   5.770   4.373
   40DOPE   C39 5132   4.029   5.893   4.275
   40DOPE   H9X 5133   4.043   5.954   4.185
   40DOPE  C310 5134   4.119   5.903   4.375
   40DOPE  H10X 5135   4.202   5.975   4.364
   40DOPE  C311 5136   4.120   5.825   4.504
   40DOPE  H11X 5137   4.076   5.724   4.490
   40DOPE  H11Y 5138   4.226   5.806   4.532
   40DOPE  C312 5139   4.051   5.891   4.625
   40DOPE  H12X 5140   4.079   5.999   4.631
   40DOPE  H12Y 5141   4.090   5.842   4.716
   40DOPE  C313 5142   3.898   5.875   4.625
   40DOPE  H13X 5143   3.853   5.939   4.546
   40DOPE  H13Y 5144   3.875   5.770   4.599
   40DOPE  C314 5145   3.834   5.905   4.761
   40DOPE  H14X 5146   3.888   5.848   4.839
   40DOPE  H14Y 5147   3.729   5.867   4.760
   40DOPE  C315 5148   3.831   6.054   4.797
   40DOPE  H15X 5149   3.765   6.108   4.726
   40DOPE  H15Y 5150   3.933   6.096   4.784
   40DOPE  C316 5151   3.785   6.078   4.942
   40DOPE  H16X 5152   3.849   6.019   5.011
   40DOPE  H16Y 5153   3.681   6.040   4.953
   40DOPE  C317 5154   3.789   6.225   4.983
   40DOPE  H17X 5155   3.895   6.260   4.979
   40DOPE  H17Y 5156   3.732   6.285   4.908
   40DOPE  C318 5157   3.732   6.252   5.122
   40DOPE  H18X 5158   3.737   6.360   5.147
   40DOPE  H18Y 5159   3.626   6.219   5.127
   40DOPE  H18Z 5160   3.789   6.195   5.199
   41DOPE     N 5161   2.020   4.949   3.198
   41DOPE   HN1 5162   2.073   5.001   3.270
   41DOPE   HN2 5163   2.061   4.856   3.179
   41DOPE   HN3 5164   2.021   5.004   3.109
   41DOPE   C12 5165   1.876   4.939   3.236
   41DOPE  H12A 5166   1.847   5.035   3.283
   41DOPE  H12B 5167   1.864   4.858   3.310
   41DOPE   C11 5168   1.795   4.915   3.107
   41DOPE  H11A 5169   1.687   4.923   3.128
   41DOPE  H11B 5170   1.814   4.811   3.073
   41DOPE     P 5171   1.782   5.154   3.001
   41DOPE   O13 5172   1.637   5.150   3.027
   41DOPE   O14 5173   1.829   5.218   2.876
   41DOPE   O11 5174   1.861   5.215   3.125
   41DOPE   O12 5175   1.837   5.005   3.003
   41DOPE    C1 5176   1.979   5.295   3.107
   41DOPE    HA 5177   1.981   5.346   3.008
   41DOPE    HB 5178   2.070   5.231   3.111
   41DOPE    C2 5179   1.995   5.413   3.210
   41DOPE    HS 5180   2.091   5.465   3.189
   41DOPE   O21 5181   1.994   5.373   3.347
   41DOPE   C21 5182   2.040   5.264   3.399
   41DOPE   O22 5183   2.086   5.166   3.341
   41DOPE   C22 5184   2.034   5.280   3.551
   41DOPE   H2R 5185   1.962   5.361   3.576
   41DOPE   H2S 5186   2.134   5.312   3.584
   41DOPE    C3 5187   1.881   5.518   3.196
   41DOPE    HX 5188   1.891   5.564   3.095
   41DOPE    HY 5189   1.897   5.599   3.270
   41DOPE   O31 5190   1.749   5.460   3.206
   41DOPE   C31 5191   1.702   5.442   3.329
   41DOPE   O32 5192   1.757   5.478   3.432
   41DOPE   C32 5193   1.565   5.375   3.324
   41DOPE   H2X 5194   1.491   5.454   3.349
   41DOPE   H2Y 5195   1.545   5.339   3.221
   41DOPE   C23 5196   1.992   5.152   3.627
   41DOPE   H3R 5197   2.061   5.069   3.602
   41DOPE   H3S 5198   1.889   5.121   3.596
   41DOPE   C24 5199   1.994   5.177   3.778
   41DOPE   H4R 5200   1.921   5.257   3.802
   41DOPE   H4S 5201   2.095   5.214   3.806
   41DOPE   C25 5202   1.962   5.053   3.862
   41DOPE   H5R 5203   2.036   4.973   3.839
   41DOPE   H5S 5204   1.861   5.014   3.835
   41DOPE   C26 5205   1.967   5.085   4.012
   41DOPE   H6R 5206   1.889   5.160   4.036
   41DOPE   H6S 5207   2.065   5.131   4.036
   41DOPE   C27 5208   1.946   4.962   4.102
   41DOPE   H7R 5209   2.023   4.885   4.078
   41DOPE   H7S 5210   1.847   4.918   4.078
   41DOPE   C28 5211   1.951   4.995   4.252
   41DOPE   H8R 5212   1.915   4.906   4.309
   41DOPE   H8S 5213   1.877   5.076   4.271
   41DOPE   C29 5214   2.089   5.033   4.300
   41DOPE   H9R 5215   2.157   4.948   4.314
   41DOPE  C210 5216   2.136   5.157   4.326
   41DOPE  H10R 5217   2.240   5.167   4.358
   41DOPE  C211 5218   2.061   5.287   4.312
   41DOPE  H11R 5219   1.960   5.274   4.268
   41DOPE  H11S 5220   2.117   5.354   4.243
   41DOPE  C212 5221   2.046   5.360   4.447
   41DOPE  H12R 5222   1.994   5.292   4.518
   41DOPE  H12S 5223   1.981   5.449   4.433
   41DOPE  C213 5224   2.180   5.406   4.506
   41DOPE  H13R 5225   2.232   5.471   4.433
   41DOPE  H13S 5226   2.245   5.317   4.523
   41DOPE  C214 5227   2.167   5.482   4.640
   41DOPE  H14R 5228   2.118   5.580   4.622
   41DOPE  H14S 5229   2.269   5.501   4.679
   41DOPE  C215 5230   2.086   5.403   4.743
   41DOPE  H15R 5231   2.118   5.297   4.741
   41DOPE  H15S 5232   1.979   5.407   4.713
   41DOPE  C216 5233   2.102   5.455   4.887
   41DOPE  H16R 5234   2.075   5.563   4.888
   41DOPE  H16S 5235   2.208   5.447   4.916
   41DOPE  C217 5236   2.015   5.379   4.989
   41DOPE  H17R 5237   2.034   5.422   5.090
   41DOPE  H17S 5238   2.048   5.274   4.991
   41DOPE  C218 5239   1.864   5.383   4.961
   41DOPE  H18R 5240   1.826   5.488   4.963
   41DOPE  H18S 5241   1.809   5.324   5.037
   41DOPE  H18T 5242   1.840   5.339   4.862
   41DOPE   C33 5243   1.552   5.258   3.426
   41DOPE   H3X 5244   1.629   5.266   3.505
   41DOPE   H3Y 5245   1.567   5.162   3.373
   41DOPE   C34 5246   1.415   5.257   3.496
   41DOPE   H4X 5247   1.409   5.345   3.564
   41DOPE   H4Y 5248   1.336   5.270   3.419
   41DOPE   C35 5249   1.384   5.128   3.575
   41DOPE   H5X 5250   1.376   5.044   3.502
   41DOPE   H5Y 5251   1.285   5.138   3.623
   41DOPE   C36 5252   1.487   5.089   3.682
   41DOPE   H6X 5253   1.585   5.066   3.636
   41DOPE   H6Y 5254   1.451   4.994   3.728
   41DOPE   C37 5255   1.506   5.194   3.793
   41DOPE   H7X 5256   1.579   5.269   3.757
   41DOPE   H7Y 5257   1.410   5.248   3.810
   41DOPE   C38 5258   1.556   5.133   3.926
   41DOPE   H8X 5259   1.598   5.214   3.988
   41DOPE   H8Y 5260   1.640   5.063   3.903
   41DOPE   C39 5261   1.445   5.061   3.999
   41DOPE   H9X 5262   1.354   5.044   3.941
   41DOPE  C310 5263   1.450   5.019   4.127
   41DOPE  H10X 5264   1.362   4.968   4.169
   41DOPE  C311 5265   1.567   5.034   4.220
   41DOPE  H11X 5266   1.643   4.955   4.199
   41DOPE  H11Y 5267   1.618   5.132   4.204
   41DOPE  C312 5268   1.526   5.023   4.368
   41DOPE  H12X 5269   1.484   4.922   4.387
   41DOPE  H12Y 5270   1.448   5.098   4.392
   41DOPE  C313 5271   1.646   5.045   4.461
   41DOPE  H13X 5272   1.729   4.979   4.427
   41DOPE  H13Y 5273   1.681   5.150   4.453
   41DOPE  C314 5274   1.616   5.012   4.609
   41DOPE  H14X 5275   1.599   4.902   4.617
   41DOPE  H14Y 5276   1.523   5.063   4.639
   41DOPE  C315 5277   1.730   5.053   4.705
   41DOPE  H15X 5278   1.708   5.011   4.805
   41DOPE  H15Y 5279   1.730   5.164   4.714
   41DOPE  C316 5280   1.869   5.009   4.659
   41DOPE  H16X 5281   1.896   5.064   4.566
   41DOPE  H16Y 5282   1.869   4.900   4.635
   41DOPE  C317 5283   1.978   5.037   4.764
   41DOPE  H17X 5284   1.965   5.140   4.801
   41DOPE  H17Y 5285   1.964   4.968   4.850
   41DOPE  C318 5286   2.120   5.022   4.708
   41DOPE  H18X 5287   2.134   4.921   4.664
   41DOPE  H18Y 5288   2.138   5.096   4.627
   41DOPE  H18Z 5289   2.195   5.038   4.788
   42DOPE     N 5290   1.678   4.542   2.880
   42DOPE   HN1 5291   1.626   4.472   2.938
   42DOPE   HN2 5292   1.669   4.516   2.779
   42DOPE   HN3 5293   1.778   4.545   2.908
   42DOPE   C12 5294   1.608   4.673   2.906
   42DOPE  H12A 5295   1.669   4.755   2.862
   42DOPE  H12B 5296   1.605   4.685   3.016
   42DOPE   C11 5297   1.465   4.675   2.847
   42DOPE  H11A 5298   1.474   4.700   2.739
   42DOPE  H11B 5299   1.410   4.760   2.893
   42DOPE     P 5300   1.349   4.494   3.001
   42DOPE   O13 5301   1.477   4.462   3.069
   42DOPE   O14 5302   1.253   4.384   2.978
   42DOPE   O11 5303   1.277   4.619   3.066
   42DOPE   O12 5304   1.393   4.552   2.860
   42DOPE    C1 5305   1.163   4.676   2.999
   42DOPE    HA 5306   1.089   4.598   2.971
   42DOPE    HB 5307   1.195   4.726   2.905
   42DOPE    C2 5308   1.087   4.784   3.083
   42DOPE    HS 5309   1.034   4.853   3.013
   42DOPE   O21 5310   1.175   4.859   3.168
   42DOPE   C21 5311   1.273   4.924   3.110
   42DOPE   O22 5312   1.281   4.954   2.992
   42DOPE   C22 5313   1.380   4.951   3.215
   42DOPE   H2R 5314   1.330   5.001   3.301
   42DOPE   H2S 5315   1.456   5.019   3.172
   42DOPE    C3 5316   0.978   4.720   3.174
   42DOPE    HX 5317   0.908   4.664   3.109
   42DOPE    HY 5318   0.918   4.800   3.223
   42DOPE   O31 5319   1.036   4.628   3.269
   42DOPE   C31 5320   1.068   4.680   3.388
   42DOPE   O32 5321   1.045   4.794   3.424
   42DOPE   C32 5322   1.134   4.571   3.473
   42DOPE   H2X 5323   1.055   4.520   3.532
   42DOPE   H2Y 5324   1.180   4.498   3.404
   42DOPE   C23 5325   1.443   4.817   3.260
   42DOPE   H3R 5326   1.499   4.774   3.175
   42DOPE   H3S 5327   1.363   4.744   3.285
   42DOPE   C24 5328   1.536   4.828   3.381
   42DOPE   H4R 5329   1.476   4.855   3.471
   42DOPE   H4S 5330   1.612   4.907   3.366
   42DOPE   C25 5331   1.604   4.693   3.406
   42DOPE   H5R 5332   1.670   4.670   3.319
   42DOPE   H5S 5333   1.527   4.613   3.408
   42DOPE   C26 5334   1.686   4.685   3.535
   42DOPE   H6R 5335   1.762   4.766   3.540
   42DOPE   H6S 5336   1.741   4.588   3.531
   42DOPE   C27 5337   1.600   4.686   3.663
   42DOPE   H7R 5338   1.504   4.633   3.642
   42DOPE   H7S 5339   1.575   4.791   3.688
   42DOPE   C28 5340   1.668   4.619   3.784
   42DOPE   H8R 5341   1.611   4.647   3.875
   42DOPE   H8S 5342   1.769   4.662   3.795
   42DOPE   C29 5343   1.675   4.468   3.768
   42DOPE   H9R 5344   1.718   4.433   3.673
   42DOPE  C210 5345   1.634   4.374   3.856
   42DOPE  H10R 5346   1.649   4.269   3.830
   42DOPE  C211 5347   1.570   4.399   3.989
   42DOPE  H11R 5348   1.496   4.319   4.011
   42DOPE  H11S 5349   1.512   4.494   3.988
   42DOPE  C212 5350   1.671   4.407   4.104
   42DOPE  H12R 5351   1.745   4.487   4.084
   42DOPE  H12S 5352   1.726   4.310   4.113
   42DOPE  C213 5353   1.601   4.436   4.237
   42DOPE  H13R 5354   1.526   4.357   4.257
   42DOPE  H13S 5355   1.545   4.532   4.227
   42DOPE  C214 5356   1.695   4.448   4.357
   42DOPE  H14R 5357   1.766   4.532   4.340
   42DOPE  H14S 5358   1.755   4.354   4.367
   42DOPE  C215 5359   1.615   4.472   4.485
   42DOPE  H15R 5360   1.548   4.385   4.502
   42DOPE  H15S 5361   1.551   4.561   4.468
   42DOPE  C216 5362   1.702   4.499   4.608
   42DOPE  H16R 5363   1.769   4.584   4.583
   42DOPE  H16S 5364   1.766   4.410   4.629
   42DOPE  C217 5365   1.619   4.535   4.731
   42DOPE  H17R 5366   1.553   4.621   4.706
   42DOPE  H17S 5367   1.687   4.569   4.812
   42DOPE  C218 5368   1.534   4.419   4.784
   42DOPE  H18R 5369   1.599   4.334   4.814
   42DOPE  H18S 5370   1.463   4.384   4.706
   42DOPE  H18T 5371   1.475   4.452   4.872
   42DOPE   C33 5372   1.245   4.626   3.567
   42DOPE   H3X 5373   1.309   4.697   3.510
   42DOPE   H3Y 5374   1.309   4.541   3.598
   42DOPE   C34 5375   1.194   4.696   3.695
   42DOPE   H4X 5376   1.276   4.758   3.736
   42DOPE   H4Y 5377   1.110   4.764   3.669
   42DOPE   C35 5378   1.149   4.598   3.804
   42DOPE   H5X 5379   1.237   4.538   3.838
   42DOPE   H5Y 5380   1.077   4.526   3.759
   42DOPE   C36 5381   1.081   4.666   3.923
   42DOPE   H6X 5382   1.034   4.588   3.987
   42DOPE   H6Y 5383   0.999   4.730   3.885
   42DOPE   C37 5384   1.172   4.753   4.012
   42DOPE   H7X 5385   1.210   4.838   3.952
   42DOPE   H7Y 5386   1.111   4.796   4.094
   42DOPE   C38 5387   1.293   4.679   4.073
   42DOPE   H8X 5388   1.349   4.751   4.137
   42DOPE   H8Y 5389   1.362   4.651   3.991
   42DOPE   C39 5390   1.253   4.556   4.151
   42DOPE   H9X 5391   1.227   4.470   4.088
   42DOPE  C310 5392   1.248   4.542   4.285
   42DOPE  H10X 5393   1.215   4.446   4.326
   42DOPE  C311 5394   1.279   4.646   4.391
   42DOPE  H11X 5395   1.342   4.598   4.470
   42DOPE  H11Y 5396   1.338   4.732   4.351
   42DOPE  C312 5397   1.150   4.699   4.456
   42DOPE  H12X 5398   1.077   4.616   4.467
   42DOPE  H12Y 5399   1.104   4.773   4.388
   42DOPE  C313 5400   1.168   4.764   4.596
   42DOPE  H13X 5401   1.230   4.856   4.585
   42DOPE  H13Y 5402   1.068   4.796   4.629
   42DOPE  C314 5403   1.229   4.675   4.707
   42DOPE  H14X 5404   1.200   4.719   4.805
   42DOPE  H14Y 5405   1.340   4.679   4.701
   42DOPE  C315 5406   1.186   4.528   4.702
   42DOPE  H15X 5407   1.256   4.472   4.636
   42DOPE  H15Y 5408   1.085   4.522   4.655
   42DOPE  C316 5409   1.174   4.457   4.838
   42DOPE  H16X 5410   1.085   4.496   4.891
   42DOPE  H16Y 5411   1.263   4.479   4.901
   42DOPE  C317 5412   1.159   4.305   4.820
   42DOPE  H17X 5413   1.091   4.286   4.735
   42DOPE  H17Y 5414   1.258   4.264   4.791
   42DOPE  C318 5415   1.105   4.231   4.943
   42DOPE  H18X 5416   1.101   4.122   4.924
   42DOPE  H18Y 5417   1.170   4.249   5.031
   42DOPE  H18Z 5418   1.003   4.266   4.966
   43DOPE     N 5419   1.392   3.385   3.213
   43DOPE   HN1 5420   1.327   3.466   3.207
   43DOPE   HN2 5421   1.347   3.307   3.265
   43DOPE   HN3 5422   1.480   3.413   3.261
   43DOPE   C12 5423   1.418   3.342   3.071
   43DOPE  H12A 5424   1.506   3.274   3.071
   43DOPE  H12B 5425   1.444   3.434   3.014
   43DOPE   C11 5426   1.293   3.274   3.011
   43DOPE  H11A 5427   1.314   3.247   2.905
   43DOPE  H11B 5428   1.211   3.349   3.008
   43DOPE     P 5429   1.327   3.024   3.075
   43DOPE   O13 5430   1.464   3.042   3.127
   43DOPE   O14 5431   1.312   2.976   2.936
   43DOPE   O11 5432   1.247   2.926   3.168
   43DOPE   O12 5433   1.249   3.162   3.088
   43DOPE    C1 5434   1.110   2.941   3.203
   43DOPE    HA 5435   1.070   2.840   3.226
   43DOPE    HB 5436   1.049   2.982   3.119
   43DOPE    C2 5437   1.087   3.028   3.330
   43DOPE    HS 5438   1.090   3.135   3.298
   43DOPE   O21 5439   1.186   2.997   3.428
   43DOPE   C21 5440   1.286   3.083   3.441
   43DOPE   O22 5441   1.299   3.188   3.380
   43DOPE   C22 5442   1.387   3.032   3.544
   43DOPE   H2R 5443   1.420   3.120   3.603
   43DOPE   H2S 5444   1.473   2.992   3.485
   43DOPE    C3 5445   0.947   3.003   3.393
   43DOPE    HX 5446   0.944   2.895   3.418
   43DOPE    HY 5447   0.868   3.024   3.318
   43DOPE   O31 5448   0.929   3.087   3.509
   43DOPE   C31 5449   0.843   3.037   3.599
   43DOPE   O32 5450   0.777   2.936   3.584
   43DOPE   C32 5451   0.852   3.119   3.728
   43DOPE   H2X 5452   0.935   3.074   3.787
   43DOPE   H2Y 5453   0.880   3.224   3.704
   43DOPE   C23 5454   1.335   2.921   3.639
   43DOPE   H3R 5455   1.423   2.883   3.696
   43DOPE   H3S 5456   1.294   2.836   3.582
   43DOPE   C24 5457   1.231   2.972   3.740
   43DOPE   H4R 5458   1.134   2.987   3.689
   43DOPE   H4S 5459   1.264   3.071   3.779
   43DOPE   C25 5460   1.214   2.876   3.859
   43DOPE   H5R 5461   1.314   2.865   3.906
   43DOPE   H5S 5462   1.183   2.776   3.822
   43DOPE   C26 5463   1.112   2.925   3.962
   43DOPE   H6R 5464   1.010   2.908   3.923
   43DOPE   H6S 5465   1.125   3.035   3.976
   43DOPE   C27 5466   1.126   2.857   4.100
   43DOPE   H7R 5467   1.121   2.747   4.087
   43DOPE   H7S 5468   1.039   2.888   4.162
   43DOPE   C28 5469   1.256   2.896   4.172
   43DOPE   H8R 5470   1.266   3.007   4.166
   43DOPE   H8S 5471   1.342   2.853   4.117
   43DOPE   C29 5472   1.260   2.848   4.315
   43DOPE   H9R 5473   1.216   2.749   4.331
   43DOPE  C210 5474   1.311   2.915   4.420
   43DOPE  H10R 5475   1.307   2.866   4.519
   43DOPE  C211 5476   1.376   3.051   4.420
   43DOPE  H11R 5477   1.353   3.107   4.326
   43DOPE  H11S 5478   1.486   3.040   4.424
   43DOPE  C212 5479   1.332   3.141   4.538
   43DOPE  H12R 5480   1.222   3.154   4.538
   43DOPE  H12S 5481   1.378   3.241   4.524
   43DOPE  C213 5482   1.375   3.087   4.674
   43DOPE  H13R 5483   1.485   3.073   4.673
   43DOPE  H13S 5484   1.327   2.988   4.691
   43DOPE  C214 5485   1.338   3.178   4.792
   43DOPE  H14R 5486   1.233   3.211   4.782
   43DOPE  H14S 5487   1.403   3.268   4.789
   43DOPE  C215 5488   1.355   3.107   4.928
   43DOPE  H15R 5489   1.276   3.030   4.938
   43DOPE  H15S 5490   1.342   3.181   5.010
   43DOPE  C216 5491   1.492   3.038   4.942
   43DOPE  H16R 5492   1.570   3.115   4.921
   43DOPE  H16S 5493   1.503   2.958   4.866
   43DOPE  C217 5494   1.518   2.978   5.080
   43DOPE  H17R 5495   1.484   3.049   5.158
   43DOPE  H17S 5496   1.627   2.964   5.091
   43DOPE  C218 5497   1.452   2.841   5.100
   43DOPE  H18R 5498   1.343   2.845   5.075
   43DOPE  H18S 5499   1.462   2.808   5.205
   43DOPE  H18T 5500   1.499   2.766   5.034
   43DOPE   C33 5501   0.722   3.117   3.813
   43DOPE   H3X 5502   0.657   3.031   3.784
   43DOPE   H3Y 5503   0.664   3.210   3.793
   43DOPE   C34 5504   0.750   3.103   3.964
   43DOPE   H4X 5505   0.653   3.102   4.019
   43DOPE   H4Y 5506   0.799   3.005   3.981
   43DOPE   C35 5507   0.839   3.214   4.021
   43DOPE   H5X 5508   0.788   3.312   4.013
   43DOPE   H5Y 5509   0.933   3.220   3.963
   43DOPE   C36 5510   0.877   3.186   4.168
   43DOPE   H6X 5511   0.914   3.082   4.175
   43DOPE   H6Y 5512   0.786   3.194   4.232
   43DOPE   C37 5513   0.986   3.280   4.219
   43DOPE   H7X 5514   1.069   3.280   4.144
   43DOPE   H7Y 5515   0.948   3.384   4.225
   43DOPE   C38 5516   1.045   3.236   4.354
   43DOPE   H8X 5517   1.137   3.296   4.372
   43DOPE   H8Y 5518   1.079   3.131   4.343
   43DOPE   C39 5519   0.950   3.255   4.469
   43DOPE   H9X 5520   0.911   3.358   4.479
   43DOPE  C310 5521   0.907   3.162   4.556
   43DOPE  H10X 5522   0.835   3.191   4.634
   43DOPE  C311 5523   0.945   3.016   4.559
   43DOPE  H11X 5524   1.031   2.993   4.492
   43DOPE  H11Y 5525   0.976   2.987   4.662
   43DOPE  C312 5526   0.826   2.927   4.516
   43DOPE  H12X 5527   0.795   2.957   4.414
   43DOPE  H12Y 5528   0.740   2.945   4.584
   43DOPE  C313 5529   0.858   2.777   4.515
   43DOPE  H13X 5530   0.768   2.724   4.476
   43DOPE  H13Y 5531   0.940   2.756   4.443
   43DOPE  C314 5532   0.892   2.719   4.653
   43DOPE  H14X 5533   0.836   2.624   4.667
   43DOPE  H14Y 5534   0.858   2.789   4.732
   43DOPE  C315 5535   1.042   2.690   4.671
   43DOPE  H15X 5536   1.099   2.782   4.647
   43DOPE  H15Y 5537   1.073   2.612   4.598
   43DOPE  C316 5538   1.077   2.644   4.813
   43DOPE  H16X 5539   1.013   2.556   4.839
   43DOPE  H16Y 5540   1.051   2.726   4.884
   43DOPE  C317 5541   1.224   2.605   4.833
   43DOPE  H17X 5542   1.239   2.580   4.941
   43DOPE  H17Y 5543   1.245   2.513   4.775
   43DOPE  C318 5544   1.325   2.713   4.793
   43DOPE  H18X 5545   1.428   2.684   4.823
   43DOPE  H18Y 5546   1.324   2.727   4.682
   43DOPE  H18Z 5547   1.300   2.809   4.841
   44DOPE     N 5548   3.176   1.314   2.976
   44DOPE   HN1 5549   3.217   1.324   2.881
   44DOPE   HN2 5550   3.075   1.341   2.973
   44DOPE   HN3 5551   3.224   1.382   3.039
   44DOPE   C12 5552   3.185   1.173   3.029
   44DOPE  H12A 5553   3.137   1.173   3.130
   44DOPE  H12B 5554   3.292   1.146   3.040
   44DOPE   C11 5555   3.114   1.074   2.936
   44DOPE  H11A 5556   3.170   1.070   2.839
   44DOPE  H11B 5557   3.011   1.109   2.911
   44DOPE     P 5558   3.005   0.898   3.099
   44DOPE   O13 5559   2.997   0.751   3.103
   44DOPE   O14 5560   2.879   0.970   3.067
   44DOPE   O11 5561   3.068   0.955   3.232
   44DOPE   O12 5562   3.113   0.943   2.991
   44DOPE    C1 5563   3.161   0.875   3.308
   44DOPE    HA 5564   3.228   0.942   3.364
   44DOPE    HB 5565   3.225   0.812   3.242
   44DOPE    C2 5566   3.091   0.783   3.412
   44DOPE    HS 5567   3.025   0.714   3.356
   44DOPE   O21 5568   3.013   0.867   3.500
   44DOPE   C21 5569   2.930   0.803   3.579
   44DOPE   O22 5570   2.895   0.687   3.568
   44DOPE   C22 5571   2.884   0.897   3.691
   44DOPE   H2R 5572   2.828   0.836   3.765
   44DOPE   H2S 5573   2.814   0.971   3.645
   44DOPE    C3 5574   3.193   0.697   3.493
   44DOPE    HX 5575   3.259   0.642   3.422
   44DOPE    HY 5576   3.137   0.621   3.551
   44DOPE   O31 5577   3.273   0.782   3.579
   44DOPE   C31 5578   3.327   0.723   3.685
   44DOPE   O32 5579   3.327   0.604   3.708
   44DOPE   C32 5580   3.385   0.831   3.777
   44DOPE   H2X 5581   3.457   0.892   3.718
   44DOPE   H2Y 5582   3.301   0.896   3.808
   44DOPE   C23 5583   3.002   0.971   3.759
   44DOPE   H3R 5584   3.063   1.021   3.681
   44DOPE   H3S 5585   3.068   0.898   3.811
   44DOPE   C24 5586   2.955   1.078   3.858
   44DOPE   H4R 5587   2.927   1.031   3.955
   44DOPE   H4S 5588   2.863   1.126   3.817
   44DOPE   C25 5589   3.058   1.191   3.879
   44DOPE   H5R 5590   3.010   1.277   3.929
   44DOPE   H5S 5591   3.090   1.225   3.778
   44DOPE   C26 5592   3.184   1.150   3.956
   44DOPE   H6R 5593   3.267   1.216   3.920
   44DOPE   H6S 5594   3.214   1.046   3.934
   44DOPE   C27 5595   3.174   1.173   4.108
   44DOPE   H7R 5596   3.118   1.267   4.127
   44DOPE   H7S 5597   3.278   1.191   4.145
   44DOPE   C28 5598   3.119   1.053   4.189
   44DOPE   H8R 5599   3.179   1.047   4.282
   44DOPE   H8S 5600   3.141   0.960   4.133
   44DOPE   C29 5601   2.972   1.058   4.225
   44DOPE   H9R 5602   2.909   0.983   4.176
   44DOPE  C210 5603   2.915   1.145   4.310
   44DOPE  H10R 5604   2.807   1.138   4.329
   44DOPE  C211 5605   2.986   1.255   4.385
   44DOPE  H11R 5606   2.912   1.327   4.426
   44DOPE  H11S 5607   3.050   1.314   4.316
   44DOPE  C212 5608   3.076   1.207   4.501
   44DOPE  H12R 5609   3.164   1.275   4.508
   44DOPE  H12S 5610   3.115   1.105   4.481
   44DOPE  C213 5611   3.003   1.209   4.636
   44DOPE  H13R 5612   2.912   1.146   4.628
   44DOPE  H13S 5613   2.970   1.313   4.656
   44DOPE  C214 5614   3.092   1.161   4.752
   44DOPE  H14R 5615   3.103   1.243   4.826
   44DOPE  H14S 5616   3.193   1.138   4.713
   44DOPE  C215 5617   3.038   1.036   4.824
   44DOPE  H15R 5618   2.947   1.065   4.881
   44DOPE  H15S 5619   3.114   1.005   4.899
   44DOPE  C216 5620   3.006   0.916   4.733
   44DOPE  H16R 5621   3.070   0.830   4.763
   44DOPE  H16S 5622   3.033   0.941   4.628
   44DOPE  C217 5623   2.860   0.870   4.737
   44DOPE  H17R 5624   2.847   0.790   4.661
   44DOPE  H17S 5625   2.794   0.954   4.708
   44DOPE  C218 5626   2.816   0.815   4.874
   44DOPE  H18R 5627   2.889   0.740   4.911
   44DOPE  H18S 5628   2.717   0.766   4.866
   44DOPE  H18T 5629   2.809   0.897   4.948
   44DOPE   C33 5630   3.453   0.771   3.902
   44DOPE   H3X 5631   3.544   0.715   3.871
   44DOPE   H3Y 5632   3.384   0.699   3.951
   44DOPE   C34 5633   3.492   0.876   4.007
   44DOPE   H4X 5634   3.400   0.925   4.046
   44DOPE   H4Y 5635   3.541   0.824   4.092
   44DOPE   C35 5636   3.588   0.984   3.954
   44DOPE   H5X 5637   3.535   1.050   3.883
   44DOPE   H5Y 5638   3.671   0.935   3.898
   44DOPE   C36 5639   3.652   1.069   4.066
   44DOPE   H6X 5640   3.726   1.138   4.020
   44DOPE   H6Y 5641   3.707   1.002   4.136
   44DOPE   C37 5642   3.549   1.151   4.143
   44DOPE   H7X 5643   3.495   1.215   4.070
   44DOPE   H7Y 5644   3.475   1.082   4.190
   44DOPE   C38 5645   3.612   1.238   4.253
   44DOPE   H8X 5646   3.692   1.301   4.208
   44DOPE   H8Y 5647   3.662   1.171   4.326
   44DOPE   C39 5648   3.506   1.325   4.317
   44DOPE   H9X 5649   3.461   1.399   4.250
   44DOPE  C310 5650   3.463   1.318   4.444
   44DOPE  H10X 5651   3.383   1.386   4.476
   44DOPE  C311 5652   3.512   1.222   4.550
   44DOPE  H11X 5653   3.621   1.204   4.541
   44DOPE  H11Y 5654   3.496   1.267   4.650
   44DOPE  C312 5655   3.439   1.086   4.546
   44DOPE  H12X 5656   3.466   1.030   4.454
   44DOPE  H12Y 5657   3.329   1.104   4.542
   44DOPE  C313 5658   3.469   1.000   4.670
   44DOPE  H13X 5659   3.569   0.953   4.661
   44DOPE  H13Y 5660   3.472   1.069   4.758
   44DOPE  C314 5661   3.363   0.893   4.700
   44DOPE  H14X 5662   3.264   0.929   4.666
   44DOPE  H14Y 5663   3.359   0.880   4.810
   44DOPE  C315 5664   3.392   0.756   4.636
   44DOPE  H15X 5665   3.493   0.722   4.668
   44DOPE  H15Y 5666   3.395   0.768   4.525
   44DOPE  C316 5667   3.288   0.649   4.673
   44DOPE  H16X 5668   3.317   0.554   4.623
   44DOPE  H16Y 5669   3.189   0.679   4.633
   44DOPE  C317 5670   3.276   0.621   4.823
   44DOPE  H17X 5671   3.378   0.605   4.863
   44DOPE  H17Y 5672   3.234   0.711   4.875
   44DOPE  C318 5673   3.190   0.499   4.857
   44DOPE  H18X 5674   3.086   0.514   4.822
   44DOPE  H18Y 5675   3.231   0.409   4.807
   44DOPE  H18Z 5676   3.190   0.482   4.966
   45DOPE     N 5677   4.316   0.988   2.794
   45DOPE   HN1 5678   4.357   1.064   2.736
   45DOPE   HN2 5679   4.301   1.020   2.892
   45DOPE   HN3 5680   4.381   0.907   2.796
   45DOPE   C12 5681   4.181   0.946   2.740
   45DOPE  H12A 5682   4.198   0.908   2.637
   45DOPE  H12B 5683   4.116   1.036   2.735
   45DOPE   C11 5684   4.117   0.837   2.829
   45DOPE  H11A 5685   4.194   0.775   2.880
   45DOPE  H11B 5686   4.062   0.768   2.761
   45DOPE     P 5687   4.065   0.985   3.042
   45DOPE   O13 5688   3.977   1.104   3.031
   45DOPE   O14 5689   4.211   1.006   3.035
   45DOPE   O11 5690   4.030   0.900   3.169
   45DOPE   O12 5691   4.022   0.888   2.924
   45DOPE    C1 5692   3.896   0.895   3.220
   45DOPE    HA 5693   3.885   0.801   3.279
   45DOPE    HB 5694   3.820   0.892   3.139
   45DOPE    C2 5695   3.865   1.013   3.317
   45DOPE    HS 5696   3.869   1.106   3.256
   45DOPE   O21 5697   3.965   1.016   3.420
   45DOPE   C21 5698   3.983   1.133   3.478
   45DOPE   O22 5699   3.915   1.233   3.461
   45DOPE   C22 5700   4.111   1.127   3.563
   45DOPE   H2R 5701   4.195   1.119   3.491
   45DOPE   H2S 5702   4.109   1.034   3.624
   45DOPE    C3 5703   3.721   1.000   3.375
   45DOPE    HX 5704   3.650   1.005   3.290
   45DOPE    HY 5705   3.699   1.087   3.440
   45DOPE   O31 5706   3.705   0.872   3.440
   45DOPE   C31 5707   3.708   0.873   3.572
   45DOPE   O32 5708   3.694   0.972   3.643
   45DOPE   C32 5709   3.737   0.732   3.623
   45DOPE   H2X 5710   3.640   0.684   3.649
   45DOPE   H2Y 5711   3.783   0.674   3.540
   45DOPE   C23 5712   4.133   1.250   3.655
   45DOPE   H3R 5713   4.061   1.247   3.740
   45DOPE   H3S 5714   4.110   1.342   3.597
   45DOPE   C24 5715   4.278   1.263   3.705
   45DOPE   H4R 5716   4.293   1.365   3.746
   45DOPE   H4S 5717   4.345   1.253   3.617
   45DOPE   C25 5718   4.319   1.159   3.811
   45DOPE   H5R 5719   4.429   1.165   3.825
   45DOPE   H5S 5720   4.296   1.057   3.772
   45DOPE   C26 5721   4.252   1.176   3.948
   45DOPE   H6R 5722   4.277   1.089   4.011
   45DOPE   H6S 5723   4.141   1.176   3.934
   45DOPE   C27 5724   4.296   1.303   4.024
   45DOPE   H7R 5725   4.279   1.393   3.962
   45DOPE   H7S 5726   4.405   1.296   4.042
   45DOPE   C28 5727   4.225   1.320   4.160
   45DOPE   H8R 5728   4.277   1.401   4.216
   45DOPE   H8S 5729   4.237   1.226   4.218
   45DOPE   C29 5730   4.078   1.353   4.145
   45DOPE   H9R 5731   4.035   1.333   4.045
   45DOPE  C210 5732   3.998   1.404   4.240
   45DOPE  H10R 5733   3.893   1.422   4.216
   45DOPE  C211 5734   4.039   1.439   4.381
   45DOPE  H11R 5735   3.964   1.508   4.425
   45DOPE  H11S 5736   4.136   1.494   4.381
   45DOPE  C212 5737   4.054   1.318   4.475
   45DOPE  H12R 5738   4.066   1.355   4.579
   45DOPE  H12S 5739   4.146   1.262   4.449
   45DOPE  C213 5740   3.935   1.220   4.470
   45DOPE  H13R 5741   3.940   1.163   4.375
   45DOPE  H13S 5742   3.840   1.276   4.471
   45DOPE  C214 5743   3.936   1.121   4.588
   45DOPE  H14R 5744   3.899   1.174   4.679
   45DOPE  H14S 5745   4.040   1.089   4.608
   45DOPE  C215 5746   3.851   0.996   4.561
   45DOPE  H15R 5747   3.889   0.946   4.469
   45DOPE  H15S 5748   3.746   1.028   4.539
   45DOPE  C216 5749   3.850   0.895   4.676
   45DOPE  H16R 5750   3.950   0.848   4.685
   45DOPE  H16S 5751   3.778   0.814   4.650
   45DOPE  C217 5752   3.810   0.955   4.812
   45DOPE  H17R 5753   3.726   1.026   4.796
   45DOPE  H17S 5754   3.896   1.014   4.851
   45DOPE  C218 5755   3.768   0.850   4.914
   45DOPE  H18R 5756   3.853   0.783   4.939
   45DOPE  H18S 5757   3.685   0.788   4.874
   45DOPE  H18T 5758   3.733   0.898   5.008
   45DOPE   C33 5759   3.833   0.731   3.745
   45DOPE   H3X 5760   3.862   0.627   3.767
   45DOPE   H3Y 5761   3.780   0.771   3.834
   45DOPE   C34 5762   3.960   0.814   3.720
   45DOPE   H4X 5763   4.003   0.782   3.623
   45DOPE   H4Y 5764   3.934   0.922   3.711
   45DOPE   C35 5765   4.068   0.800   3.828
   45DOPE   H5X 5766   4.162   0.840   3.783
   45DOPE   H5Y 5767   4.086   0.693   3.851
   45DOPE   C36 5768   4.043   0.880   3.957
   45DOPE   H6X 5769   3.991   0.975   3.932
   45DOPE   H6Y 5770   4.142   0.908   3.999
   45DOPE   C37 5771   3.967   0.806   4.069
   45DOPE   H7X 5772   3.968   0.871   4.159
   45DOPE   H7Y 5773   3.861   0.794   4.040
   45DOPE   C38 5774   4.023   0.666   4.108
   45DOPE   H8X 5775   3.977   0.594   4.037
   45DOPE   H8Y 5776   3.981   0.640   4.208
   45DOPE   C39 5777   4.172   0.644   4.107
   45DOPE   H9X 5778   4.205   0.569   4.034
   45DOPE  C310 5779   4.267   0.705   4.181
   45DOPE  H10X 5780   4.372   0.674   4.167
   45DOPE  C311 5781   4.247   0.812   4.285
   45DOPE  H11X 5782   4.331   0.884   4.282
   45DOPE  H11Y 5783   4.155   0.871   4.266
   45DOPE  C312 5784   4.236   0.752   4.426
   45DOPE  H12X 5785   4.326   0.692   4.451
   45DOPE  H12Y 5786   4.149   0.684   4.428
   45DOPE  C313 5787   4.215   0.860   4.534
   45DOPE  H13X 5788   4.139   0.932   4.497
   45DOPE  H13Y 5789   4.175   0.810   4.624
   45DOPE  C314 5790   4.344   0.934   4.573
   45DOPE  H14X 5791   4.389   0.980   4.483
   45DOPE  H14Y 5792   4.416   0.861   4.615
   45DOPE  C315 5793   4.321   1.044   4.678
   45DOPE  H15X 5794   4.255   1.122   4.635
   45DOPE  H15Y 5795   4.419   1.093   4.701
   45DOPE  C316 5796   4.260   0.992   4.809
   45DOPE  H16X 5797   4.328   0.915   4.853
   45DOPE  H16Y 5798   4.163   0.943   4.788
   45DOPE  C317 5799   4.234   1.102   4.912
   45DOPE  H17X 5800   4.329   1.156   4.932
   45DOPE  H17Y 5801   4.163   1.175   4.868
   45DOPE  C318 5802   4.177   1.048   5.043
   45DOPE  H18X 5803   4.149   1.132   5.110
   45DOPE  H18Y 5804   4.087   0.987   5.024
   45DOPE  H18Z 5805   4.252   0.985   5.095
   46DOPE     N 5806   4.282   6.793   3.103
   46DOPE   HN1 5807   4.188   6.815   3.066
   46DOPE   HN2 5808   4.280   6.777   3.206
   46DOPE   HN3 5809   4.347   6.871   3.084
   46DOPE   C12 5810   4.335   6.671   3.030
   46DOPE  H12A 5811   4.339   6.698   2.922
   46DOPE  H12B 5812   4.262   6.588   3.044
   46DOPE   C11 5813   4.476   6.632   3.078
   46DOPE  H11A 5814   4.523   6.564   3.004
   46DOPE  H11B 5815   4.466   6.573   3.172
   46DOPE     P 5816   4.590   6.858   3.003
   46DOPE   O13 5817   4.493   6.965   3.038
   46DOPE   O14 5818   4.579   6.802   2.867
   46DOPE   O11 5819   4.739   6.899   3.036
   46DOPE   O12 5820   4.559   6.743   3.106
   46DOPE    C1 5821   4.844   6.802   3.025
   46DOPE    HA 5822   4.941   6.855   3.013
   46DOPE    HB 5823   4.833   6.741   2.933
   46DOPE    C2 5824   4.856   6.706   3.148
   46DOPE    HS 5825   4.763   6.712   3.209
   46DOPE   O21 5826   4.969   6.739   3.231
   46DOPE   C21 5827   4.956   6.848   3.303
   46DOPE   O22 5828   4.863   6.928   3.300
   46DOPE   C22 5829   5.076   6.863   3.397
   46DOPE   H2R 5830   5.104   6.970   3.394
   46DOPE   H2S 5831   5.161   6.803   3.357
   46DOPE    C3 5832   4.869   6.558   3.102
   46DOPE    HX 5833   4.953   6.555   3.028
   46DOPE    HY 5834   4.777   6.527   3.048
   46DOPE   O31 5835   4.903   6.468   3.209
   46DOPE   C31 5836   4.801   6.429   3.286
   46DOPE   O32 5837   4.683   6.456   3.266
   46DOPE   C32 5838   4.858   6.352   3.405
   46DOPE   H2X 5839   4.888   6.252   3.367
   46DOPE   H2Y 5840   4.948   6.406   3.441
   46DOPE   C23 5841   5.044   6.821   3.542
   46DOPE   H3R 5842   5.131   6.848   3.606
   46DOPE   H3S 5843   5.031   6.711   3.549
   46DOPE   C24 5844   4.919   6.890   3.600
   46DOPE   H4R 5845   4.829   6.840   3.557
   46DOPE   H4S 5846   4.916   6.996   3.567
   46DOPE   C25 5847   4.909   6.887   3.753
   46DOPE   H5R 5848   4.927   6.784   3.791
   46DOPE   H5S 5849   4.805   6.915   3.780
   46DOPE   C26 5850   5.003   6.987   3.822
   46DOPE   H6R 5851   5.005   7.080   3.762
   46DOPE   H6S 5852   5.106   6.946   3.825
   46DOPE   C27 5853   4.957   7.025   3.964
   46DOPE   H7R 5854   4.852   7.059   3.958
   46DOPE   H7S 5855   5.018   7.111   4.000
   46DOPE   C28 5856   4.970   6.911   4.067
   46DOPE   H8R 5857   5.077   6.885   4.079
   46DOPE   H8S 5858   4.920   6.820   4.026
   46DOPE   C29 5859   4.905   6.948   4.198
   46DOPE   H9R 5860   4.796   6.957   4.194
   46DOPE  C210 5861   4.967   6.971   4.315
   46DOPE  H10R 5862   4.905   6.998   4.402
   46DOPE  C211 5863   5.115   6.965   4.341
   46DOPE  H11R 5864   5.169   7.007   4.254
   46DOPE  H11S 5865   5.149   6.860   4.352
   46DOPE  C212 5866   5.161   7.044   4.466
   46DOPE  H12R 5867   5.107   7.141   4.473
   46DOPE  H12S 5868   5.268   7.069   4.451
   46DOPE  C213 5869   5.151   6.968   4.600
   46DOPE  H13R 5870   5.200   7.030   4.679
   46DOPE  H13S 5871   5.209   6.874   4.592
   46DOPE  C214 5872   5.009   6.934   4.645
   46DOPE  H14R 5873   4.966   6.861   4.573
   46DOPE  H14S 5874   4.945   7.025   4.644
   46DOPE  C215 5875   5.004   6.869   4.785
   46DOPE  H15R 5876   5.083   6.792   4.792
   46DOPE  H15S 5877   4.906   6.818   4.797
   46DOPE  C216 5878   5.018   6.970   4.900
   46DOPE  H16R 5879   4.938   7.046   4.891
   46DOPE  H16S 5880   5.116   7.022   4.893
   46DOPE  C217 5881   5.008   6.903   5.039
   46DOPE  H17R 5882   4.916   6.841   5.041
   46DOPE  H17S 5883   4.995   6.983   5.115
   46DOPE  C218 5884   5.129   6.818   5.076
   46DOPE  H18R 5885   5.115   6.771   5.176
   46DOPE  H18S 5886   5.221   6.881   5.080
   46DOPE  H18T 5887   5.145   6.738   5.001
   46DOPE   C33 5888   4.759   6.333   3.522
   46DOPE   H3X 5889   4.800   6.252   3.587
   46DOPE   H3Y 5890   4.660   6.297   3.485
   46DOPE   C34 5891   4.742   6.458   3.608
   46DOPE   H4X 5892   4.842   6.493   3.643
   46DOPE   H4Y 5893   4.697   6.539   3.547
   46DOPE   C35 5894   4.654   6.432   3.731
   46DOPE   H5X 5895   4.694   6.345   3.787
   46DOPE   H5Y 5896   4.552   6.405   3.697
   46DOPE   C36 5897   4.644   6.551   3.828
   46DOPE   H6X 5898   4.744   6.572   3.871
   46DOPE   H6Y 5899   4.578   6.522   3.913
   46DOPE   C37 5900   4.589   6.679   3.763
   46DOPE   H7X 5901   4.664   6.715   3.690
   46DOPE   H7Y 5902   4.497   6.655   3.706
   46DOPE   C38 5903   4.561   6.792   3.864
   46DOPE   H8X 5904   4.543   6.886   3.807
   46DOPE   H8Y 5905   4.653   6.809   3.924
   46DOPE   C39 5906   4.441   6.762   3.950
   46DOPE   H9X 5907   4.348   6.749   3.892
   46DOPE  C310 5908   4.436   6.747   4.084
   46DOPE  H10X 5909   4.339   6.724   4.130
   46DOPE  C311 5910   4.551   6.756   4.180
   46DOPE  H11X 5911   4.648   6.771   4.127
   46DOPE  H11Y 5912   4.539   6.843   4.248
   46DOPE  C312 5913   4.562   6.629   4.267
   46DOPE  H12X 5914   4.562   6.538   4.203
   46DOPE  H12Y 5915   4.474   6.623   4.333
   46DOPE  C313 5916   4.690   6.627   4.352
   46DOPE  H13X 5917   4.704   6.727   4.400
   46DOPE  H13Y 5918   4.677   6.552   4.433
   46DOPE  C314 5919   4.815   6.591   4.271
   46DOPE  H14X 5920   4.825   6.660   4.185
   46DOPE  H14Y 5921   4.801   6.488   4.229
   46DOPE  C315 5922   4.945   6.594   4.352
   46DOPE  H15X 5923   4.966   6.698   4.387
   46DOPE  H15Y 5924   5.028   6.564   4.285
   46DOPE  C316 5925   4.942   6.500   4.473
   46DOPE  H16X 5926   4.889   6.407   4.443
   46DOPE  H16Y 5927   4.886   6.546   4.557
   46DOPE  C317 5928   5.083   6.459   4.520
   46DOPE  H17X 5929   5.073   6.375   4.592
   46DOPE  H17Y 5930   5.138   6.421   4.432
   46DOPE  C318 5931   5.162   6.572   4.585
   46DOPE  H18X 5932   5.110   6.609   4.676
   46DOPE  H18Y 5933   5.263   6.537   4.615
   46DOPE  H18Z 5934   5.175   6.657   4.514
   47DOPE     N 5935   1.459   6.322   3.195
   47DOPE   HN1 5936   1.533   6.341   3.265
   47DOPE   HN2 5937   1.388   6.398   3.200
   47DOPE   HN3 5938   1.407   6.236   3.222
   47DOPE   C12 5939   1.515   6.300   3.057
   47DOPE  H12A 5940   1.615   6.349   3.054
   47DOPE  H12B 5941   1.447   6.348   2.984
   47DOPE   C11 5942   1.530   6.150   3.023
   47DOPE  H11A 5943   1.575   6.094   3.108
   47DOPE  H11B 5944   1.603   6.141   2.940
   47DOPE     P 5945   1.301   6.032   3.080
   47DOPE   O13 5946   1.170   6.055   3.016
   47DOPE   O14 5947   1.327   6.094   3.211
   47DOPE   O11 5948   1.338   5.878   3.084
   47DOPE   O12 5949   1.407   6.093   2.979
   47DOPE    C1 5950   1.326   5.798   2.966
   47DOPE    HA 5951   1.381   5.845   2.881
   47DOPE    HB 5952   1.220   5.789   2.936
   47DOPE    C2 5953   1.385   5.654   2.984
   47DOPE    HS 5954   1.367   5.598   2.889
   47DOPE   O21 5955   1.325   5.586   3.094
   47DOPE   C21 5956   1.199   5.556   3.089
   47DOPE   O22 5957   1.127   5.554   2.989
   47DOPE   C22 5958   1.158   5.513   3.229
   47DOPE   H2R 5959   1.240   5.449   3.270
   47DOPE   H2S 5960   1.066   5.452   3.221
   47DOPE    C3 5961   1.539   5.652   3.010
   47DOPE    HX 5962   1.589   5.714   2.932
   47DOPE    HY 5963   1.574   5.548   2.998
   47DOPE   O31 5964   1.567   5.694   3.145
   47DOPE   C31 5965   1.631   5.806   3.162
   47DOPE   O32 5966   1.696   5.866   3.076
   47DOPE   C32 5967   1.611   5.859   3.304
   47DOPE   H2X 5968   1.710   5.893   3.341
   47DOPE   H2Y 5969   1.543   5.947   3.294
   47DOPE   C23 5970   1.134   5.632   3.325
   47DOPE   H3R 5971   1.034   5.676   3.304
   47DOPE   H3S 5972   1.210   5.712   3.308
   47DOPE   C24 5973   1.143   5.589   3.472
   47DOPE   H4R 5974   1.248   5.560   3.496
   47DOPE   H4S 5975   1.081   5.499   3.488
   47DOPE   C25 5976   1.097   5.700   3.568
   47DOPE   H5R 5977   0.996   5.734   3.538
   47DOPE   H5S 5978   1.166   5.786   3.558
   47DOPE   C26 5979   1.091   5.656   3.716
   47DOPE   H6R 5980   1.190   5.616   3.747
   47DOPE   H6S 5981   1.017   5.574   3.726
   47DOPE   C27 5982   1.049   5.771   3.808
   47DOPE   H7R 5983   0.956   5.814   3.764
   47DOPE   H7S 5984   1.126   5.851   3.806
   47DOPE   C28 5985   1.018   5.731   3.954
   47DOPE   H8R 5986   0.948   5.645   3.952
   47DOPE   H8S 5987   0.961   5.816   3.998
   47DOPE   C29 5988   1.142   5.698   4.034
   47DOPE   H9R 5989   1.211   5.629   3.984
   47DOPE  C210 5990   1.175   5.745   4.156
   47DOPE  H10R 5991   1.270   5.713   4.201
   47DOPE  C211 5992   1.095   5.842   4.241
   47DOPE  H11R 5993   1.060   5.791   4.333
   47DOPE  H11S 5994   1.003   5.876   4.189
   47DOPE  C212 5995   1.173   5.968   4.283
   47DOPE  H12R 5996   1.098   6.043   4.316
   47DOPE  H12S 5997   1.227   6.013   4.196
   47DOPE  C213 5998   1.271   5.946   4.399
   47DOPE  H13R 5999   1.364   5.898   4.362
   47DOPE  H13S 6000   1.224   5.876   4.471
   47DOPE  C214 6001   1.304   6.076   4.474
   47DOPE  H14R 6002   1.208   6.128   4.496
   47DOPE  H14S 6003   1.363   6.144   4.408
   47DOPE  C215 6004   1.377   6.052   4.606
   47DOPE  H15R 6005   1.484   6.030   4.584
   47DOPE  H15S 6006   1.335   5.961   4.655
   47DOPE  C216 6007   1.366   6.167   4.706
   47DOPE  H16R 6008   1.385   6.264   4.656
   47DOPE  H16S 6009   1.444   6.154   4.784
   47DOPE  C217 6010   1.229   6.171   4.776
   47DOPE  H17R 6011   1.203   6.068   4.808
   47DOPE  H17S 6012   1.152   6.203   4.703
   47DOPE  C218 6013   1.225   6.262   4.899
   47DOPE  H18R 6014   1.256   6.365   4.871
   47DOPE  H18S 6015   1.295   6.225   4.977
   47DOPE  H18T 6016   1.123   6.267   4.941
   47DOPE   C33 6017   1.546   5.764   3.408
   47DOPE   H3X 6018   1.614   5.678   3.428
   47DOPE   H3Y 6019   1.450   5.724   3.369
   47DOPE   C34 6020   1.520   5.836   3.541
   47DOPE   H4X 6021   1.615   5.882   3.576
   47DOPE   H4Y 6022   1.447   5.918   3.524
   47DOPE   C35 6023   1.467   5.744   3.652
   47DOPE   H5X 6024   1.544   5.667   3.676
   47DOPE   H5Y 6025   1.378   5.690   3.613
   47DOPE   C36 6026   1.425   5.819   3.780
   47DOPE   H6X 6027   1.368   5.751   3.847
   47DOPE   H6Y 6028   1.355   5.900   3.749
   47DOPE   C37 6029   1.539   5.883   3.861
   47DOPE   H7X 6030   1.621   5.916   3.794
   47DOPE   H7Y 6031   1.499   5.974   3.910
   47DOPE   C38 6032   1.595   5.794   3.975
   47DOPE   H8X 6033   1.511   5.770   4.044
   47DOPE   H8Y 6034   1.667   5.855   4.033
   47DOPE   C39 6035   1.664   5.671   3.924
   47DOPE   H9X 6036   1.745   5.691   3.852
   47DOPE  C310 6037   1.635   5.543   3.954
   47DOPE  H10X 6038   1.695   5.463   3.908
   47DOPE  C311 6039   1.526   5.496   4.046
   47DOPE  H11X 6040   1.442   5.569   4.050
   47DOPE  H11Y 6041   1.482   5.401   4.009
   47DOPE  C312 6042   1.578   5.475   4.189
   47DOPE  H12X 6043   1.610   5.573   4.231
   47DOPE  H12Y 6044   1.666   5.408   4.189
   47DOPE  C313 6045   1.470   5.413   4.279
   47DOPE  H13X 6046   1.374   5.468   4.262
   47DOPE  H13Y 6047   1.454   5.308   4.249
   47DOPE  C314 6048   1.502   5.419   4.429
   47DOPE  H14X 6049   1.604   5.381   4.449
   47DOPE  H14Y 6050   1.430   5.353   4.482
   47DOPE  C315 6051   1.486   5.562   4.486
   47DOPE  H15X 6052   1.391   5.604   4.447
   47DOPE  H15Y 6053   1.569   5.626   4.448
   47DOPE  C316 6054   1.481   5.566   4.639
   47DOPE  H16X 6055   1.579   5.533   4.681
   47DOPE  H16Y 6056   1.404   5.495   4.674
   47DOPE  C317 6057   1.446   5.706   4.690
   47DOPE  H17X 6058   1.529   5.776   4.664
   47DOPE  H17Y 6059   1.356   5.740   4.635
   47DOPE  C318 6060   1.419   5.713   4.840
   47DOPE  H18X 6061   1.391   5.816   4.870
   47DOPE  H18Y 6062   1.335   5.645   4.865
   47DOPE  H18Z 6063   1.509   5.682   4.897
   48DOPE     N 6064   6.518   1.587   2.795
   48DOPE   HN1 6065   6.483   1.489   2.801
   48DOPE   HN2 6066   6.440   1.652   2.815
   48DOPE   HN3 6067   6.559   1.604   2.701
   48DOPE   C12 6068   6.622   1.614   2.901
   48DOPE  H12A 6069   6.707   1.544   2.885
   48DOPE  H12B 6070   6.575   1.591   2.999
   48DOPE   C11 6071   6.670   1.761   2.896
   48DOPE  H11A 6072   6.738   1.770   2.808
   48DOPE  H11B 6073   6.733   1.782   2.985
   48DOPE     P 6074   6.442   1.861   2.982
   48DOPE   O13 6075   6.354   1.752   2.936
   48DOPE   O14 6076   6.389   1.999   2.983
   48DOPE   O11 6077   6.511   1.823   3.118
   48DOPE   O12 6078   6.566   1.859   2.883
   48DOPE    C1 6079   6.567   1.927   3.200
   48DOPE    HA 6080   6.485   1.973   3.258
   48DOPE    HB 6081   6.615   2.007   3.140
   48DOPE    C2 6082   6.674   1.874   3.300
   48DOPE    HS 6083   6.771   1.864   3.246
   48DOPE   O21 6084   6.634   1.749   3.359
   48DOPE   C21 6085   6.670   1.640   3.294
   48DOPE   O22 6086   6.739   1.635   3.193
   48DOPE   C22 6087   6.623   1.517   3.370
   48DOPE   H2R 6088   6.693   1.503   3.455
   48DOPE   H2S 6089   6.633   1.430   3.302
   48DOPE    C3 6090   6.697   1.976   3.415
   48DOPE    HX 6091   6.738   2.069   3.372
   48DOPE    HY 6092   6.774   1.936   3.485
   48DOPE   O31 6093   6.572   2.007   3.480
   48DOPE   C31 6094   6.539   1.929   3.583
   48DOPE   O32 6095   6.615   1.856   3.644
   48DOPE   C32 6096   6.388   1.937   3.605
   48DOPE   H2X 6097   6.343   1.996   3.521
   48DOPE   H2Y 6098   6.348   1.834   3.599
   48DOPE   C23 6099   6.478   1.525   3.422
   48DOPE   H3R 6100   6.409   1.537   3.335
   48DOPE   H3S 6101   6.465   1.615   3.487
   48DOPE   C24 6102   6.436   1.400   3.500
   48DOPE   H4R 6103   6.464   1.310   3.441
   48DOPE   H4S 6104   6.326   1.398   3.512
   48DOPE   C25 6105   6.500   1.388   3.640
   48DOPE   H5R 6106   6.610   1.404   3.635
   48DOPE   H5S 6107   6.483   1.284   3.676
   48DOPE   C26 6108   6.438   1.484   3.743
   48DOPE   H6R 6109   6.328   1.470   3.740
   48DOPE   H6S 6110   6.458   1.589   3.714
   48DOPE   C27 6111   6.485   1.457   3.888
   48DOPE   H7R 6112   6.485   1.347   3.902
   48DOPE   H7S 6113   6.411   1.499   3.958
   48DOPE   C28 6114   6.625   1.512   3.925
   48DOPE   H8R 6115   6.698   1.471   3.851
   48DOPE   H8S 6116   6.653   1.470   4.024
   48DOPE   C29 6117   6.631   1.663   3.925
   48DOPE   H9R 6118   6.589   1.708   3.833
   48DOPE  C210 6119   6.682   1.746   4.017
   48DOPE  H10R 6120   6.674   1.854   3.998
   48DOPE  C211 6121   6.750   1.713   4.148
   48DOPE  H11R 6122   6.860   1.725   4.135
   48DOPE  H11S 6123   6.732   1.607   4.176
   48DOPE  C212 6124   6.710   1.801   4.268
   48DOPE  H12R 6125   6.746   1.751   4.360
   48DOPE  H12S 6126   6.599   1.808   4.276
   48DOPE  C213 6127   6.767   1.944   4.264
   48DOPE  H13R 6128   6.744   1.991   4.167
   48DOPE  H13S 6129   6.878   1.937   4.274
   48DOPE  C214 6130   6.713   2.035   4.376
   48DOPE  H14R 6131   6.606   2.057   4.356
   48DOPE  H14S 6132   6.769   2.131   4.375
   48DOPE  C215 6133   6.724   1.972   4.516
   48DOPE  H15R 6134   6.827   1.935   4.531
   48DOPE  H15S 6135   6.656   1.884   4.521
   48DOPE  C216 6136   6.686   2.068   4.630
   48DOPE  H16R 6137   6.591   2.118   4.603
   48DOPE  H16S 6138   6.764   2.147   4.639
   48DOPE  C217 6139   6.668   1.996   4.764
   48DOPE  H17R 6140   6.588   1.920   4.750
   48DOPE  H17S 6141   6.632   2.069   4.840
   48DOPE  C218 6142   6.793   1.925   4.816
   48DOPE  H18R 6143   6.833   1.855   4.740
   48DOPE  H18S 6144   6.769   1.866   4.907
   48DOPE  H18T 6145   6.872   1.999   4.841
   48DOPE   C33 6146   6.347   2.002   3.739
   48DOPE   H3X 6147   6.238   2.022   3.736
   48DOPE   H3Y 6148   6.398   2.100   3.753
   48DOPE   C34 6149   6.375   1.911   3.860
   48DOPE   H4X 6150   6.327   1.812   3.843
   48DOPE   H4Y 6151   6.484   1.896   3.868
   48DOPE   C35 6152   6.324   1.971   3.992
   48DOPE   H5X 6153   6.214   1.987   3.984
   48DOPE   H5Y 6154   6.373   2.069   4.006
   48DOPE   C36 6155   6.353   1.885   4.116
   48DOPE   H6X 6156   6.314   1.939   4.206
   48DOPE   H6Y 6157   6.463   1.875   4.128
   48DOPE   C37 6158   6.288   1.746   4.112
   48DOPE   H7X 6159   6.182   1.760   4.085
   48DOPE   H7Y 6160   6.334   1.686   4.030
   48DOPE   C38 6161   6.294   1.670   4.246
   48DOPE   H8X 6162   6.214   1.593   4.244
   48DOPE   H8Y 6163   6.270   1.740   4.328
   48DOPE   C39 6164   6.428   1.605   4.268
   48DOPE   H9X 6165   6.492   1.601   4.179
   48DOPE  C310 6166   6.473   1.553   4.383
   48DOPE  H10X 6167   6.573   1.508   4.385
   48DOPE  C311 6168   6.399   1.547   4.514
   48DOPE  H11X 6169   6.290   1.561   4.499
   48DOPE  H11Y 6170   6.413   1.446   4.558
   48DOPE  C312 6171   6.442   1.651   4.619
   48DOPE  H12X 6172   6.412   1.752   4.584
   48DOPE  H12Y 6173   6.553   1.651   4.631
   48DOPE  C313 6174   6.377   1.620   4.755
   48DOPE  H13X 6175   6.268   1.606   4.740
   48DOPE  H13Y 6176   6.417   1.523   4.791
   48DOPE  C314 6177   6.401   1.727   4.862
   48DOPE  H14X 6178   6.510   1.744   4.872
   48DOPE  H14Y 6179   6.364   1.687   4.959
   48DOPE  C315 6180   6.329   1.861   4.836
   48DOPE  H15X 6181   6.366   1.906   4.742
   48DOPE  H15Y 6182   6.355   1.930   4.919
   48DOPE  C316 6183   6.176   1.849   4.829
   48DOPE  H16X 6184   6.140   1.786   4.913
   48DOPE  H16Y 6185   6.147   1.798   4.735
   48DOPE  C317 6186   6.105   1.985   4.836
   48DOPE  H17X 6187   5.996   1.968   4.845
   48DOPE  H17Y 6188   6.138   2.037   4.929
   48DOPE  C318 6189   6.131   2.075   4.715
   48DOPE  H18X 6190   6.101   2.025   4.621
   48DOPE  H18Y 6191   6.074   2.170   4.724
   48DOPE  H18Z 6192   6.239   2.100   4.707
   49DOPE     N 6193   1.881   6.331   2.761
   49DOPE   HN1 6194   1.866   6.239   2.807
   49DOPE   HN2 6195   1.830   6.332   2.670
   49DOPE   HN3 6196   1.983   6.340   2.742
   49DOPE   C12 6197   1.833   6.446   2.844
   49DOPE  H12A 6198   1.727   6.427   2.874
   49DOPE  H12B 6199   1.835   6.537   2.781
   49DOPE   C11 6200   1.922   6.466   2.966
   49DOPE  H11A 6201   2.029   6.462   2.936
   49DOPE  H11B 6202   1.907   6.382   3.038
   49DOPE     P 6203   1.826   6.610   3.164
   49DOPE   O13 6204   1.690   6.553   3.152
   49DOPE   O14 6205   1.839   6.751   3.207
   49DOPE   O11 6206   1.915   6.517   3.257
   49DOPE   O12 6207   1.897   6.594   3.024
   49DOPE    C1 6208   2.059   6.532   3.255
   49DOPE    HA 6209   2.088   6.636   3.281
   49DOPE    HB 6210   2.099   6.510   3.154
   49DOPE    C2 6211   2.133   6.434   3.352
   49DOPE    HS 6212   2.225   6.397   3.302
   49DOPE   O21 6213   2.050   6.324   3.390
   49DOPE   C21 6214   2.013   6.245   3.290
   49DOPE   O22 6215   2.060   6.245   3.177
   49DOPE   C22 6216   1.896   6.158   3.336
   49DOPE   H2R 6217   1.936   6.077   3.400
   49DOPE   H2S 6218   1.853   6.113   3.244
   49DOPE    C3 6219   2.179   6.509   3.481
   49DOPE    HX 6220   2.265   6.573   3.453
   49DOPE    HY 6221   2.217   6.435   3.556
   49DOPE   O31 6222   2.075   6.594   3.533
   49DOPE   C31 6223   1.990   6.537   3.617
   49DOPE   O32 6224   2.006   6.431   3.675
   49DOPE   C32 6225   1.869   6.628   3.635
   49DOPE   H2X 6226   1.872   6.667   3.739
   49DOPE   H2Y 6227   1.877   6.712   3.563
   49DOPE   C23 6228   1.788   6.240   3.411
   49DOPE   H3R 6229   1.767   6.334   3.356
   49DOPE   H3S 6230   1.827   6.268   3.511
   49DOPE   C24 6231   1.656   6.163   3.426
   49DOPE   H4R 6232   1.678   6.065   3.475
   49DOPE   H4S 6233   1.618   6.141   3.324
   49DOPE   C25 6234   1.547   6.235   3.507
   49DOPE   H5R 6235   1.447   6.203   3.472
   49DOPE   H5S 6236   1.556   6.344   3.492
   49DOPE   C26 6237   1.556   6.201   3.657
   49DOPE   H6R 6238   1.664   6.207   3.685
   49DOPE   H6S 6239   1.523   6.097   3.674
   49DOPE   C27 6240   1.474   6.297   3.744
   49DOPE   H7R 6241   1.367   6.289   3.714
   49DOPE   H7S 6242   1.506   6.400   3.720
   49DOPE   C28 6243   1.486   6.274   3.896
   49DOPE   H8R 6244   1.438   6.177   3.922
   49DOPE   H8S 6245   1.428   6.353   3.949
   49DOPE   C29 6246   1.630   6.275   3.941
   49DOPE   H9R 6247   1.701   6.307   3.863
   49DOPE  C210 6248   1.679   6.248   4.062
   49DOPE  H10R 6249   1.788   6.255   4.075
   49DOPE  C211 6250   1.606   6.208   4.188
   49DOPE  H11R 6251   1.634   6.105   4.217
   49DOPE  H11S 6252   1.496   6.212   4.177
   49DOPE  C212 6253   1.651   6.305   4.299
   49DOPE  H12R 6254   1.603   6.404   4.284
   49DOPE  H12S 6255   1.760   6.321   4.291
   49DOPE  C213 6256   1.627   6.258   4.444
   49DOPE  H13R 6257   1.612   6.148   4.444
   49DOPE  H13S 6258   1.534   6.304   4.484
   49DOPE  C214 6259   1.748   6.291   4.533
   49DOPE  H14R 6260   1.767   6.400   4.531
   49DOPE  H14S 6261   1.837   6.241   4.488
   49DOPE  C215 6262   1.736   6.248   4.680
   49DOPE  H15R 6263   1.677   6.154   4.685
   49DOPE  H15S 6264   1.680   6.325   4.736
   49DOPE  C216 6265   1.873   6.222   4.747
   49DOPE  H16R 6266   1.907   6.121   4.715
   49DOPE  H16S 6267   1.857   6.219   4.857
   49DOPE  C217 6268   1.987   6.320   4.715
   49DOPE  H17R 6269   2.013   6.313   4.608
   49DOPE  H17S 6270   2.077   6.287   4.772
   49DOPE  C218 6271   1.959   6.467   4.750
   49DOPE  H18R 6272   2.050   6.529   4.733
   49DOPE  H18S 6273   1.929   6.475   4.857
   49DOPE  H18T 6274   1.877   6.507   4.687
   49DOPE   C33 6275   1.737   6.551   3.609
   49DOPE   H3X 6276   1.726   6.469   3.683
   49DOPE   H3Y 6277   1.742   6.505   3.508
   49DOPE   C34 6278   1.614   6.643   3.612
   49DOPE   H4X 6279   1.625   6.717   3.531
   49DOPE   H4Y 6280   1.523   6.583   3.590
   49DOPE   C35 6281   1.593   6.718   3.745
   49DOPE   H5X 6282   1.505   6.785   3.733
   49DOPE   H5Y 6283   1.682   6.782   3.766
   49DOPE   C36 6284   1.566   6.628   3.866
   49DOPE   H6X 6285   1.649   6.556   3.880
   49DOPE   H6Y 6286   1.474   6.570   3.845
   49DOPE   C37 6287   1.544   6.707   3.996
   49DOPE   H7X 6288   1.465   6.783   3.977
   49DOPE   H7Y 6289   1.504   6.636   4.072
   49DOPE   C38 6290   1.668   6.778   4.052
   49DOPE   H8X 6291   1.637   6.838   4.140
   49DOPE   H8Y 6292   1.704   6.852   3.977
   49DOPE   C39 6293   1.781   6.684   4.086
   49DOPE   H9X 6294   1.841   6.656   3.999
   49DOPE  C310 6295   1.814   6.629   4.205
   49DOPE  H10X 6296   1.901   6.562   4.205
   49DOPE  C311 6297   1.752   6.642   4.343
   49DOPE  H11X 6298   1.746   6.539   4.384
   49DOPE  H11Y 6299   1.821   6.696   4.411
   49DOPE  C312 6300   1.611   6.702   4.362
   49DOPE  H12X 6301   1.549   6.678   4.273
   49DOPE  H12Y 6302   1.618   6.812   4.370
   49DOPE  C313 6303   1.534   6.645   4.483
   49DOPE  H13X 6304   1.433   6.690   4.486
   49DOPE  H13Y 6305   1.521   6.536   4.465
   49DOPE  C314 6306   1.601   6.662   4.620
   49DOPE  H14X 6307   1.608   6.769   4.647
   49DOPE  H14Y 6308   1.704   6.621   4.615
   49DOPE  C315 6309   1.522   6.585   4.727
   49DOPE  H15X 6310   1.502   6.483   4.688
   49DOPE  H15Y 6311   1.424   6.634   4.745
   49DOPE  C316 6312   1.596   6.569   4.861
   49DOPE  H16X 6313   1.611   6.668   4.908
   49DOPE  H16Y 6314   1.696   6.525   4.841
   49DOPE  C317 6315   1.520   6.475   4.955
   49DOPE  H17X 6316   1.427   6.526   4.988
   49DOPE  H17Y 6317   1.491   6.384   4.898
   49DOPE  C318 6318   1.600   6.431   5.078
   49DOPE  H18X 6319   1.538   6.367   5.144
   49DOPE  H18Y 6320   1.689   6.372   5.046
   49DOPE  H18Z 6321   1.635   6.519   5.135
   50DOPE     N 6322   0.236   4.378   2.880
   50DOPE   HN1 6323   0.218   4.283   2.842
   50DOPE   HN2 6324   0.163   4.439   2.839
   50DOPE   HN3 6325   0.330   4.411   2.848
   50DOPE   C12 6326   0.230   4.382   3.030
   50DOPE  H12A 6327   0.308   4.313   3.068
   50DOPE  H12B 6328   0.130   4.345   3.061
   50DOPE   C11 6329   0.253   4.525   3.083
   50DOPE  H11A 6330   0.266   4.523   3.193
   50DOPE  H11B 6331   0.161   4.584   3.064
   50DOPE     P 6332   0.509   4.537   3.026
   50DOPE   O13 6333   0.607   4.647   3.038
   50DOPE   O14 6334   0.522   4.448   2.908
   50DOPE   O11 6335   0.508   4.449   3.156
   50DOPE   O12 6336   0.362   4.594   3.021
   50DOPE    C1 6337   0.624   4.376   3.198
   50DOPE    HA 6338   0.714   4.397   3.138
   50DOPE    HB 6339   0.602   4.268   3.187
   50DOPE    C2 6340   0.658   4.403   3.348
   50DOPE    HS 6341   0.721   4.319   3.385
   50DOPE   O21 6342   0.542   4.418   3.430
   50DOPE   C21 6343   0.466   4.313   3.444
   50DOPE   O22 6344   0.483   4.204   3.390
   50DOPE   C22 6345   0.361   4.344   3.550
   50DOPE   H2R 6346   0.297   4.254   3.561
   50DOPE   H2S 6347   0.298   4.427   3.512
   50DOPE    C3 6348   0.741   4.533   3.366
   50DOPE    HX 6349   0.680   4.620   3.333
   50DOPE    HY 6350   0.827   4.525   3.297
   50DOPE   O31 6351   0.789   4.543   3.502
   50DOPE   C31 6352   0.720   4.623   3.583
   50DOPE   O32 6353   0.636   4.704   3.550
   50DOPE   C32 6354   0.759   4.589   3.728
   50DOPE   H2X 6355   0.711   4.492   3.751
   50DOPE   H2Y 6356   0.869   4.576   3.733
   50DOPE   C23 6357   0.424   4.382   3.686
   50DOPE   H3R 6358   0.342   4.390   3.760
   50DOPE   H3S 6359   0.471   4.483   3.679
   50DOPE   C24 6360   0.529   4.281   3.736
   50DOPE   H4R 6361   0.624   4.294   3.680
   50DOPE   H4S 6362   0.493   4.178   3.713
   50DOPE   C25 6363   0.555   4.287   3.887
   50DOPE   H5R 6364   0.458   4.281   3.941
   50DOPE   H5S 6365   0.602   4.384   3.912
   50DOPE   C26 6366   0.646   4.173   3.934
   50DOPE   H6R 6367   0.741   4.177   3.876
   50DOPE   H6S 6368   0.598   4.075   3.912
   50DOPE   C27 6369   0.681   4.178   4.084
   50DOPE   H7R 6370   0.732   4.274   4.106
   50DOPE   H7S 6371   0.753   4.096   4.104
   50DOPE   C28 6372   0.559   4.162   4.178
   50DOPE   H8R 6373   0.502   4.072   4.145
   50DOPE   H8S 6374   0.491   4.249   4.164
   50DOPE   C29 6375   0.601   4.145   4.322
   50DOPE   H9R 6376   0.672   4.064   4.340
   50DOPE  C210 6377   0.561   4.220   4.427
   50DOPE  H10R 6378   0.602   4.197   4.526
   50DOPE  C211 6379   0.465   4.336   4.421
   50DOPE  H11R 6380   0.365   4.299   4.389
   50DOPE  H11S 6381   0.497   4.410   4.345
   50DOPE  C212 6382   0.449   4.406   4.557
   50DOPE  H12R 6383   0.545   4.454   4.588
   50DOPE  H12S 6384   0.424   4.331   4.635
   50DOPE  C213 6385   0.338   4.512   4.555
   50DOPE  H13R 6386   0.300   4.529   4.659
   50DOPE  H13S 6387   0.253   4.472   4.496
   50DOPE  C214 6388   0.384   4.646   4.495
   50DOPE  H14R 6389   0.297   4.700   4.453
   50DOPE  H14S 6390   0.453   4.626   4.411
   50DOPE  C215 6391   0.451   4.741   4.595
   50DOPE  H15R 6392   0.490   4.827   4.538
   50DOPE  H15S 6393   0.536   4.691   4.646
   50DOPE  C216 6394   0.355   4.796   4.702
   50DOPE  H16R 6395   0.322   4.714   4.769
   50DOPE  H16S 6396   0.264   4.836   4.652
   50DOPE  C217 6397   0.418   4.907   4.787
   50DOPE  H17R 6398   0.454   4.987   4.719
   50DOPE  H17S 6399   0.507   4.865   4.840
   50DOPE  C218 6400   0.321   4.967   4.888
   50DOPE  H18R 6401   0.282   4.887   4.955
   50DOPE  H18S 6402   0.234   5.013   4.836
   50DOPE  H18T 6403   0.371   5.044   4.950
   50DOPE   C33 6404   0.713   4.694   3.831
   50DOPE   H3X 6405   0.611   4.733   3.807
   50DOPE   H3Y 6406   0.783   4.780   3.827
   50DOPE   C34 6407   0.710   4.641   3.975
   50DOPE   H4X 6408   0.620   4.578   3.990
   50DOPE   H4Y 6409   0.800   4.576   3.992
   50DOPE   C35 6410   0.709   4.754   4.079
   50DOPE   H5X 6411   0.621   4.819   4.056
   50DOPE   H5Y 6412   0.801   4.815   4.066
   50DOPE   C36 6413   0.697   4.708   4.225
   50DOPE   H6X 6414   0.603   4.649   4.234
   50DOPE   H6Y 6415   0.685   4.798   4.290
   50DOPE   C37 6416   0.815   4.625   4.275
   50DOPE   H7X 6417   0.888   4.609   4.193
   50DOPE   H7Y 6418   0.868   4.681   4.355
   50DOPE   C38 6419   0.768   4.489   4.330
   50DOPE   H8X 6420   0.712   4.437   4.249
   50DOPE   H8Y 6421   0.693   4.509   4.410
   50DOPE   C39 6422   0.878   4.400   4.381
   50DOPE   H9X 6423   0.938   4.354   4.301
   50DOPE  C310 6424   0.907   4.371   4.509
   50DOPE  H10X 6425   0.992   4.303   4.528
   50DOPE  C311 6426   0.839   4.422   4.634
   50DOPE  H11X 6427   0.743   4.370   4.650
   50DOPE  H11Y 6428   0.903   4.395   4.722
   50DOPE  C312 6429   0.817   4.574   4.643
   50DOPE  H12X 6430   0.716   4.598   4.602
   50DOPE  H12Y 6431   0.890   4.628   4.578
   50DOPE  C313 6432   0.830   4.635   4.784
   50DOPE  H13X 6433   0.938   4.638   4.811
   50DOPE  H13Y 6434   0.795   4.740   4.779
   50DOPE  C314 6435   0.752   4.562   4.893
   50DOPE  H14X 6436   0.800   4.464   4.916
   50DOPE  H14Y 6437   0.650   4.542   4.854
   50DOPE  C315 6438   0.738   4.644   5.022
   50DOPE  H15X 6439   0.667   4.594   5.091
   50DOPE  H15Y 6440   0.693   4.742   4.994
   50DOPE  C316 6441   0.870   4.672   5.098
   50DOPE  H16X 6442   0.866   4.777   5.133
   50DOPE  H16Y 6443   0.957   4.664   5.030
   50DOPE  C317 6444   0.891   4.584   5.222
   50DOPE  H17X 6445   0.969   4.632   5.285
   50DOPE  H17Y 6446   0.798   4.582   5.282
   50DOPE  C318 6447   0.936   4.441   5.191
   50DOPE  H18X 6448   0.860   4.388   5.131
   50DOPE  H18Y 6449   1.032   4.443   5.134
   50DOPE  H18Z 6450   0.953   4.384   5.286
   51DOPE     N 6451   2.852   7.245   2.736
   51DOPE   HN1 6452   2.925   7.318   2.731
   51DOPE   HN2 6453   2.860   7.187   2.650
   51DOPE   HN3 6454   2.759   7.292   2.740
   51DOPE   C12 6455   2.877   7.163   2.859
   51DOPE  H12A 6456   2.788   7.099   2.878
   51DOPE  H12B 6457   2.887   7.235   2.943
   51DOPE   C11 6458   3.004   7.078   2.841
   51DOPE  H11A 6459   3.074   7.123   2.768
   51DOPE  H11B 6460   2.974   6.979   2.798
   51DOPE     P 6461   3.153   7.171   3.034
   51DOPE   O13 6462   3.080   7.220   3.152
   51DOPE   O14 6463   3.192   7.271   2.932
   51DOPE   O11 6464   3.283   7.091   3.076
   51DOPE   O12 6465   3.068   7.056   2.966
   51DOPE    C1 6466   3.273   6.962   3.137
   51DOPE    HA 6467   3.376   6.922   3.149
   51DOPE    HB 6468   3.218   6.890   3.073
   51DOPE    C2 6469   3.210   6.963   3.280
   51DOPE    HS 6470   3.100   6.969   3.265
   51DOPE   O21 6471   3.261   7.078   3.349
   51DOPE   C21 6472   3.173   7.137   3.429
   51DOPE   O22 6473   3.072   7.086   3.474
   51DOPE   C22 6474   3.218   7.280   3.455
   51DOPE   H2R 6475   3.200   7.337   3.361
   51DOPE   H2S 6476   3.328   7.279   3.475
   51DOPE    C3 6477   3.243   6.831   3.354
   51DOPE    HX 6478   3.352   6.828   3.375
   51DOPE    HY 6479   3.222   6.750   3.281
   51DOPE   O31 6480   3.161   6.808   3.469
   51DOPE   C31 6481   3.212   6.844   3.586
   51DOPE   O32 6482   3.325   6.885   3.604
   51DOPE   C32 6483   3.108   6.819   3.695
   51DOPE   H2X 6484   3.018   6.878   3.669
   51DOPE   H2Y 6485   3.082   6.711   3.694
   51DOPE   C23 6486   3.140   7.345   3.571
   51DOPE   H3R 6487   3.170   7.298   3.667
   51DOPE   H3S 6488   3.032   7.327   3.557
   51DOPE   C24 6489   3.161   7.497   3.578
   51DOPE   H4R 6490   3.101   7.537   3.662
   51DOPE   H4S 6491   3.120   7.541   3.484
   51DOPE   C25 6492   3.307   7.544   3.593
   51DOPE   H5R 6493   3.306   7.653   3.617
   51DOPE   H5S 6494   3.358   7.532   3.495
   51DOPE   C26 6495   3.389   7.470   3.699
   51DOPE   H6R 6496   3.492   7.511   3.703
   51DOPE   H6S 6497   3.398   7.364   3.668
   51DOPE   C27 6498   3.329   7.472   3.841
   51DOPE   H7R 6499   3.218   7.479   3.834
   51DOPE   H7S 6500   3.363   7.563   3.895
   51DOPE   C28 6501   3.361   7.344   3.919
   51DOPE   H8R 6502   3.321   7.259   3.859
   51DOPE   H8S 6503   3.305   7.343   4.014
   51DOPE   C29 6504   3.509   7.329   3.944
   51DOPE   H9R 6505   3.563   7.423   3.965
   51DOPE  C210 6506   3.576   7.212   3.943
   51DOPE  H10R 6507   3.684   7.211   3.964
   51DOPE  C211 6508   3.512   7.078   3.918
   51DOPE  H11R 6509   3.586   7.003   3.884
   51DOPE  H11S 6510   3.439   7.085   3.834
   51DOPE  C212 6511   3.438   7.025   4.042
   51DOPE  H12R 6512   3.380   6.937   4.008
   51DOPE  H12S 6513   3.366   7.101   4.079
   51DOPE  C213 6514   3.527   6.980   4.158
   51DOPE  H13R 6515   3.623   6.940   4.117
   51DOPE  H13S 6516   3.476   6.895   4.209
   51DOPE  C214 6517   3.555   7.086   4.266
   51DOPE  H14R 6518   3.598   7.177   4.219
   51DOPE  H14S 6519   3.632   7.045   4.335
   51DOPE  C215 6520   3.432   7.126   4.351
   51DOPE  H15R 6521   3.359   7.180   4.287
   51DOPE  H15S 6522   3.467   7.198   4.429
   51DOPE  C216 6523   3.359   7.010   4.422
   51DOPE  H16R 6524   3.305   6.950   4.346
   51DOPE  H16S 6525   3.282   7.054   4.490
   51DOPE  C217 6526   3.449   6.915   4.504
   51DOPE  H17R 6527   3.514   6.859   4.434
   51DOPE  H17S 6528   3.383   6.841   4.554
   51DOPE  C218 6529   3.536   6.984   4.609
   51DOPE  H18R 6530   3.592   6.909   4.668
   51DOPE  H18S 6531   3.475   7.046   4.678
   51DOPE  H18T 6532   3.610   7.052   4.559
   51DOPE   C33 6533   3.160   6.860   3.834
   51DOPE   H3X 6534   3.178   6.970   3.832
   51DOPE   H3Y 6535   3.258   6.811   3.855
   51DOPE   C34 6536   3.062   6.824   3.945
   51DOPE   H4X 6537   2.961   6.862   3.917
   51DOPE   H4Y 6538   3.054   6.713   3.951
   51DOPE   C35 6539   3.101   6.879   4.084
   51DOPE   H5X 6540   3.201   6.840   4.110
   51DOPE   H5Y 6541   3.030   6.840   4.160
   51DOPE   C36 6542   3.104   7.033   4.093
   51DOPE   H6X 6543   3.171   7.072   4.014
   51DOPE   H6Y 6544   3.146   7.063   4.191
   51DOPE   C37 6545   2.967   7.100   4.072
   51DOPE   H7X 6546   2.983   7.209   4.055
   51DOPE   H7Y 6547   2.922   7.060   3.979
   51DOPE   C38 6548   2.870   7.080   4.189
   51DOPE   H8X 6549   2.863   6.972   4.213
   51DOPE   H8Y 6550   2.769   7.111   4.155
   51DOPE   C39 6551   2.911   7.162   4.309
   51DOPE   H9X 6552   2.969   7.253   4.286
   51DOPE  C310 6553   2.881   7.134   4.437
   51DOPE  H10X 6554   2.917   7.201   4.516
   51DOPE  C311 6555   2.802   7.015   4.485
   51DOPE  H11X 6556   2.729   7.048   4.562
   51DOPE  H11Y 6557   2.743   6.968   4.403
   51DOPE  C312 6558   2.893   6.908   4.547
   51DOPE  H12X 6559   2.957   6.863   4.469
   51DOPE  H12Y 6560   2.828   6.827   4.588
   51DOPE  C313 6561   2.981   6.964   4.660
   51DOPE  H13X 6562   3.061   7.026   4.615
   51DOPE  H13Y 6563   2.919   7.029   4.725
   51DOPE  C314 6564   3.043   6.854   4.746
   51DOPE  H14X 6565   3.113   6.794   4.684
   51DOPE  H14Y 6566   2.962   6.787   4.781
   51DOPE  C315 6567   3.115   6.908   4.871
   51DOPE  H15X 6568   3.141   6.819   4.933
   51DOPE  H15Y 6569   3.045   6.971   4.930
   51DOPE  C316 6570   3.246   6.984   4.842
   51DOPE  H16X 6571   3.291   6.941   4.751
   51DOPE  H16Y 6572   3.317   6.965   4.926
   51DOPE  C317 6573   3.233   7.137   4.827
   51DOPE  H17X 6574   3.331   7.176   4.794
   51DOPE  H17Y 6575   3.160   7.160   4.747
   51DOPE  C318 6576   3.192   7.210   4.955
   51DOPE  H18X 6577   3.090   7.180   4.987
   51DOPE  H18Y 6578   3.263   7.187   5.037
   51DOPE  H18Z 6579   3.192   7.320   4.939
   52DOPE     N 6580   7.291   4.813   2.921
   52DOPE   HN1 6581   7.222   4.852   2.854
   52DOPE   HN2 6582   7.352   4.889   2.957
   52DOPE   HN3 6583   7.347   4.738   2.877
   52DOPE   C12 6584   7.219   4.750   3.037
   52DOPE  H12A 6585   7.164   4.662   2.997
   52DOPE  H12B 6586   7.145   4.824   3.076
   52DOPE   C11 6587   7.316   4.707   3.148
   52DOPE  H11A 6588   7.260   4.639   3.216
   52DOPE  H11B 6589   7.343   4.796   3.208
   52DOPE     P 6590   7.433   4.510   3.020
   52DOPE   O13 6591   7.565   4.444   3.025
   52DOPE   O14 6592   7.385   4.550   2.886
   52DOPE   O11 6593   7.322   4.426   3.093
   52DOPE   O12 6594   7.438   4.645   3.102
   52DOPE    C1 6595   7.348   4.326   3.193
   52DOPE    HA 6596   7.456   4.301   3.201
   52DOPE    HB 6597   7.295   4.233   3.166
   52DOPE    C2 6598   7.299   4.371   3.333
   52DOPE    HS 6599   7.194   4.405   3.321
   52DOPE   O21 6600   7.386   4.476   3.377
   52DOPE   C21 6601   7.330   4.567   3.453
   52DOPE   O22 6602   7.211   4.580   3.475
   52DOPE   C22 6603   7.439   4.655   3.511
   52DOPE   H2R 6604   7.497   4.700   3.428
   52DOPE   H2S 6605   7.506   4.587   3.568
   52DOPE    C3 6606   7.300   4.255   3.438
   52DOPE    HX 6607   7.397   4.202   3.425
   52DOPE    HY 6608   7.221   4.181   3.414
   52DOPE   O31 6609   7.296   4.304   3.574
   52DOPE   C31 6610   7.178   4.304   3.634
   52DOPE   O32 6611   7.076   4.256   3.591
   52DOPE   C32 6612   7.194   4.383   3.765
   52DOPE   H2X 6613   7.279   4.340   3.823
   52DOPE   H2Y 6614   7.220   4.486   3.735
   52DOPE   C23 6615   7.381   4.764   3.603
   52DOPE   H3R 6616   7.307   4.721   3.673
   52DOPE   H3S 6617   7.328   4.839   3.541
   52DOPE   C24 6618   7.489   4.835   3.686
   52DOPE   H4R 6619   7.441   4.913   3.749
   52DOPE   H4S 6620   7.559   4.886   3.617
   52DOPE   C25 6621   7.571   4.741   3.776
   52DOPE   H5R 6622   7.644   4.802   3.833
   52DOPE   H5S 6623   7.631   4.673   3.713
   52DOPE   C26 6624   7.489   4.657   3.876
   52DOPE   H6R 6625   7.559   4.587   3.926
   52DOPE   H6S 6626   7.414   4.594   3.822
   52DOPE   C27 6627   7.419   4.741   3.984
   52DOPE   H7R 6628   7.339   4.804   3.939
   52DOPE   H7S 6629   7.496   4.810   4.024
   52DOPE   C28 6630   7.359   4.654   4.097
   52DOPE   H8R 6631   7.421   4.563   4.106
   52DOPE   H8S 6632   7.257   4.621   4.067
   52DOPE   C29 6633   7.361   4.727   4.229
   52DOPE   H9R 6634   7.452   4.787   4.244
   52DOPE  C210 6635   7.269   4.726   4.327
   52DOPE  H10R 6636   7.290   4.786   4.417
   52DOPE  C211 6637   7.139   4.652   4.333
   52DOPE  H11R 6638   7.119   4.595   4.240
   52DOPE  H11S 6639   7.055   4.724   4.346
   52DOPE  C212 6640   7.133   4.551   4.451
   52DOPE  H12R 6641   7.205   4.468   4.434
   52DOPE  H12S 6642   7.031   4.508   4.449
   52DOPE  C213 6643   7.154   4.610   4.592
   52DOPE  H13R 6644   7.093   4.551   4.663
   52DOPE  H13S 6645   7.118   4.715   4.595
   52DOPE  C214 6646   7.300   4.602   4.641
   52DOPE  H14R 6647   7.365   4.665   4.578
   52DOPE  H14S 6648   7.335   4.497   4.630
   52DOPE  C215 6649   7.316   4.643   4.789
   52DOPE  H15R 6650   7.252   4.577   4.850
   52DOPE  H15S 6651   7.281   4.748   4.804
   52DOPE  C216 6652   7.462   4.631   4.837
   52DOPE  H16R 6653   7.505   4.536   4.797
   52DOPE  H16S 6654   7.462   4.623   4.948
   52DOPE  C217 6655   7.550   4.749   4.796
   52DOPE  H17R 6656   7.515   4.840   4.849
   52DOPE  H17S 6657   7.537   4.768   4.687
   52DOPE  C218 6658   7.699   4.727   4.825
   52DOPE  H18R 6659   7.716   4.706   4.933
   52DOPE  H18S 6660   7.738   4.641   4.766
   52DOPE  H18T 6661   7.757   4.818   4.797
   52DOPE   C33 6662   7.066   4.388   3.852
   52DOPE   H3X 6663   6.976   4.382   3.787
   52DOPE   H3Y 6664   7.063   4.486   3.904
   52DOPE   C34 6665   7.061   4.278   3.959
   52DOPE   H4X 6666   7.076   4.179   3.912
   52DOPE   H4Y 6667   7.142   4.295   4.033
   52DOPE   C35 6668   6.925   4.277   4.031
   52DOPE   H5X 6669   6.849   4.241   3.960
   52DOPE   H5Y 6670   6.898   4.382   4.059
   52DOPE   C36 6671   6.920   4.191   4.158
   52DOPE   H6X 6672   6.960   4.089   4.140
   52DOPE   H6Y 6673   6.812   4.180   4.182
   52DOPE   C37 6674   6.988   4.257   4.280
   52DOPE   H7X 6675   7.095   4.227   4.286
   52DOPE   H7Y 6676   6.988   4.366   4.261
   52DOPE   C38 6677   6.912   4.234   4.413
   52DOPE   H8X 6678   6.804   4.225   4.389
   52DOPE   H8Y 6679   6.921   4.329   4.470
   52DOPE   C39 6680   6.954   4.117   4.498
   52DOPE   H9X 6681   6.960   4.021   4.445
   52DOPE  C310 6682   6.984   4.121   4.630
   52DOPE  H10X 6683   7.012   4.028   4.680
   52DOPE  C311 6684   6.983   4.243   4.719
   52DOPE  H11X 6685   6.999   4.336   4.661
   52DOPE  H11Y 6686   6.884   4.253   4.769
   52DOPE  C312 6687   7.091   4.241   4.829
   52DOPE  H12X 6688   7.068   4.161   4.903
   52DOPE  H12Y 6689   7.086   4.338   4.883
   52DOPE  C313 6690   7.234   4.221   4.776
   52DOPE  H13X 6691   7.249   4.115   4.749
   52DOPE  H13Y 6692   7.247   4.281   4.684
   52DOPE  C314 6693   7.340   4.264   4.878
   52DOPE  H14X 6694   7.318   4.217   4.977
   52DOPE  H14Y 6695   7.333   4.374   4.891
   52DOPE  C315 6696   7.483   4.229   4.834
   52DOPE  H15X 6697   7.552   4.312   4.860
   52DOPE  H15Y 6698   7.485   4.221   4.723
   52DOPE  C316 6699   7.537   4.099   4.896
   52DOPE  H16X 6700   7.633   4.073   4.846
   52DOPE  H16Y 6701   7.466   4.017   4.873
   52DOPE  C317 6702   7.563   4.105   5.047
   52DOPE  H17X 6703   7.466   4.116   5.100
   52DOPE  H17Y 6704   7.606   4.007   5.079
   52DOPE  C318 6705   7.656   4.217   5.093
   52DOPE  H18X 6706   7.677   4.208   5.202
   52DOPE  H18Y 6707   7.753   4.213   5.040
   52DOPE  H18Z 6708   7.610   4.317   5.075
   53DOPE     N 6709   5.975   6.523   2.812
   53DOPE   HN1 6710   5.987   6.421   2.800
   53DOPE   HN2 6711   5.964   6.546   2.913
   53DOPE   HN3 6712   5.888   6.552   2.761
   53DOPE   C12 6713   6.094   6.599   2.760
   53DOPE  H12A 6714   6.056   6.685   2.701
   53DOPE  H12B 6715   6.150   6.530   2.693
   53DOPE   C11 6716   6.184   6.650   2.874
   53DOPE  H11A 6717   6.277   6.691   2.829
   53DOPE  H11B 6718   6.215   6.567   2.941
   53DOPE     P 6719   6.042   6.733   3.081
   53DOPE   O13 6720   5.983   6.598   3.069
   53DOPE   O14 6721   5.947   6.845   3.099
   53DOPE   O11 6722   6.159   6.736   3.186
   53DOPE   O12 6723   6.120   6.757   2.945
   53DOPE    C1 6724   6.156   6.813   3.307
   53DOPE    HA 6725   6.067   6.878   3.316
   53DOPE    HB 6726   6.244   6.880   3.309
   53DOPE    C2 6727   6.164   6.720   3.431
   53DOPE    HS 6728   6.229   6.635   3.404
   53DOPE   O21 6729   6.030   6.681   3.464
   53DOPE   C21 6730   6.015   6.557   3.503
   53DOPE   O22 6731   6.094   6.465   3.487
   53DOPE   C22 6732   5.888   6.548   3.586
   53DOPE   H2R 6733   5.853   6.443   3.584
   53DOPE   H2S 6734   5.810   6.613   3.540
   53DOPE    C3 6735   6.228   6.792   3.553
   53DOPE    HX 6736   6.175   6.889   3.565
   53DOPE    HY 6737   6.334   6.812   3.529
   53DOPE   O31 6738   6.217   6.713   3.674
   53DOPE   C31 6739   6.251   6.777   3.786
   53DOPE   O32 6740   6.294   6.890   3.792
   53DOPE   C32 6741   6.227   6.682   3.904
   53DOPE   H2X 6742   6.119   6.655   3.906
   53DOPE   H2Y 6743   6.286   6.590   3.883
   53DOPE   C23 6744   5.919   6.592   3.730
   53DOPE   H3R 6745   5.953   6.698   3.730
   53DOPE   H3S 6746   6.001   6.529   3.769
   53DOPE   C24 6747   5.801   6.580   3.826
   53DOPE   H4R 6748   5.767   6.474   3.827
   53DOPE   H4S 6749   5.716   6.642   3.790
   53DOPE   C25 6750   5.840   6.624   3.968
   53DOPE   H5R 6751   5.878   6.728   3.963
   53DOPE   H5S 6752   5.924   6.560   4.005
   53DOPE   C26 6753   5.724   6.619   4.069
   53DOPE   H6R 6754   5.642   6.681   4.027
   53DOPE   H6S 6755   5.756   6.666   4.164
   53DOPE   C27 6756   5.671   6.478   4.097
   53DOPE   H7R 6757   5.653   6.425   4.001
   53DOPE   H7S 6758   5.572   6.487   4.146
   53DOPE   C28 6759   5.764   6.391   4.185
   53DOPE   H8R 6760   5.866   6.392   4.141
   53DOPE   H8S 6761   5.728   6.286   4.180
   53DOPE   C29 6762   5.761   6.437   4.328
   53DOPE   H9R 6763   5.662   6.429   4.375
   53DOPE  C210 6764   5.862   6.486   4.402
   53DOPE  H10R 6765   5.840   6.513   4.506
   53DOPE  C211 6766   6.005   6.507   4.360
   53DOPE  H11R 6767   6.026   6.616   4.352
   53DOPE  H11S 6768   6.027   6.462   4.261
   53DOPE  C212 6769   6.101   6.446   4.464
   53DOPE  H12R 6770   6.204   6.445   4.423
   53DOPE  H12S 6771   6.072   6.339   4.480
   53DOPE  C213 6772   6.102   6.519   4.599
   53DOPE  H13R 6773   6.003   6.565   4.620
   53DOPE  H13S 6774   6.175   6.602   4.595
   53DOPE  C214 6775   6.134   6.425   4.716
   53DOPE  H14R 6776   6.233   6.377   4.698
   53DOPE  H14S 6777   6.057   6.345   4.718
   53DOPE  C215 6778   6.135   6.494   4.852
   53DOPE  H15R 6779   6.034   6.537   4.873
   53DOPE  H15S 6780   6.207   6.579   4.850
   53DOPE  C216 6781   6.172   6.400   4.967
   53DOPE  H16R 6782   6.256   6.333   4.936
   53DOPE  H16S 6783   6.084   6.335   4.989
   53DOPE  C217 6784   6.214   6.475   5.094
   53DOPE  H17R 6785   6.193   6.410   5.182
   53DOPE  H17S 6786   6.151   6.566   5.106
   53DOPE  C218 6787   6.362   6.512   5.097
   53DOPE  H18R 6788   6.425   6.421   5.085
   53DOPE  H18S 6789   6.389   6.561   5.193
   53DOPE  H18T 6790   6.386   6.582   5.014
   53DOPE   C33 6791   6.268   6.737   4.043
   53DOPE   H3X 6792   6.366   6.788   4.038
   53DOPE   H3Y 6793   6.280   6.649   4.110
   53DOPE   C34 6794   6.164   6.830   4.109
   53DOPE   H4X 6795   6.162   6.926   4.054
   53DOPE   H4Y 6796   6.062   6.785   4.103
   53DOPE   C35 6797   6.200   6.854   4.256
   53DOPE   H5X 6798   6.309   6.875   4.258
   53DOPE   H5Y 6799   6.184   6.761   4.315
   53DOPE   C36 6800   6.131   6.973   4.325
   53DOPE   H6X 6801   6.146   7.064   4.263
   53DOPE   H6Y 6802   6.183   6.991   4.422
   53DOPE   C37 6803   5.982   6.954   4.354
   53DOPE   H7X 6804   5.928   6.939   4.259
   53DOPE   H7Y 6805   5.968   6.862   4.416
   53DOPE   C38 6806   5.924   7.076   4.430
   53DOPE   H8X 6807   5.940   7.166   4.367
   53DOPE   H8Y 6808   5.985   7.091   4.521
   53DOPE   C39 6809   5.777   7.060   4.462
   53DOPE   H9X 6810   5.715   7.027   4.377
   53DOPE  C310 6811   5.719   7.083   4.581
   53DOPE  H10X 6812   5.611   7.065   4.592
   53DOPE  C311 6813   5.788   7.129   4.707
   53DOPE  H11X 6814   5.878   7.189   4.684
   53DOPE  H11Y 6815   5.720   7.195   4.764
   53DOPE  C312 6816   5.832   7.013   4.800
   53DOPE  H12X 6817   5.744   6.950   4.826
   53DOPE  H12Y 6818   5.871   7.058   4.894
   53DOPE  C313 6819   5.941   6.923   4.738
   53DOPE  H13X 6820   5.901   6.879   4.645
   53DOPE  H13Y 6821   6.028   6.986   4.710
   53DOPE  C314 6822   5.987   6.808   4.828
   53DOPE  H14X 6823   6.056   6.744   4.769
   53DOPE  H14Y 6824   5.898   6.746   4.855
   53DOPE  C315 6825   6.059   6.851   4.957
   53DOPE  H15X 6826   6.071   6.761   5.022
   53DOPE  H15Y 6827   5.994   6.922   5.012
   53DOPE  C316 6828   6.196   6.915   4.934
   53DOPE  H16X 6829   6.186   6.998   4.861
   53DOPE  H16Y 6830   6.264   6.839   4.889
   53DOPE  C317 6831   6.260   6.972   5.062
   53DOPE  H17X 6832   6.356   7.021   5.034
   53DOPE  H17Y 6833   6.193   7.051   5.102
   53DOPE  C318 6834   6.288   6.868   5.172
   53DOPE  H18X 6835   6.358   6.791   5.134
   53DOPE  H18Y 6836   6.334   6.917   5.260
   53DOPE  H18Z 6837   6.194   6.819   5.204
   54DOPE     N 6838   0.182   3.537   2.979
   54DOPE   HN1 6839   0.247   3.463   3.013
   54DOPE   HN2 6840   0.094   3.491   2.948
   54DOPE   HN3 6841   0.223   3.590   2.899
   54DOPE   C12 6842   0.150   3.629   3.092
   54DOPE  H12A 6843   0.233   3.702   3.102
   54DOPE  H12B 6844   0.142   3.568   3.184
   54DOPE   C11 6845   0.018   3.703   3.066
   54DOPE  H11A 6846   0.001   3.770   3.152
   54DOPE  H11B 6847  -0.066   3.629   3.064
   54DOPE     P 6848  -0.098   3.874   2.912
   54DOPE   O13 6849  -0.222   3.793   2.899
   54DOPE   O14 6850  -0.061   3.958   2.796
   54DOPE   O11 6851  -0.105   3.963   3.041
   54DOPE   O12 6852   0.024   3.776   2.942
   54DOPE    C1 6853  -0.003   4.058   3.072
   54DOPE    HA 6854  -0.039   4.159   3.041
   54DOPE    HB 6855   0.093   4.039   3.019
   54DOPE    C2 6856   0.028   4.063   3.224
   54DOPE    HS 6857   0.061   4.167   3.246
   54DOPE   O21 6858   0.134   3.971   3.255
   54DOPE   C21 6859   0.178   3.980   3.380
   54DOPE   O22 6860   0.151   4.069   3.458
   54DOPE   C22 6861   0.260   3.855   3.415
   54DOPE   H2R 6862   0.252   3.783   3.331
   54DOPE   H2S 6863   0.215   3.809   3.505
   54DOPE    C3 6864  -0.100   4.035   3.309
   54DOPE    HX 6865  -0.184   4.088   3.260
   54DOPE    HY 6866  -0.087   4.078   3.411
   54DOPE   O31 6867  -0.128   3.894   3.317
   54DOPE   C31 6868  -0.234   3.864   3.390
   54DOPE   O32 6869  -0.303   3.944   3.451
   54DOPE   C32 6870  -0.258   3.713   3.383
   54DOPE   H2X 6871  -0.366   3.695   3.404
   54DOPE   H2Y 6872  -0.237   3.679   3.279
   54DOPE   C23 6873   0.409   3.885   3.443
   54DOPE   H3R 6874   0.451   3.945   3.359
   54DOPE   H3S 6875   0.464   3.789   3.445
   54DOPE   C24 6876   0.434   3.959   3.575
   54DOPE   H4R 6877   0.377   4.054   3.574
   54DOPE   H4S 6878   0.542   3.986   3.578
   54DOPE   C25 6879   0.400   3.881   3.703
   54DOPE   H5R 6880   0.483   3.893   3.776
   54DOPE   H5S 6881   0.393   3.773   3.679
   54DOPE   C26 6882   0.270   3.926   3.773
   54DOPE   H6R 6883   0.249   3.854   3.855
   54DOPE   H6S 6884   0.185   3.924   3.702
   54DOPE   C27 6885   0.276   4.065   3.838
   54DOPE   H7R 6886   0.286   4.141   3.758
   54DOPE   H7S 6887   0.367   4.069   3.903
   54DOPE   C28 6888   0.152   4.097   3.923
   54DOPE   H8R 6889   0.139   4.016   3.998
   54DOPE   H8S 6890   0.063   4.095   3.856
   54DOPE   C29 6891   0.166   4.232   3.988
   54DOPE   H9R 6892   0.216   4.308   3.926
   54DOPE  C210 6893   0.122   4.268   4.110
   54DOPE  H10R 6894   0.140   4.371   4.145
   54DOPE  C211 6895   0.049   4.182   4.210
   54DOPE  H11R 6896   0.025   4.081   4.168
   54DOPE  H11S 6897  -0.048   4.230   4.234
   54DOPE  C212 6898   0.127   4.162   4.341
   54DOPE  H12R 6899   0.159   4.261   4.379
   54DOPE  H12S 6900   0.217   4.100   4.323
   54DOPE  C213 6901   0.039   4.097   4.448
   54DOPE  H13R 6902  -0.010   4.007   4.404
   54DOPE  H13S 6903  -0.041   4.169   4.475
   54DOPE  C214 6904   0.111   4.055   4.577
   54DOPE  H14R 6905   0.172   3.964   4.558
   54DOPE  H14S 6906   0.033   4.028   4.652
   54DOPE  C215 6907   0.203   4.164   4.634
   54DOPE  H15R 6908   0.159   4.264   4.613
   54DOPE  H15S 6909   0.300   4.158   4.579
   54DOPE  C216 6910   0.228   4.153   4.785
   54DOPE  H16R 6911   0.134   4.181   4.837
   54DOPE  H16S 6912   0.305   4.229   4.813
   54DOPE  C217 6913   0.273   4.015   4.833
   54DOPE  H17R 6914   0.370   3.991   4.785
   54DOPE  H17S 6915   0.199   3.939   4.800
   54DOPE  C218 6916   0.287   4.004   4.985
   54DOPE  H18R 6917   0.358   4.081   5.024
   54DOPE  H18S 6918   0.326   3.903   5.014
   54DOPE  H18T 6919   0.189   4.018   5.035
   54DOPE   C33 6920  -0.173   3.635   3.484
   54DOPE   H3X 6921  -0.190   3.526   3.468
   54DOPE   H3Y 6922  -0.203   3.659   3.588
   54DOPE   C34 6923  -0.023   3.658   3.467
   54DOPE   H4X 6924   0.001   3.662   3.359
   54DOPE   H4Y 6925   0.003   3.757   3.512
   54DOPE   C35 6926   0.062   3.547   3.531
   54DOPE   H5X 6927   0.169   3.571   3.515
   54DOPE   H5Y 6928   0.041   3.452   3.477
   54DOPE   C36 6929   0.036   3.527   3.681
   54DOPE   H6X 6930   0.108   3.449   3.714
   54DOPE   H6Y 6931  -0.067   3.490   3.700
   54DOPE   C37 6932   0.064   3.651   3.766
   54DOPE   H7X 6933   0.154   3.699   3.721
   54DOPE   H7Y 6934  -0.020   3.724   3.760
   54DOPE   C38 6935   0.099   3.617   3.912
   54DOPE   H8X 6936   0.149   3.706   3.955
   54DOPE   H8Y 6937   0.177   3.537   3.910
   54DOPE   C39 6938  -0.016   3.574   3.999
   54DOPE   H9X 6939  -0.062   3.477   3.972
   54DOPE  C310 6940  -0.067   3.644   4.102
   54DOPE  H10X 6941  -0.151   3.603   4.159
   54DOPE  C311 6942  -0.017   3.779   4.149
   54DOPE  H11X 6943  -0.003   3.845   4.061
   54DOPE  H11Y 6944  -0.094   3.829   4.212
   54DOPE  C312 6945   0.116   3.776   4.227
   54DOPE  H12X 6946   0.154   3.880   4.234
   54DOPE  H12Y 6947   0.193   3.719   4.170
   54DOPE  C313 6948   0.105   3.719   4.369
   54DOPE  H13X 6949   0.031   3.780   4.425
   54DOPE  H13Y 6950   0.067   3.615   4.364
   54DOPE  C314 6951   0.240   3.723   4.443
   54DOPE  H14X 6952   0.281   3.825   4.435
   54DOPE  H14Y 6953   0.312   3.654   4.393
   54DOPE  C315 6954   0.227   3.685   4.591
   54DOPE  H15X 6955   0.195   3.579   4.600
   54DOPE  H15Y 6956   0.148   3.748   4.637
   54DOPE  C316 6957   0.358   3.705   4.668
   54DOPE  H16X 6958   0.390   3.810   4.654
   54DOPE  H16Y 6959   0.438   3.640   4.626
   54DOPE  C317 6960   0.343   3.677   4.818
   54DOPE  H17X 6961   0.427   3.727   4.872
   54DOPE  H17Y 6962   0.249   3.722   4.855
   54DOPE  C318 6963   0.345   3.528   4.854
   54DOPE  H18X 6964   0.439   3.481   4.818
   54DOPE  H18Y 6965   0.337   3.513   4.963
   54DOPE  H18Z 6966   0.259   3.476   4.805
   55DOPE     N 6967   0.391   5.647   3.275
   55DOPE   HN1 6968   0.367   5.546   3.275
   55DOPE   HN2 6969   0.467   5.660   3.345
   55DOPE   HN3 6970   0.307   5.700   3.304
   55DOPE   C12 6971   0.438   5.687   3.138
   55DOPE  H12A 6972   0.354   5.671   3.066
   55DOPE  H12B 6973   0.522   5.620   3.111
   55DOPE   C11 6974   0.482   5.835   3.135
   55DOPE  H11A 6975   0.542   5.858   3.225
   55DOPE  H11B 6976   0.391   5.900   3.141
   55DOPE     P 6977   0.711   5.854   3.013
   55DOPE   O13 6978   0.762   5.894   2.880
   55DOPE   O14 6979   0.748   5.719   3.062
   55DOPE   O11 6980   0.748   5.963   3.121
   55DOPE   O12 6981   0.552   5.864   3.013
   55DOPE    C1 6982   0.759   6.100   3.082
   55DOPE    HA 6983   0.689   6.128   3.001
   55DOPE    HB 6984   0.863   6.117   3.046
   55DOPE    C2 6985   0.734   6.198   3.201
   55DOPE    HS 6986   0.764   6.299   3.168
   55DOPE   O21 6987   0.810   6.155   3.316
   55DOPE   C21 6988   0.939   6.184   3.308
   55DOPE   O22 6989   0.988   6.268   3.234
   55DOPE   C22 6990   1.018   6.100   3.407
   55DOPE   H2R 6991   1.117   6.081   3.361
   55DOPE   H2S 6992   0.966   6.002   3.421
   55DOPE    C3 6993   0.582   6.210   3.238
   55DOPE    HX 6994   0.526   6.223   3.143
   55DOPE    HY 6995   0.568   6.304   3.296
   55DOPE   O31 6996   0.530   6.095   3.307
   55DOPE   C31 6997   0.539   6.101   3.439
   55DOPE   O32 6998   0.575   6.197   3.504
   55DOPE   C32 6999   0.491   5.968   3.496
   55DOPE   H2X 7000   0.385   5.956   3.468
   55DOPE   H2Y 7001   0.551   5.886   3.450
   55DOPE   C23 7002   1.035   6.172   3.542
   55DOPE   H3R 7003   0.936   6.183   3.591
   55DOPE   H3S 7004   1.077   6.274   3.526
   55DOPE   C24 7005   1.131   6.096   3.633
   55DOPE   H4R 7006   1.234   6.101   3.591
   55DOPE   H4S 7007   1.102   5.989   3.634
   55DOPE   C25 7008   1.133   6.148   3.777
   55DOPE   H5R 7009   1.156   6.257   3.779
   55DOPE   H5S 7010   1.214   6.095   3.831
   55DOPE   C26 7011   1.000   6.124   3.852
   55DOPE   H6R 7012   0.964   6.022   3.825
   55DOPE   H6S 7013   0.922   6.196   3.818
   55DOPE   C27 7014   1.018   6.130   4.004
   55DOPE   H7R 7015   1.122   6.099   4.028
   55DOPE   H7S 7016   0.951   6.055   4.053
   55DOPE   C28 7017   0.992   6.269   4.063
   55DOPE   H8R 7018   1.044   6.343   3.998
   55DOPE   H8S 7019   1.042   6.272   4.162
   55DOPE   C29 7020   0.846   6.304   4.073
   55DOPE   H9R 7021   0.791   6.303   3.978
   55DOPE  C210 7022   0.778   6.334   4.186
   55DOPE  H10R 7023   0.671   6.357   4.179
   55DOPE  C211 7024   0.835   6.341   4.326
   55DOPE  H11R 7025   0.784   6.420   4.383
   55DOPE  H11S 7026   0.943   6.368   4.324
   55DOPE  C212 7027   0.820   6.207   4.402
   55DOPE  H12R 7028   0.872   6.126   4.346
   55DOPE  H12S 7029   0.713   6.181   4.408
   55DOPE  C213 7030   0.878   6.215   4.544
   55DOPE  H13R 7031   0.830   6.301   4.596
   55DOPE  H13S 7032   0.987   6.237   4.538
   55DOPE  C214 7033   0.856   6.089   4.629
   55DOPE  H14R 7034   0.750   6.057   4.621
   55DOPE  H14S 7035   0.876   6.115   4.735
   55DOPE  C215 7036   0.948   5.972   4.590
   55DOPE  H15R 7037   1.053   6.008   4.595
   55DOPE  H15S 7038   0.928   5.941   4.485
   55DOPE  C216 7039   0.934   5.852   4.684
   55DOPE  H16R 7040   0.833   5.807   4.671
   55DOPE  H16S 7041   0.943   5.887   4.789
   55DOPE  C217 7042   1.041   5.745   4.659
   55DOPE  H17R 7043   1.141   5.792   4.671
   55DOPE  H17S 7044   1.033   5.709   4.555
   55DOPE  C218 7045   1.032   5.625   4.755
   55DOPE  H18R 7046   1.111   5.551   4.732
   55DOPE  H18S 7047   0.933   5.575   4.745
   55DOPE  H18T 7048   1.043   5.659   4.860
   55DOPE   C33 7049   0.505   5.963   3.650
   55DOPE   H3X 7050   0.448   5.875   3.686
   55DOPE   H3Y 7051   0.460   6.053   3.697
   55DOPE   C34 7052   0.651   5.947   3.695
   55DOPE   H4X 7053   0.700   5.868   3.634
   55DOPE   H4Y 7054   0.705   6.042   3.676
   55DOPE   C35 7055   0.666   5.910   3.843
   55DOPE   H5X 7056   0.775   5.907   3.867
   55DOPE   H5Y 7057   0.626   5.808   3.860
   55DOPE   C36 7058   0.598   6.009   3.939
   55DOPE   H6X 7059   0.488   5.997   3.934
   55DOPE   H6Y 7060   0.623   6.112   3.907
   55DOPE   C37 7061   0.645   5.991   4.084
   55DOPE   H7X 7062   0.755   6.005   4.087
   55DOPE   H7Y 7063   0.600   6.071   4.147
   55DOPE   C38 7064   0.611   5.853   4.145
   55DOPE   H8X 7065   0.648   5.773   4.078
   55DOPE   H8Y 7066   0.500   5.843   4.150
   55DOPE   C39 7067   0.674   5.837   4.281
   55DOPE   H9X 7068   0.768   5.781   4.283
   55DOPE  C310 7069   0.626   5.887   4.396
   55DOPE  H10X 7070   0.682   5.869   4.489
   55DOPE  C311 7071   0.501   5.970   4.413
   55DOPE  H11X 7072   0.525   6.066   4.463
   55DOPE  H11Y 7073   0.457   5.996   4.314
   55DOPE  C312 7074   0.392   5.897   4.493
   55DOPE  H12X 7075   0.364   5.803   4.440
   55DOPE  H12Y 7076   0.302   5.961   4.495
   55DOPE  C313 7077   0.430   5.862   4.638
   55DOPE  H13X 7078   0.348   5.801   4.683
   55DOPE  H13Y 7079   0.521   5.798   4.638
   55DOPE  C314 7080   0.453   5.985   4.727
   55DOPE  H14X 7081   0.359   6.044   4.728
   55DOPE  H14Y 7082   0.532   6.050   4.684
   55DOPE  C315 7083   0.491   5.948   4.871
   55DOPE  H15X 7084   0.420   5.871   4.907
   55DOPE  H15Y 7085   0.479   6.038   4.936
   55DOPE  C316 7086   0.634   5.896   4.886
   55DOPE  H16X 7087   0.705   5.976   4.854
   55DOPE  H16Y 7088   0.649   5.809   4.818
   55DOPE  C317 7089   0.668   5.853   5.029
   55DOPE  H17X 7090   0.651   5.938   5.098
   55DOPE  H17Y 7091   0.597   5.772   5.059
   55DOPE  C318 7092   0.811   5.802   5.046
   55DOPE  H18X 7093   0.883   5.883   5.021
   55DOPE  H18Y 7094   0.829   5.769   5.150
   55DOPE  H18Z 7095   0.830   5.716   4.978
   56DOPE     N 7096   1.080   6.246   2.855
   56DOPE   HN1 7097   1.000   6.207   2.801
   56DOPE   HN2 7098   1.152   6.285   2.791
   56DOPE   HN3 7099   1.120   6.167   2.910
   56DOPE   C12 7100   1.033   6.351   2.952
   56DOPE  H12A 7101   1.108   6.358   3.033
   56DOPE  H12B 7102   0.937   6.315   2.994
   56DOPE   C11 7103   1.012   6.489   2.887
   56DOPE  H11A 7104   0.945   6.547   2.953
   56DOPE  H11B 7105   0.958   6.479   2.790
   56DOPE     P 7106   1.185   6.666   2.970
   56DOPE   O13 7107   1.307   6.731   2.917
   56DOPE   O14 7108   1.198   6.599   3.101
   56DOPE   O11 7109   1.063   6.766   2.970
   56DOPE   O12 7110   1.138   6.556   2.865
   56DOPE    C1 7111   1.027   6.836   2.850
   56DOPE    HA 7112   1.045   6.777   2.758
   56DOPE    HB 7113   1.090   6.928   2.844
   56DOPE    C2 7114   0.878   6.884   2.847
   56DOPE    HS 7115   0.873   6.975   2.785
   56DOPE   O21 7116   0.829   6.910   2.979
   56DOPE   C21 7117   0.880   7.013   3.042
   56DOPE   O22 7118   0.951   7.101   2.995
   56DOPE   C22 7119   0.825   7.006   3.186
   56DOPE   H2R 7120   0.872   6.914   3.229
   56DOPE   H2S 7121   0.716   6.989   3.180
   56DOPE    C3 7122   0.781   6.780   2.781
   56DOPE    HX 7123   0.827   6.747   2.686
   56DOPE    HY 7124   0.687   6.833   2.754
   56DOPE   O31 7125   0.755   6.664   2.864
   56DOPE   C31 7126   0.647   6.672   2.941
   56DOPE   O32 7127   0.562   6.760   2.939
   56DOPE   C32 7128   0.639   6.549   3.031
   56DOPE   H2X 7129   0.537   6.505   3.016
   56DOPE   H2Y 7130   0.714   6.474   3.000
   56DOPE   C23 7131   0.856   7.128   3.275
   56DOPE   H3R 7132   0.806   7.218   3.233
   56DOPE   H3S 7133   0.965   7.148   3.276
   56DOPE   C24 7134   0.810   7.108   3.421
   56DOPE   H4R 7135   0.701   7.088   3.419
   56DOPE   H4S 7136   0.828   7.202   3.478
   56DOPE   C25 7137   0.880   6.995   3.499
   56DOPE   H5R 7138   0.974   7.031   3.544
   56DOPE   H5S 7139   0.909   6.914   3.428
   56DOPE   C26 7140   0.789   6.934   3.606
   56DOPE   H6R 7141   0.827   6.832   3.629
   56DOPE   H6S 7142   0.686   6.922   3.565
   56DOPE   C27 7143   0.785   7.014   3.737
   56DOPE   H7R 7144   0.768   7.121   3.713
   56DOPE   H7S 7145   0.886   7.006   3.784
   56DOPE   C28 7146   0.677   6.968   3.837
   56DOPE   H8R 7147   0.578   6.991   3.794
   56DOPE   H8S 7148   0.687   7.029   3.929
   56DOPE   C29 7149   0.686   6.820   3.866
   56DOPE   H9R 7150   0.652   6.756   3.783
   56DOPE  C210 7151   0.732   6.760   3.977
   56DOPE  H10R 7152   0.734   6.650   3.980
   56DOPE  C211 7153   0.786   6.825   4.102
   56DOPE  H11R 7154   0.754   6.931   4.112
   56DOPE  H11S 7155   0.897   6.826   4.097
   56DOPE  C212 7156   0.744   6.748   4.229
   56DOPE  H12R 7157   0.764   6.640   4.213
   56DOPE  H12S 7158   0.635   6.760   4.248
   56DOPE  C213 7159   0.824   6.789   4.354
   56DOPE  H13R 7160   0.932   6.792   4.326
   56DOPE  H13S 7161   0.812   6.711   4.432
   56DOPE  C214 7162   0.785   6.925   4.413
   56DOPE  H14R 7163   0.682   6.918   4.453
   56DOPE  H14S 7164   0.786   7.001   4.332
   56DOPE  C215 7165   0.879   6.971   4.525
   56DOPE  H15R 7166   0.984   6.959   4.490
   56DOPE  H15S 7167   0.867   6.905   4.614
   56DOPE  C216 7168   0.859   7.118   4.563
   56DOPE  H16R 7169   0.876   7.179   4.472
   56DOPE  H16S 7170   0.935   7.147   4.638
   56DOPE  C217 7171   0.719   7.152   4.617
   56DOPE  H17R 7172   0.643   7.125   4.541
   56DOPE  H17S 7173   0.713   7.262   4.631
   56DOPE  C218 7174   0.685   7.083   4.750
   56DOPE  H18R 7175   0.682   6.973   4.738
   56DOPE  H18S 7176   0.586   7.117   4.787
   56DOPE  H18T 7177   0.762   7.108   4.826
   56DOPE   C33 7178   0.655   6.587   3.180
   56DOPE   H3X 7179   0.614   6.505   3.244
   56DOPE   H3Y 7180   0.597   6.678   3.203
   56DOPE   C34 7181   0.802   6.608   3.220
   56DOPE   H4X 7182   0.860   6.514   3.211
   56DOPE   H4Y 7183   0.847   6.681   3.149
   56DOPE   C35 7184   0.818   6.664   3.362
   56DOPE   H5X 7185   0.749   6.751   3.373
   56DOPE   H5Y 7186   0.921   6.703   3.372
   56DOPE   C36 7187   0.790   6.564   3.475
   56DOPE   H6X 7188   0.728   6.480   3.437
   56DOPE   H6Y 7189   0.732   6.614   3.555
   56DOPE   C37 7190   0.918   6.506   3.539
   56DOPE   H7X 7191   0.889   6.420   3.603
   56DOPE   H7Y 7192   0.983   6.468   3.458
   56DOPE   C38 7193   0.996   6.608   3.626
   56DOPE   H8X 7194   0.927   6.646   3.704
   56DOPE   H8Y 7195   1.025   6.694   3.563
   56DOPE   C39 7196   1.120   6.547   3.687
   56DOPE   H9X 7197   1.183   6.490   3.617
   56DOPE  C310 7198   1.158   6.557   3.815
   56DOPE  H10X 7199   1.251   6.507   3.847
   56DOPE  C311 7200   1.085   6.633   3.924
   56DOPE  H11X 7201   1.054   6.732   3.886
   56DOPE  H11Y 7202   0.993   6.579   3.953
   56DOPE  C312 7203   1.171   6.655   4.050
   56DOPE  H12X 7204   1.117   6.726   4.117
   56DOPE  H12Y 7205   1.268   6.701   4.022
   56DOPE  C313 7206   1.195   6.526   4.131
   56DOPE  H13X 7207   1.096   6.490   4.166
   56DOPE  H13Y 7208   1.239   6.448   4.065
   56DOPE  C314 7209   1.287   6.544   4.253
   56DOPE  H14X 7210   1.317   6.651   4.262
   56DOPE  H14Y 7211   1.379   6.485   4.237
   56DOPE  C315 7212   1.221   6.499   4.385
   56DOPE  H15X 7213   1.299   6.491   4.463
   56DOPE  H15Y 7214   1.176   6.398   4.371
   56DOPE  C316 7215   1.113   6.599   4.431
   56DOPE  H16X 7216   1.039   6.610   4.350
   56DOPE  H16Y 7217   1.162   6.698   4.447
   56DOPE  C317 7218   1.040   6.560   4.560
   56DOPE  H17X 7219   0.973   6.643   4.589
   56DOPE  H17Y 7220   0.975   6.472   4.538
   56DOPE  C318 7221   1.131   6.526   4.678
   56DOPE  H18X 7222   1.071   6.505   4.769
   56DOPE  H18Y 7223   1.192   6.436   4.655
   56DOPE  H18Z 7224   1.200   6.610   4.700
   57DOPE     N 7225   7.592   2.152   2.952
   57DOPE   HN1 7226   7.659   2.103   2.890
   57DOPE   HN2 7227   7.643   2.185   3.037
   57DOPE   HN3 7228   7.516   2.087   2.980
   57DOPE   C12 7229   7.537   2.277   2.891
   57DOPE  H12A 7230   7.437   2.254   2.846
   57DOPE  H12B 7231   7.607   2.310   2.811
   57DOPE   C11 7232   7.528   2.385   3.000
   57DOPE  H11A 7233   7.456   2.352   3.078
   57DOPE  H11B 7234   7.486   2.478   2.957
   57DOPE     P 7235   7.751   2.520   3.007
   57DOPE   O13 7236   7.700   2.651   3.054
   57DOPE   O14 7237   7.767   2.507   2.861
   57DOPE   O11 7238   7.889   2.488   3.076
   57DOPE   O12 7239   7.657   2.404   3.060
   57DOPE    C1 7240   7.978   2.599   3.097
   57DOPE    HA 7241   7.930   2.670   3.169
   57DOPE    HB 7242   7.997   2.653   3.002
   57DOPE    C2 7243   8.117   2.560   3.156
   57DOPE    HS 7244   8.187   2.546   3.070
   57DOPE   O21 7245   8.108   2.441   3.234
   57DOPE   C21 7246   8.115   2.328   3.164
   57DOPE   O22 7247   8.149   2.318   3.047
   57DOPE   C22 7248   8.083   2.210   3.256
   57DOPE   H2R 7249   8.103   2.242   3.360
   57DOPE   H2S 7250   8.153   2.128   3.230
   57DOPE    C3 7251   8.178   2.675   3.243
   57DOPE    HX 7252   8.219   2.750   3.171
   57DOPE    HY 7253   8.264   2.632   3.299
   57DOPE   O31 7254   8.084   2.735   3.336
   57DOPE   C31 7255   8.124   2.855   3.382
   57DOPE   O32 7256   8.226   2.911   3.347
   57DOPE   C32 7257   8.015   2.917   3.470
   57DOPE   H2X 7258   8.033   3.027   3.472
   57DOPE   H2Y 7259   7.919   2.902   3.416
   57DOPE   C23 7260   7.937   2.162   3.240
   57DOPE   H3R 7261   7.924   2.118   3.139
   57DOPE   H3S 7262   7.867   2.247   3.249
   57DOPE   C24 7263   7.901   2.056   3.346
   57DOPE   H4R 7264   7.984   1.983   3.353
   57DOPE   H4S 7265   7.810   2.000   3.315
   57DOPE   C25 7266   7.875   2.117   3.485
   57DOPE   H5R 7267   7.774   2.165   3.486
   57DOPE   H5S 7268   7.950   2.198   3.503
   57DOPE   C26 7269   7.887   2.016   3.599
   57DOPE   H6R 7270   7.984   1.962   3.585
   57DOPE   H6S 7271   7.805   1.942   3.593
   57DOPE   C27 7272   7.891   2.081   3.738
   57DOPE   H7R 7273   7.964   2.164   3.736
   57DOPE   H7S 7274   7.930   2.007   3.812
   57DOPE   C28 7275   7.755   2.135   3.786
   57DOPE   H8R 7276   7.703   2.187   3.702
   57DOPE   H8S 7277   7.773   2.213   3.863
   57DOPE   C29 7278   7.670   2.025   3.843
   57DOPE   H9R 7279   7.608   1.970   3.770
   57DOPE  C210 7280   7.666   1.988   3.972
   57DOPE  H10R 7281   7.599   1.906   4.001
   57DOPE  C211 7282   7.744   2.047   4.087
   57DOPE  H11R 7283   7.820   2.120   4.052
   57DOPE  H11S 7284   7.799   1.968   4.142
   57DOPE  C212 7285   7.651   2.119   4.187
   57DOPE  H12R 7286   7.589   2.192   4.131
   57DOPE  H12S 7287   7.714   2.177   4.258
   57DOPE  C213 7288   7.561   2.026   4.268
   57DOPE  H13R 7289   7.542   1.932   4.212
   57DOPE  H13S 7290   7.462   2.076   4.281
   57DOPE  C214 7291   7.615   1.991   4.408
   57DOPE  H14R 7292   7.717   1.946   4.400
   57DOPE  H14S 7293   7.548   1.914   4.452
   57DOPE  C215 7294   7.617   2.112   4.503
   57DOPE  H15R 7295   7.531   2.177   4.477
   57DOPE  H15S 7296   7.710   2.169   4.485
   57DOPE  C216 7297   7.608   2.074   4.651
   57DOPE  H16R 7298   7.695   2.010   4.677
   57DOPE  H16S 7299   7.516   2.014   4.668
   57DOPE  C217 7300   7.605   2.197   4.744
   57DOPE  H17R 7301   7.698   2.256   4.728
   57DOPE  H17S 7302   7.607   2.160   4.849
   57DOPE  C218 7303   7.483   2.288   4.726
   57DOPE  H18R 7304   7.483   2.368   4.803
   57DOPE  H18S 7305   7.389   2.230   4.735
   57DOPE  H18T 7306   7.485   2.337   4.626
   57DOPE   C33 7307   7.996   2.864   3.615
   57DOPE   H3X 7308   8.026   2.944   3.686
   57DOPE   H3Y 7309   8.061   2.776   3.635
   57DOPE   C34 7310   7.848   2.828   3.639
   57DOPE   H4X 7311   7.786   2.907   3.590
   57DOPE   H4Y 7312   7.824   2.734   3.585
   57DOPE   C35 7313   7.799   2.818   3.784
   57DOPE   H5X 7314   7.841   2.904   3.842
   57DOPE   H5Y 7315   7.836   2.725   3.832
   57DOPE   C36 7316   7.645   2.823   3.793
   57DOPE   H6X 7317   7.603   2.721   3.778
   57DOPE   H6Y 7318   7.607   2.884   3.708
   57DOPE   C37 7319   7.590   2.886   3.922
   57DOPE   H7X 7320   7.652   2.975   3.947
   57DOPE   H7Y 7321   7.486   2.921   3.906
   57DOPE   C38 7322   7.590   2.786   4.040
   57DOPE   H8X 7323   7.681   2.724   4.028
   57DOPE   H8Y 7324   7.503   2.717   4.029
   57DOPE   C39 7325   7.588   2.852   4.176
   57DOPE   H9X 7326   7.490   2.888   4.211
   57DOPE  C310 7327   7.697   2.868   4.253
   57DOPE  H10X 7328   7.687   2.916   4.352
   57DOPE  C311 7329   7.837   2.825   4.215
   57DOPE  H11X 7330   7.852   2.717   4.239
   57DOPE  H11Y 7331   7.853   2.836   4.106
   57DOPE  C312 7332   7.945   2.907   4.287
   57DOPE  H12X 7333   7.945   2.883   4.396
   57DOPE  H12Y 7334   7.920   3.014   4.276
   57DOPE  C313 7335   8.087   2.888   4.229
   57DOPE  H13X 7336   8.085   2.922   4.123
   57DOPE  H13Y 7337   8.157   2.954   4.284
   57DOPE  C314 7338   8.141   2.744   4.232
   57DOPE  H14X 7339   8.242   2.744   4.185
   57DOPE  H14Y 7340   8.077   2.678   4.170
   57DOPE  C315 7341   8.153   2.684   4.373
   57DOPE  H15X 7342   8.051   2.666   4.413
   57DOPE  H15Y 7343   8.203   2.758   4.440
   57DOPE  C316 7344   8.233   2.553   4.375
   57DOPE  H16X 7345   8.334   2.574   4.334
   57DOPE  H16Y 7346   8.185   2.478   4.309
   57DOPE  C317 7347   8.250   2.494   4.516
   57DOPE  H17X 7348   8.331   2.418   4.513
   57DOPE  H17Y 7349   8.282   2.575   4.586
   57DOPE  C318 7350   8.123   2.427   4.571
   57DOPE  H18X 7351   8.140   2.390   4.674
   57DOPE  H18Y 7352   8.039   2.499   4.572
   57DOPE  H18Z 7353   8.094   2.341   4.506
   58DOPE     N 7354   7.543   5.795   2.775
   58DOPE   HN1 7355   7.458   5.749   2.814
   58DOPE   HN2 7356   7.549   5.771   2.674
   58DOPE   HN3 7357   7.628   5.759   2.822
   58DOPE   C12 7358   7.531   5.943   2.798
   58DOPE  H12A 7359   7.452   5.981   2.730
   58DOPE  H12B 7360   7.628   5.991   2.774
   58DOPE   C11 7361   7.491   5.967   2.944
   58DOPE  H11A 7362   7.473   6.076   2.959
   58DOPE  H11B 7363   7.574   5.937   3.012
   58DOPE     P 7364   7.302   5.897   3.112
   58DOPE   O13 7365   7.180   5.816   3.097
   58DOPE   O14 7366   7.287   6.040   3.148
   58DOPE   O11 7367   7.407   5.824   3.205
   58DOPE   O12 7368   7.373   5.891   2.972
   58DOPE    C1 7369   7.432   5.684   3.186
   58DOPE    HA 7370   7.432   5.657   3.078
   58DOPE    HB 7371   7.352   5.625   3.235
   58DOPE    C2 7372   7.570   5.637   3.242
   58DOPE    HS 7373   7.585   5.531   3.211
   58DOPE   O21 7374   7.575   5.650   3.386
   58DOPE   C21 7375   7.514   5.551   3.449
   58DOPE   O22 7376   7.461   5.455   3.397
   58DOPE   C22 7377   7.528   5.568   3.600
   58DOPE   H2R 7378   7.620   5.626   3.623
   58DOPE   H2S 7379   7.540   5.466   3.641
   58DOPE    C3 7380   7.690   5.714   3.180
   58DOPE    HX 7381   7.680   5.708   3.070
   58DOPE    HY 7382   7.783   5.659   3.207
   58DOPE   O31 7383   7.692   5.853   3.219
   58DOPE   C31 7384   7.782   5.889   3.309
   58DOPE   O32 7385   7.878   5.823   3.344
   58DOPE   C32 7386   7.753   6.032   3.357
   58DOPE   H2X 7387   7.849   6.087   3.352
   58DOPE   H2Y 7388   7.681   6.078   3.286
   58DOPE   C23 7389   7.404   5.634   3.664
   58DOPE   H3R 7390   7.391   5.593   3.766
   58DOPE   H3S 7391   7.312   5.610   3.606
   58DOPE   C24 7392   7.419   5.786   3.676
   58DOPE   H4R 7393   7.435   5.831   3.576
   58DOPE   H4S 7394   7.509   5.807   3.737
   58DOPE   C25 7395   7.298   5.854   3.742
   58DOPE   H5R 7396   7.258   5.788   3.823
   58DOPE   H5S 7397   7.218   5.867   3.667
   58DOPE   C26 7398   7.336   5.989   3.805
   58DOPE   H6R 7399   7.399   6.045   3.733
   58DOPE   H6S 7400   7.397   5.968   3.895
   58DOPE   C27 7401   7.215   6.075   3.846
   58DOPE   H7R 7402   7.140   6.010   3.895
   58DOPE   H7S 7403   7.168   6.116   3.754
   58DOPE   C28 7404   7.251   6.190   3.943
   58DOPE   H8R 7405   7.280   6.142   4.039
   58DOPE   H8S 7406   7.159   6.249   3.963
   58DOPE   C29 7407   7.363   6.279   3.895
   58DOPE   H9R 7408   7.402   6.254   3.795
   58DOPE  C210 7409   7.415   6.384   3.961
   58DOPE  H10R 7410   7.498   6.439   3.914
   58DOPE  C211 7411   7.374   6.435   4.097
   58DOPE  H11R 7412   7.270   6.404   4.122
   58DOPE  H11S 7413   7.372   6.546   4.093
   58DOPE  C212 7414   7.468   6.394   4.212
   58DOPE  H12R 7415   7.445   6.458   4.300
   58DOPE  H12S 7416   7.573   6.415   4.183
   58DOPE  C213 7417   7.455   6.247   4.257
   58DOPE  H13R 7418   7.534   6.225   4.331
   58DOPE  H13S 7419   7.472   6.181   4.169
   58DOPE  C214 7420   7.318   6.214   4.319
   58DOPE  H14R 7421   7.238   6.237   4.246
   58DOPE  H14S 7422   7.302   6.279   4.408
   58DOPE  C215 7423   7.304   6.067   4.359
   58DOPE  H15R 7424   7.370   6.045   4.446
   58DOPE  H15S 7425   7.339   6.004   4.274
   58DOPE  C216 7426   7.159   6.027   4.390
   58DOPE  H16R 7427   7.156   5.919   4.416
   58DOPE  H16S 7428   7.098   6.041   4.298
   58DOPE  C217 7429   7.093   6.106   4.504
   58DOPE  H17R 7430   6.988   6.071   4.512
   58DOPE  H17S 7431   7.090   6.213   4.478
   58DOPE  C218 7432   7.160   6.088   4.641
   58DOPE  H18R 7433   7.163   5.980   4.669
   58DOPE  H18S 7434   7.103   6.143   4.719
   58DOPE  H18T 7435   7.264   6.126   4.639
   58DOPE   C33 7436   7.695   6.038   3.500
   58DOPE   H3X 7437   7.606   5.972   3.508
   58DOPE   H3Y 7438   7.661   6.142   3.519
   58DOPE   C34 7439   7.798   6.002   3.609
   58DOPE   H4X 7440   7.823   5.894   3.601
   58DOPE   H4Y 7441   7.891   6.060   3.592
   58DOPE   C35 7442   7.747   6.032   3.751
   58DOPE   H5X 7443   7.647   5.986   3.763
   58DOPE   H5Y 7444   7.737   6.141   3.764
   58DOPE   C36 7445   7.842   5.976   3.859
   58DOPE   H6X 7446   7.944   6.015   3.840
   58DOPE   H6Y 7447   7.846   5.866   3.849
   58DOPE   C37 7448   7.802   6.012   4.004
   58DOPE   H7X 7449   7.873   5.962   4.073
   58DOPE   H7Y 7450   7.815   6.122   4.018
   58DOPE   C38 7451   7.658   5.977   4.044
   58DOPE   H8X 7452   7.588   6.034   3.979
   58DOPE   H8Y 7453   7.641   6.015   4.147
   58DOPE   C39 7454   7.629   5.829   4.034
   58DOPE   H9X 7455   7.633   5.788   3.932
   58DOPE  C310 7456   7.601   5.747   4.136
   58DOPE  H10X 7457   7.584   5.640   4.116
   58DOPE  C311 7458   7.591   5.786   4.281
   58DOPE  H11X 7459   7.534   5.880   4.294
   58DOPE  H11Y 7460   7.536   5.707   4.337
   58DOPE  C312 7461   7.730   5.804   4.347
   58DOPE  H12X 7462   7.783   5.891   4.301
   58DOPE  H12Y 7463   7.791   5.714   4.326
   58DOPE  C313 7464   7.722   5.823   4.499
   58DOPE  H13X 7465   7.647   5.753   4.541
   58DOPE  H13Y 7466   7.820   5.795   4.543
   58DOPE  C314 7467   7.690   5.967   4.542
   58DOPE  H14X 7468   7.589   5.995   4.505
   58DOPE  H14Y 7469   7.764   6.035   4.495
   58DOPE  C315 7470   7.696   5.984   4.694
   58DOPE  H15X 7471   7.792   5.944   4.732
   58DOPE  H15Y 7472   7.615   5.923   4.740
   58DOPE  C316 7473   7.680   6.130   4.740
   58DOPE  H16X 7474   7.600   6.179   4.680
   58DOPE  H16Y 7475   7.775   6.183   4.719
   58DOPE  C317 7476   7.644   6.143   4.889
   58DOPE  H17X 7477   7.654   6.250   4.918
   58DOPE  H17Y 7478   7.537   6.116   4.902
   58DOPE  C318 7479   7.729   6.057   4.983
   58DOPE  H18X 7480   7.704   6.079   5.089
   58DOPE  H18Y 7481   7.711   5.949   4.965
   58DOPE  H18Z 7482   7.837   6.078   4.967
   59DOPE     N 7483   7.420   0.945   2.883
   59DOPE   HN1 7484   7.417   0.964   2.985
   59DOPE   HN2 7485   7.347   1.002   2.835
   59DOPE   HN3 7486   7.398   0.843   2.872
   59DOPE   C12 7487   7.560   0.979   2.838
   59DOPE  H12A 7488   7.566   0.965   2.728
   59DOPE  H12B 7489   7.629   0.906   2.885
   59DOPE   C11 7490   7.602   1.124   2.877
   59DOPE  H11A 7491   7.553   1.194   2.806
   59DOPE  H11B 7492   7.712   1.134   2.860
   59DOPE     P 7493   7.594   1.071   3.135
   59DOPE   O13 7494   7.719   0.996   3.111
   59DOPE   O14 7495   7.470   0.991   3.143
   59DOPE   O11 7496   7.609   1.168   3.259
   59DOPE   O12 7497   7.570   1.166   3.010
   59DOPE    C1 7498   7.610   1.310   3.245
   59DOPE    HA 7499   7.526   1.345   3.181
   59DOPE    HB 7500   7.705   1.341   3.197
   59DOPE    C2 7501   7.597   1.383   3.383
   59DOPE    HS 7502   7.626   1.489   3.369
   59DOPE   O21 7503   7.680   1.322   3.483
   59DOPE   C21 7504   7.810   1.338   3.465
   59DOPE   O22 7505   7.861   1.404   3.377
   59DOPE   C22 7506   7.888   1.269   3.578
   59DOPE   H2R 7507   7.990   1.312   3.575
   59DOPE   H2S 7508   7.894   1.161   3.554
   59DOPE    C3 7509   7.450   1.383   3.434
   59DOPE    HX 7510   7.389   1.438   3.360
   59DOPE    HY 7511   7.445   1.441   3.529
   59DOPE   O31 7512   7.396   1.250   3.447
   59DOPE   C31 7513   7.417   1.191   3.564
   59DOPE   O32 7514   7.454   1.247   3.666
   59DOPE   C32 7515   7.379   1.043   3.556
   59DOPE   H2X 7516   7.342   1.014   3.657
   59DOPE   H2Y 7517   7.296   1.032   3.484
   59DOPE   C23 7518   7.827   1.289   3.719
   59DOPE   H3R 7519   7.738   1.224   3.732
   59DOPE   H3S 7520   7.793   1.394   3.731
   59DOPE   C24 7521   7.929   1.260   3.831
   59DOPE   H4R 7522   8.023   1.316   3.809
   59DOPE   H4S 7523   7.955   1.152   3.831
   59DOPE   C25 7524   7.880   1.301   3.971
   59DOPE   H5R 7525   7.784   1.249   3.993
   59DOPE   H5S 7526   7.859   1.410   3.969
   59DOPE   C26 7527   7.982   1.272   4.082
   59DOPE   H6R 7528   8.081   1.309   4.051
   59DOPE   H6S 7529   7.990   1.162   4.096
   59DOPE   C27 7530   7.943   1.339   4.215
   59DOPE   H7R 7531   7.841   1.307   4.245
   59DOPE   H7S 7532   7.937   1.449   4.195
   59DOPE   C28 7533   8.043   1.317   4.331
   59DOPE   H8R 7534   8.018   1.392   4.409
   59DOPE   H8S 7535   8.145   1.341   4.294
   59DOPE   C29 7536   8.036   1.180   4.392
   59DOPE   H9R 7537   7.936   1.133   4.387
   59DOPE  C210 7538   8.136   1.111   4.451
   59DOPE  H10R 7539   8.114   1.011   4.491
   59DOPE  C211 7540   8.279   1.155   4.470
   59DOPE  H11R 7541   8.303   1.244   4.407
   59DOPE  H11S 7542   8.348   1.074   4.436
   59DOPE  C212 7543   8.314   1.191   4.616
   59DOPE  H12R 7544   8.245   1.273   4.648
   59DOPE  H12S 7545   8.417   1.232   4.620
   59DOPE  C213 7546   8.303   1.074   4.714
   59DOPE  H13R 7547   8.384   1.000   4.696
   59DOPE  H13S 7548   8.208   1.021   4.694
   59DOPE  C214 7549   8.306   1.118   4.862
   59DOPE  H14R 7550   8.269   1.222   4.870
   59DOPE  H14S 7551   8.411   1.117   4.898
   59DOPE  C215 7552   8.218   1.029   4.952
   59DOPE  H15R 7553   8.239   1.052   5.059
   59DOPE  H15S 7554   8.245   0.923   4.935
   59DOPE  C216 7555   8.068   1.049   4.925
   59DOPE  H16R 7556   8.050   1.049   4.815
   59DOPE  H16S 7557   8.035   1.149   4.962
   59DOPE  C217 7558   7.978   0.940   4.983
   59DOPE  H17R 7559   7.958   0.961   5.090
   59DOPE  H17S 7560   8.031   0.843   4.977
   59DOPE  C218 7561   7.846   0.929   4.906
   59DOPE  H18R 7562   7.779   0.854   4.954
   59DOPE  H18S 7563   7.865   0.897   4.801
   59DOPE  H18T 7564   7.795   1.027   4.903
   59DOPE   C33 7565   7.496   0.951   3.516
   59DOPE   H3X 7566   7.528   0.976   3.412
   59DOPE   H3Y 7567   7.459   0.846   3.514
   59DOPE   C34 7568   7.618   0.960   3.609
   59DOPE   H4X 7569   7.693   0.885   3.575
   59DOPE   H4Y 7570   7.665   1.060   3.596
   59DOPE   C35 7571   7.589   0.938   3.758
   59DOPE   H5X 7572   7.527   1.022   3.797
   59DOPE   H5Y 7573   7.686   0.941   3.812
   59DOPE   C36 7574   7.520   0.804   3.789
   59DOPE   H6X 7575   7.569   0.724   3.730
   59DOPE   H6Y 7576   7.413   0.808   3.758
   59DOPE   C37 7577   7.529   0.766   3.938
   59DOPE   H7X 7578   7.496   0.660   3.950
   59DOPE   H7Y 7579   7.636   0.771   3.968
   59DOPE   C38 7580   7.445   0.856   4.030
   59DOPE   H8X 7581   7.338   0.843   4.005
   59DOPE   H8Y 7582   7.471   0.962   4.008
   59DOPE   C39 7583   7.469   0.822   4.175
   59DOPE   H9X 7584   7.436   0.722   4.207
   59DOPE  C310 7585   7.529   0.901   4.266
   59DOPE  H10X 7586   7.542   0.865   4.369
   59DOPE  C311 7587   7.583   1.039   4.239
   59DOPE  H11X 7588   7.664   1.034   4.163
   59DOPE  H11Y 7589   7.504   1.104   4.197
   59DOPE  C312 7590   7.639   1.105   4.366
   59DOPE  H12X 7591   7.681   1.204   4.336
   59DOPE  H12Y 7592   7.722   1.045   4.408
   59DOPE  C313 7593   7.532   1.131   4.474
   59DOPE  H13X 7594   7.436   1.152   4.423
   59DOPE  H13Y 7595   7.518   1.041   4.537
   59DOPE  C314 7596   7.566   1.253   4.561
   59DOPE  H14X 7597   7.479   1.276   4.627
   59DOPE  H14Y 7598   7.580   1.340   4.494
   59DOPE  C315 7599   7.693   1.238   4.646
   59DOPE  H15X 7600   7.777   1.209   4.580
   59DOPE  H15Y 7601   7.679   1.158   4.721
   59DOPE  C316 7602   7.728   1.371   4.716
   59DOPE  H16X 7603   7.641   1.404   4.776
   59DOPE  H16Y 7604   7.748   1.448   4.639
   59DOPE  C317 7605   7.851   1.361   4.808
   59DOPE  H17X 7606   7.864   1.459   4.859
   59DOPE  H17Y 7607   7.831   1.285   4.887
   59DOPE  C318 7608   7.980   1.326   4.734
   59DOPE  H18X 7609   7.997   1.397   4.650
   59DOPE  H18Y 7610   8.067   1.330   4.803
   59DOPE  H18Z 7611   7.975   1.224   4.691
   60DOPE     N 7612   0.187   7.527   3.323
   60DOPE   HN1 7613   0.207   7.464   3.243
   60DOPE   HN2 7614   0.257   7.604   3.328
   60DOPE   HN3 7615   0.189   7.470   3.410
   60DOPE   C12 7616   0.049   7.577   3.294
   60DOPE  H12A 7617   0.057   7.654   3.214
   60DOPE  H12B 7618   0.006   7.623   3.385
   60DOPE   C11 7619  -0.034   7.459   3.242
   60DOPE  H11A 7620  -0.126   7.500   3.195
   60DOPE  H11B 7621  -0.064   7.395   3.327
   60DOPE     P 7622  -0.025   7.265   3.068
   60DOPE   O13 7623   0.050   7.141   3.093
   60DOPE   O14 7624  -0.040   7.308   2.927
   60DOPE   O11 7625  -0.165   7.256   3.137
   60DOPE   O12 7626   0.044   7.385   3.148
   60DOPE    C1 7627  -0.284   7.271   3.058
   60DOPE    HA 7628  -0.276   7.218   2.961
   60DOPE    HB 7629  -0.299   7.379   3.036
   60DOPE    C2 7630  -0.410   7.215   3.131
   60DOPE    HS 7631  -0.500   7.262   3.086
   60DOPE   O21 7632  -0.408   7.238   3.273
   60DOPE   C21 7633  -0.382   7.360   3.314
   60DOPE   O22 7634  -0.381   7.462   3.248
   60DOPE   C22 7635  -0.351   7.353   3.464
   60DOPE   H2R 7636  -0.271   7.277   3.479
   60DOPE   H2S 7637  -0.443   7.319   3.516
   60DOPE    C3 7638  -0.419   7.061   3.110
   60DOPE    HX 7639  -0.422   7.040   3.001
   60DOPE    HY 7640  -0.516   7.029   3.154
   60DOPE   O31 7641  -0.305   6.996   3.169
   60DOPE   C31 7642  -0.327   6.887   3.240
   60DOPE   O32 7643  -0.431   6.824   3.241
   60DOPE   C32 7644  -0.200   6.851   3.317
   60DOPE   H2X 7645  -0.151   6.771   3.258
   60DOPE   H2Y 7646  -0.131   6.938   3.319
   60DOPE   C23 7647  -0.306   7.490   3.520
   60DOPE   H3R 7648  -0.381   7.567   3.493
   60DOPE   H3S 7649  -0.210   7.521   3.474
   60DOPE   C24 7650  -0.291   7.492   3.673
   60DOPE   H4R 7651  -0.387   7.458   3.719
   60DOPE   H4S 7652  -0.275   7.597   3.705
   60DOPE   C25 7653  -0.177   7.404   3.725
   60DOPE   H5R 7654  -0.081   7.434   3.677
   60DOPE   H5S 7655  -0.197   7.298   3.697
   60DOPE   C26 7656  -0.162   7.410   3.878
   60DOPE   H6R 7657  -0.094   7.329   3.912
   60DOPE   H6S 7658  -0.261   7.391   3.923
   60DOPE   C27 7659  -0.104   7.544   3.929
   60DOPE   H7R 7660  -0.156   7.629   3.880
   60DOPE   H7S 7661   0.003   7.549   3.899
   60DOPE   C28 7662  -0.115   7.561   4.082
   60DOPE   H8R 7663  -0.060   7.654   4.110
   60DOPE   H8S 7664  -0.064   7.476   4.131
   60DOPE   C29 7665  -0.259   7.573   4.124
   60DOPE   H9R 7666  -0.326   7.615   4.047
   60DOPE  C210 7667  -0.313   7.537   4.241
   60DOPE  H10R 7668  -0.422   7.550   4.255
   60DOPE  C211 7669  -0.242   7.475   4.359
   60DOPE  H11R 7670  -0.131   7.481   4.348
   60DOPE  H11S 7671  -0.268   7.368   4.366
   60DOPE  C212 7672  -0.279   7.541   4.493
   60DOPE  H12R 7673  -0.240   7.645   4.498
   60DOPE  H12S 7674  -0.229   7.483   4.573
   60DOPE  C213 7675  -0.431   7.543   4.522
   60DOPE  H13R 7676  -0.477   7.459   4.466
   60DOPE  H13S 7677  -0.476   7.636   4.482
   60DOPE  C214 7678  -0.466   7.524   4.670
   60DOPE  H14R 7679  -0.417   7.432   4.707
   60DOPE  H14S 7680  -0.575   7.509   4.679
   60DOPE  C215 7681  -0.426   7.642   4.761
   60DOPE  H15R 7682  -0.316   7.658   4.754
   60DOPE  H15S 7683  -0.448   7.612   4.866
   60DOPE  C216 7684  -0.501   7.773   4.731
   60DOPE  H16R 7685  -0.537   7.817   4.827
   60DOPE  H16S 7686  -0.591   7.750   4.670
   60DOPE  C217 7687  -0.416   7.878   4.659
   60DOPE  H17R 7688  -0.483   7.960   4.625
   60DOPE  H17S 7689  -0.371   7.833   4.569
   60DOPE  C218 7690  -0.305   7.939   4.746
   60DOPE  H18R 7691  -0.246   8.013   4.688
   60DOPE  H18S 7692  -0.236   7.861   4.783
   60DOPE  H18T 7693  -0.349   7.991   4.834
   60DOPE   C33 7694  -0.227   6.799   3.461
   60DOPE   H3X 7695  -0.141   6.734   3.488
   60DOPE   H3Y 7696  -0.317   6.734   3.464
   60DOPE   C34 7697  -0.237   6.909   3.569
   60DOPE   H4X 7698  -0.163   6.989   3.546
   60DOPE   H4Y 7699  -0.338   6.954   3.567
   60DOPE   C35 7700  -0.206   6.851   3.708
   60DOPE   H5X 7701  -0.100   6.816   3.707
   60DOPE   H5Y 7702  -0.270   6.762   3.725
   60DOPE   C36 7703  -0.221   6.947   3.827
   60DOPE   H6X 7704  -0.329   6.970   3.841
   60DOPE   H6Y 7705  -0.168   7.042   3.808
   60DOPE   C37 7706  -0.166   6.882   3.956
   60DOPE   H7X 7707  -0.203   6.777   3.959
   60DOPE   H7Y 7708  -0.056   6.878   3.951
   60DOPE   C38 7709  -0.211   6.949   4.087
   60DOPE   H8X 7710  -0.190   6.877   4.169
   60DOPE   H8Y 7711  -0.322   6.959   4.084
   60DOPE   C39 7712  -0.148   7.084   4.114
   60DOPE   H9X 7713  -0.162   7.158   4.035
   60DOPE  C310 7714  -0.080   7.119   4.225
   60DOPE  H10X 7715  -0.038   7.220   4.233
   60DOPE  C311 7716  -0.053   7.030   4.345
   60DOPE  H11X 7717  -0.133   6.954   4.356
   60DOPE  H11Y 7718   0.042   6.975   4.329
   60DOPE  C312 7719  -0.043   7.105   4.479
   60DOPE  H12X 7720  -0.134   7.166   4.498
   60DOPE  H12Y 7721   0.044   7.174   4.476
   60DOPE  C313 7722  -0.024   7.006   4.596
   60DOPE  H13X 7723  -0.119   6.952   4.613
   60DOPE  H13Y 7724   0.052   6.931   4.566
   60DOPE  C314 7725   0.024   7.069   4.728
   60DOPE  H14X 7726   0.124   7.115   4.713
   60DOPE  H14Y 7727   0.036   6.986   4.801
   60DOPE  C315 7728  -0.072   7.173   4.790
   60DOPE  H15X 7729  -0.069   7.160   4.900
   60DOPE  H15Y 7730  -0.176   7.154   4.757
   60DOPE  C316 7731  -0.031   7.318   4.761
   60DOPE  H16X 7732  -0.043   7.340   4.652
   60DOPE  H16Y 7733   0.077   7.330   4.786
   60DOPE  C317 7734  -0.110   7.420   4.843
   60DOPE  H17X 7735  -0.218   7.412   4.818
   60DOPE  H17Y 7736  -0.099   7.394   4.951
   60DOPE  C318 7737  -0.063   7.565   4.824
   60DOPE  H18X 7738   0.043   7.576   4.855
   60DOPE  H18Y 7739  -0.073   7.595   4.718
   60DOPE  H18Z 7740  -0.124   7.634   4.886
   6123SM     N 7741   3.275   4.357   7.730
   6123SM   C15 7742   3.177   4.323   7.621
   6123SM  H15A 7743   3.078   4.307   7.663
   6123SM  H15B 7744   3.207   4.231   7.573
   6123SM  H15C 7745   3.172   4.401   7.547
   6123SM   C14 7746   3.227   4.476   7.806
   6123SM  H14A 7747   3.217   4.563   7.743
   6123SM  H14B 7748   3.296   4.500   7.885
   6123SM  H14C 7749   3.131   4.455   7.851
   6123SM   C13 7750   3.280   4.241   7.825
   6123SM  H13A 7751   3.182   4.214   7.859
   6123SM  H13B 7752   3.341   4.265   7.911
   6123SM  H13C 7753   3.325   4.157   7.775
   6123SM   C12 7754   3.414   4.381   7.672
   6123SM  H12A 7755   3.484   4.388   7.754
   6123SM  H12B 7756   3.417   4.477   7.623
   6123SM   C11 7757   3.470   4.273   7.574
   6123SM  H11A 7758   3.573   4.303   7.545
   6123SM  H11B 7759   3.409   4.275   7.481
   6123SM     P 7760   3.413   4.015   7.569
   6123SM   O13 7761   3.489   3.896   7.611
   6123SM   O14 7762   3.268   4.016   7.598
   6123SM   O11 7763   3.437   4.039   7.415
   6123SM   O12 7764   3.476   4.144   7.635
   6123SM   C1S 7765   3.370   3.957   7.318
   6123SM   H1S 7766   3.270   4.001   7.299
   6123SM   H1T 7767   3.356   3.852   7.353
   6123SM    NF 7768   3.516   4.079   7.168
   6123SM   HNF 7769   3.483   4.148   7.232
   6123SM   C2S 7770   3.448   3.951   7.183
   6123SM   H2S 7771   3.525   3.871   7.190
   6123SM   C3S 7772   3.346   3.916   7.071
   6123SM   H3S 7773   3.257   3.982   7.081
   6123SM    O3 7774   3.299   3.781   7.087
   6123SM   HO3 7775   3.344   3.747   7.165
   6123SM   C4S 7776   3.403   3.928   6.933
   6123SM   H4S 7777   3.465   3.843   6.901
   6123SM   C5S 7778   3.380   4.031   6.848
   6123SM   H5S 7779   3.315   4.113   6.881
   6123SM   C6S 7780   3.432   4.046   6.707
   6123SM   H6S 7781   3.365   4.116   6.653
   6123SM   H6T 7782   3.425   3.949   6.653
   6123SM   C7S 7783   3.577   4.097   6.689
   6123SM   H7S 7784   3.647   4.013   6.708
   6123SM   H7T 7785   3.599   4.177   6.764
   6123SM   C8S 7786   3.604   4.156   6.549
   6123SM   H8S 7787   3.712   4.180   6.539
   6123SM   H8T 7788   3.548   4.251   6.539
   6123SM   C9S 7789   3.562   4.064   6.433
   6123SM   H9S 7790   3.453   4.046   6.439
   6123SM   H9T 7791   3.613   3.965   6.443
   6123SM  C10S 7792   3.592   4.123   6.294
   6123SM  H10S 7793   3.702   4.129   6.279
   6123SM  H10T 7794   3.552   4.226   6.289
   6123SM  C11S 7795   3.529   4.039   6.183
   6123SM  H11S 7796   3.419   4.041   6.195
   6123SM  H11T 7797   3.561   3.933   6.193
   6123SM  C12S 7798   3.563   4.086   6.040
   6123SM  H12S 7799   3.672   4.074   6.022
   6123SM  H12T 7800   3.539   4.194   6.030
   6123SM  C13S 7801   3.483   4.007   5.936
   6123SM  H13S 7802   3.376   4.034   5.946
   6123SM  H13T 7803   3.492   3.899   5.959
   6123SM  C14S 7804   3.526   4.028   5.790
   6123SM  H14S 7805   3.605   3.954   5.765
   6123SM  H14T 7806   3.571   4.130   5.778
   6123SM  C15S 7807   3.409   4.015   5.692
   6123SM  H15S 7808   3.351   4.110   5.691
   6123SM  H15T 7809   3.340   3.936   5.726
   6123SM  C16S 7810   3.453   3.981   5.548
   6123SM  H16S 7811   3.505   3.883   5.549
   6123SM  H16T 7812   3.524   4.058   5.512
   6123SM  C17S 7813   3.333   3.973   5.452
   6123SM  H17S 7814   3.286   4.073   5.446
   6123SM  H17T 7815   3.258   3.903   5.494
   6123SM  C18S 7816   3.371   3.927   5.311
   6123SM  H18S 7817   3.449   3.993   5.267
   6123SM  H18T 7818   3.282   3.928   5.244
   6123SM  H18U 7819   3.411   3.823   5.313
   6123SM   C1F 7820   3.631   4.098   7.103
   6123SM    OF 7821   3.692   4.003   7.054
   6123SM   C2F 7822   3.688   4.237   7.099
   6123SM   H2F 7823   3.711   4.263   6.993
   6123SM   H2G 7824   3.784   4.235   7.154
   6123SM   C3F 7825   3.600   4.349   7.162
   6123SM   H3F 7826   3.663   4.441   7.163
   6123SM   H3G 7827   3.579   4.325   7.269
   6123SM   C4F 7828   3.469   4.386   7.089
   6123SM   H4F 7829   3.429   4.478   7.135
   6123SM   H4G 7830   3.393   4.306   7.104
   6123SM   C5F 7831   3.485   4.410   6.938
   6123SM   H5F 7832   3.514   4.314   6.891
   6123SM   H5G 7833   3.567   4.483   6.921
   6123SM   C6F 7834   3.357   4.461   6.871
   6123SM   H6F 7835   3.338   4.566   6.903
   6123SM   H6G 7836   3.271   4.399   6.904
   6123SM   C7F 7837   3.364   4.456   6.717
   6123SM   H7F 7838   3.379   4.350   6.686
   6123SM   H7G 7839   3.452   4.514   6.682
   6123SM   C8F 7840   3.237   4.511   6.651
   6123SM   H8F 7841   3.230   4.619   6.677
   6123SM   H8G 7842   3.148   4.459   6.692
   6123SM   C9F 7843   3.236   4.498   6.497
   6123SM   H9F 7844   3.334   4.533   6.457
   6123SM   H9G 7845   3.159   4.567   6.457
   6123SM  C10F 7846   3.205   4.356   6.448
   6123SM  H10F 7847   3.107   4.325   6.489
   6123SM  H10G 7848   3.282   4.286   6.487
   6123SM  C11F 7849   3.202   4.344   6.295
   6123SM  H11F 7850   3.301   4.372   6.255
   6123SM  H11G 7851   3.127   4.416   6.253
   6123SM  C12F 7852   3.167   4.202   6.249
   6123SM  H12F 7853   3.062   4.178   6.276
   6123SM  H12G 7854   3.232   4.132   6.306
   6123SM  C13F 7855   3.190   4.177   6.099
   6123SM  H13F 7856   3.195   4.067   6.084
   6123SM  H13G 7857   3.289   4.218   6.070
   6123SM  C14F 7858   3.081   4.231   6.007
   6123SM  H14F 7859   3.074   4.342   6.015
   6123SM  H14G 7860   2.983   4.188   6.039
   6123SM  C15F 7861   3.106   4.192   5.860
   6123SM  H15F 7862   3.133   4.084   5.857
   6123SM  H15G 7863   3.193   4.248   5.820
   6123SM  C16F 7864   2.984   4.214   5.769
   6123SM  H16F 7865   2.967   4.323   5.754
   6123SM  H16G 7866   2.895   4.173   5.821
   6123SM  C17F 7867   2.997   4.143   5.633
   6123SM  H17F 7868   3.022   4.036   5.652
   6123SM  H17G 7869   3.081   4.187   5.575
   6123SM  C18F 7870   2.867   4.150   5.551
   6123SM  H18F 7871   2.856   4.251   5.506
   6123SM  H18G 7872   2.782   4.135   5.620
   6123SM  C19F 7873   2.856   4.041   5.442
   6123SM  H19F 7874   2.755   4.045   5.397
   6123SM  H19G 7875   2.866   3.941   5.491
   6123SM  C20F 7876   2.960   4.050   5.329
   6123SM  H20F 7877   2.947   3.961   5.264
   6123SM  H20G 7878   3.062   4.046   5.371
   6123SM  C21F 7879   2.945   4.175   5.241
   6123SM  H21F 7880   2.973   4.265   5.301
   6123SM  H21G 7881   2.839   4.186   5.211
   6123SM  C22F 7882   3.032   4.169   5.115
   6123SM  H22F 7883   3.003   4.079   5.056
   6123SM  H22G 7884   3.138   4.156   5.146
   6123SM  C23F 7885   3.021   4.293   5.026
   6123SM  H23F 7886   3.085   4.282   4.936
   6123SM  H23G 7887   3.053   4.384   5.081
   6123SM  H23H 7888   2.916   4.308   4.993
   6223SM     N 7889   3.466   3.344   7.712
   6223SM   C15 7890   3.386   3.231   7.657
   6223SM  H15A 7891   3.284   3.231   7.692
   6223SM  H15B 7892   3.430   3.134   7.678
   6223SM  H15C 7893   3.378   3.241   7.549
   6223SM   C14 7894   3.467   3.335   7.862
   6223SM  H14A 7895   3.519   3.246   7.895
   6223SM  H14B 7896   3.367   3.332   7.901
   6223SM  H14C 7897   3.517   3.421   7.906
   6223SM   C13 7898   3.606   3.332   7.660
   6223SM  H13A 7899   3.671   3.407   7.701
   6223SM  H13B 7900   3.606   3.342   7.552
   6223SM  H13C 7901   3.648   3.235   7.681
   6223SM   C12 7902   3.405   3.477   7.667
   6223SM  H12A 7903   3.464   3.558   7.709
   6223SM  H12B 7904   3.306   3.486   7.708
   6223SM   C11 7905   3.392   3.503   7.514
   6223SM  H11A 7906   3.491   3.491   7.466
   6223SM  H11B 7907   3.363   3.609   7.498
   6223SM     P 7908   3.143   3.431   7.471
   6223SM   O13 7909   3.092   3.309   7.537
   6223SM   O14 7910   3.115   3.561   7.537
   6223SM   O11 7911   3.090   3.435   7.321
   6223SM   O12 7912   3.299   3.414   7.452
   6223SM   C1S 7913   3.127   3.321   7.241
   6223SM   H1S 7914   3.083   3.228   7.284
   6223SM   H1T 7915   3.237   3.307   7.238
   6223SM    NF 7916   3.161   3.418   7.015
   6223SM   HNF 7917   3.122   3.506   6.987
   6223SM   C2S 7918   3.077   3.328   7.092
   6223SM   H2S 7919   3.088   3.227   7.049
   6223SM   C3S 7920   2.926   3.367   7.084
   6223SM   H3S 7921   2.912   3.466   7.131
   6223SM    O3 7922   2.838   3.277   7.153
   6223SM   HO3 7923   2.894   3.225   7.211
   6223SM   C4S 7924   2.888   3.378   6.939
   6223SM   H4S 7925   2.867   3.481   6.905
   6223SM   C5S 7926   2.875   3.277   6.849
   6223SM   H5S 7927   2.890   3.173   6.881
   6223SM   C6S 7928   2.838   3.298   6.705
   6223SM   H6S 7929   2.818   3.406   6.684
   6223SM   H6T 7930   2.744   3.245   6.680
   6223SM   C7S 7931   2.949   3.251   6.608
   6223SM   H7S 7932   2.958   3.141   6.612
   6223SM   H7T 7933   3.047   3.296   6.638
   6223SM   C8S 7934   2.917   3.295   6.465
   6223SM   H8S 7935   2.917   3.407   6.463
   6223SM   H8T 7936   2.815   3.261   6.441
   6223SM   C9S 7937   3.011   3.246   6.354
   6223SM   H9S 7938   3.010   3.135   6.350
   6223SM   H9T 7939   3.115   3.279   6.376
   6223SM  C10S 7940   2.968   3.304   6.218
   6223SM  H10S 7941   2.964   3.414   6.227
   6223SM  H10T 7942   2.865   3.269   6.194
   6223SM  C11S 7943   3.060   3.268   6.101
   6223SM  H11S 7944   3.058   3.159   6.082
   6223SM  H11T 7945   3.164   3.296   6.128
   6223SM  C12S 7946   3.021   3.343   5.972
   6223SM  H12S 7947   3.013   3.451   5.997
   6223SM  H12T 7948   2.922   3.310   5.937
   6223SM  C13S 7949   3.124   3.328   5.860
   6223SM  H13S 7950   3.127   3.223   5.823
   6223SM  H13T 7951   3.224   3.350   5.902
   6223SM  C14S 7952   3.100   3.424   5.742
   6223SM  H14S 7953   3.198   3.446   5.694
   6223SM  H14T 7954   3.060   3.520   5.781
   6223SM  C15S 7955   3.007   3.368   5.634
   6223SM  H15S 7956   2.917   3.324   5.682
   6223SM  H15T 7957   3.060   3.287   5.580
   6223SM  C16S 7958   2.960   3.474   5.533
   6223SM  H16S 7959   2.891   3.544   5.584
   6223SM  H16T 7960   2.903   3.424   5.452
   6223SM  C17S 7961   3.072   3.559   5.471
   6223SM  H17S 7962   3.148   3.491   5.427
   6223SM  H17T 7963   3.122   3.618   5.551
   6223SM  C18S 7964   3.021   3.656   5.363
   6223SM  H18S 7965   2.973   3.600   5.280
   6223SM  H18T 7966   3.105   3.715   5.321
   6223SM  H18U 7967   2.946   3.726   5.406
   6223SM   C1F 7968   3.286   3.387   6.978
   6223SM    OF 7969   3.338   3.283   7.015
   6223SM   C2F 7970   3.356   3.482   6.885
   6223SM   H2F 7971   3.419   3.423   6.817
   6223SM   H2G 7972   3.421   3.549   6.945
   6223SM   C3F 7973   3.257   3.568   6.802
   6223SM   H3F 7974   3.201   3.637   6.868
   6223SM   H3G 7975   3.183   3.501   6.752
   6223SM   C4F 7976   3.325   3.652   6.693
   6223SM   H4F 7977   3.374   3.586   6.619
   6223SM   H4G 7978   3.404   3.714   6.740
   6223SM   C5F 7979   3.226   3.747   6.621
   6223SM   H5F 7980   3.283   3.815   6.554
   6223SM   H5G 7981   3.175   3.809   6.697
   6223SM   C6F 7982   3.118   3.676   6.537
   6223SM   H6F 7983   3.048   3.753   6.499
   6223SM   H6G 7984   3.058   3.610   6.603
   6223SM   C7F 7985   3.173   3.595   6.419
   6223SM   H7F 7986   3.089   3.537   6.375
   6223SM   H7G 7987   3.248   3.521   6.455
   6223SM   C8F 7988   3.234   3.681   6.307
   6223SM   H8F 7989   3.315   3.745   6.348
   6223SM   H8G 7990   3.156   3.748   6.267
   6223SM   C9F 7991   3.292   3.596   6.193
   6223SM   H9F 7992   3.216   3.522   6.161
   6223SM   H9G 7993   3.380   3.540   6.231
   6223SM  C10F 7994   3.332   3.680   6.071
   6223SM  H10F 7995   3.395   3.765   6.104
   6223SM  H10G 7996   3.240   3.722   6.026
   6223SM  C11F 7997   3.408   3.598   5.966
   6223SM  H11F 7998   3.371   3.493   5.968
   6223SM  H11G 7999   3.516   3.596   5.992
   6223SM  C12F 8000   3.388   3.651   5.823
   6223SM  H12F 8001   3.418   3.758   5.818
   6223SM  H12G 8002   3.279   3.646   5.799
   6223SM  C13F 8003   3.466   3.574   5.716
   6223SM  H13F 8004   3.423   3.599   5.617
   6223SM  H13G 8005   3.453   3.465   5.732
   6223SM  C14F 8006   3.616   3.609   5.714
   6223SM  H14F 8007   3.655   3.593   5.817
   6223SM  H14G 8008   3.630   3.716   5.690
   6223SM  C15F 8009   3.700   3.522   5.620
   6223SM  H15F 8010   3.659   3.419   5.616
   6223SM  H15G 8011   3.802   3.515   5.663
   6223SM  C16F 8012   3.719   3.577   5.477
   6223SM  H16F 8013   3.791   3.510   5.424
   6223SM  H16G 8014   3.767   3.677   5.484
   6223SM  C17F 8015   3.592   3.588   5.391
   6223SM  H17F 8016   3.622   3.625   5.290
   6223SM  H17G 8017   3.524   3.664   5.435
   6223SM  C18F 8018   3.516   3.456   5.374
   6223SM  H18F 8019   3.475   3.424   5.473
   6223SM  H18G 8020   3.587   3.377   5.341
   6223SM  C19F 8021   3.401   3.467   5.274
   6223SM  H19F 8022   3.442   3.491   5.173
   6223SM  H19G 8023   3.336   3.553   5.304
   6223SM  C20F 8024   3.315   3.340   5.266
   6223SM  H20F 8025   3.276   3.318   5.368
   6223SM  H20G 8026   3.378   3.255   5.235
   6223SM  C21F 8027   3.196   3.355   5.170
   6223SM  H21F 8028   3.233   3.352   5.065
   6223SM  H21G 8029   3.150   3.456   5.185
   6223SM  C22F 8030   3.087   3.249   5.190
   6223SM  H22F 8031   3.006   3.268   5.116
   6223SM  H22G 8032   3.043   3.264   5.291
   6223SM  C23F 8033   3.136   3.105   5.177
   6223SM  H23F 8034   3.181   3.089   5.077
   6223SM  H23G 8035   3.051   3.034   5.189
   6223SM  H23H 8036   3.212   3.081   5.254
   6323SM     N 8037   4.697   4.915   7.724
   6323SM   C15 8038   4.595   4.876   7.621
   6323SM  H15A 8039   4.554   4.777   7.639
   6323SM  H15B 8040   4.639   4.878   7.523
   6323SM  H15C 8041   4.513   4.946   7.619
   6323SM   C14 8042   4.634   4.893   7.858
   6323SM  H14A 8043   4.605   4.789   7.867
   6323SM  H14B 8044   4.545   4.953   7.870
   6323SM  H14C 8045   4.703   4.916   7.939
   6323SM   C13 8046   4.816   4.827   7.707
   6323SM  H13A 8047   4.789   4.723   7.718
   6323SM  H13B 8048   4.895   4.852   7.777
   6323SM  H13C 8049   4.855   4.838   7.607
   6323SM   C12 8050   4.733   5.062   7.706
   6323SM  H12A 8051   4.790   5.096   7.792
   6323SM  H12B 8052   4.641   5.118   7.704
   6323SM   C11 8053   4.811   5.105   7.578
   6323SM  H11A 8054   4.906   5.048   7.572
   6323SM  H11B 8055   4.839   5.212   7.586
   6323SM     P 8056   4.607   5.171   7.432
   6323SM   O13 8057   4.519   5.170   7.551
   6323SM   O14 8058   4.649   5.304   7.381
   6323SM   O11 8059   4.540   5.091   7.314
   6323SM   O12 8060   4.735   5.082   7.460
   6323SM   C1S 8061   4.619   5.076   7.195
   6323SM   H1S 8062   4.710   5.016   7.215
   6323SM   H1T 8063   4.652   5.175   7.155
   6323SM    NF 8064   4.625   5.008   6.961
   6323SM   HNF 8065   4.594   5.061   6.882
   6323SM   C2S 8066   4.541   5.008   7.079
   6323SM   H2S 8067   4.520   4.903   7.108
   6323SM   C3S 8068   4.405   5.082   7.057
   6323SM   H3S 8069   4.426   5.191   7.050
   6323SM    O3 8070   4.313   5.065   7.165
   6323SM   HO3 8071   4.370   5.054   7.241
   6323SM   C4S 8072   4.345   5.033   6.929
   6323SM   H4S 8073   4.315   4.927   6.928
   6323SM   C5S 8074   4.324   5.110   6.820
   6323SM   H5S 8075   4.347   5.217   6.824
   6323SM   C6S 8076   4.266   5.063   6.689
   6323SM   H6S 8077   4.175   5.121   6.664
   6323SM   H6T 8078   4.237   4.955   6.693
   6323SM   C7S 8079   4.370   5.083   6.578
   6323SM   H7S 8080   4.465   5.031   6.603
   6323SM   H7T 8081   4.392   5.191   6.567
   6323SM   C8S 8082   4.323   5.030   6.441
   6323SM   H8S 8083   4.224   5.075   6.418
   6323SM   H8T 8084   4.310   4.920   6.447
   6323SM   C9S 8085   4.422   5.064   6.329
   6323SM   H9S 8086   4.523   5.029   6.357
   6323SM   H9T 8087   4.427   5.175   6.318
   6323SM  C10S 8088   4.383   5.002   6.194
   6323SM  H10S 8089   4.279   5.030   6.169
   6323SM  H10T 8090   4.387   4.891   6.204
   6323SM  C11S 8091   4.475   5.047   6.080
   6323SM  H11S 8092   4.581   5.022   6.106
   6323SM  H11T 8093   4.469   5.157   6.070
   6323SM  C12S 8094   4.440   4.982   5.946
   6323SM  H12S 8095   4.331   4.997   5.927
   6323SM  H12T 8096   4.458   4.872   5.954
   6323SM  C13S 8097   4.520   5.037   5.828
   6323SM  H13S 8098   4.628   5.017   5.844
   6323SM  H13T 8099   4.506   5.147   5.823
   6323SM  C14S 8100   4.475   4.976   5.694
   6323SM  H14S 8101   4.368   5.000   5.678
   6323SM  H14T 8102   4.485   4.865   5.700
   6323SM  C15S 8103   4.558   5.025   5.575
   6323SM  H15S 8104   4.663   4.989   5.587
   6323SM  H15T 8105   4.561   5.136   5.575
   6323SM  C16S 8106   4.504   4.977   5.439
   6323SM  H16S 8107   4.493   4.866   5.440
   6323SM  H16T 8108   4.580   5.001   5.361
   6323SM  C17S 8109   4.371   5.043   5.399
   6323SM  H17S 8110   4.382   5.153   5.410
   6323SM  H17T 8111   4.292   5.011   5.470
   6323SM  C18S 8112   4.326   5.011   5.257
   6323SM  H18S 8113   4.405   5.041   5.184
   6323SM  H18T 8114   4.233   5.066   5.232
   6323SM  H18U 8115   4.307   4.902   5.244
   6323SM   C1F 8116   4.739   4.939   6.950
   6323SM    OF 8117   4.773   4.860   7.037
   6323SM   C2F 8118   4.820   4.959   6.826
   6323SM   H2F 8119   4.804   4.872   6.758
   6323SM   H2G 8120   4.927   4.962   6.854
   6323SM   C3F 8121   4.789   5.090   6.749
   6323SM   H3F 8122   4.809   5.177   6.814
   6323SM   H3G 8123   4.682   5.093   6.717
   6323SM   C4F 8124   4.875   5.102   6.623
   6323SM   H4F 8125   4.849   5.019   6.554
   6323SM   H4G 8126   4.983   5.090   6.649
   6323SM   C5F 8127   4.857   5.237   6.551
   6323SM   H5F 8128   4.909   5.316   6.609
   6323SM   H5G 8129   4.750   5.263   6.548
   6323SM   C6F 8130   4.910   5.236   6.407
   6323SM   H6F 8131   5.018   5.209   6.404
   6323SM   H6G 8132   4.902   5.340   6.367
   6323SM   C7F 8133   4.830   5.143   6.314
   6323SM   H7F 8134   4.726   5.135   6.352
   6323SM   H7G 8135   4.876   5.042   6.319
   6323SM   C8F 8136   4.825   5.190   6.168
   6323SM   H8F 8137   4.791   5.105   6.105
   6323SM   H8G 8138   4.926   5.219   6.134
   6323SM   C9F 8139   4.727   5.307   6.147
   6323SM   H9F 8140   4.767   5.398   6.198
   6323SM   H9G 8141   4.629   5.283   6.194
   6323SM  C10F 8142   4.706   5.338   5.999
   6323SM  H10F 8143   4.665   5.249   5.947
   6323SM  H10G 8144   4.805   5.360   5.954
   6323SM  C11F 8145   4.613   5.459   5.974
   6323SM  H11F 8146   4.651   5.544   6.035
   6323SM  H11G 8147   4.510   5.436   6.009
   6323SM  C12F 8148   4.611   5.498   5.826
   6323SM  H12F 8149   4.540   5.432   5.772
   6323SM  H12G 8150   4.712   5.478   5.784
   6323SM  C13F 8151   4.579   5.647   5.800
   6323SM  H13F 8152   4.641   5.706   5.871
   6323SM  H13G 8153   4.472   5.668   5.823
   6323SM  C14F 8154   4.615   5.693   5.657
   6323SM  H14F 8155   4.701   5.634   5.620
   6323SM  H14G 8156   4.649   5.799   5.663
   6323SM  C15F 8157   4.499   5.689   5.555
   6323SM  H15F 8158   4.538   5.716   5.455
   6323SM  H15G 8159   4.424   5.766   5.584
   6323SM  C16F 8160   4.425   5.554   5.545
   6323SM  H16F 8161   4.339   5.563   5.477
   6323SM  H16G 8162   4.385   5.530   5.646
   6323SM  C17F 8163   4.513   5.436   5.498
   6323SM  H17F 8164   4.466   5.341   5.532
   6323SM  H17G 8165   4.614   5.442   5.544
   6323SM  C18F 8166   4.527   5.429   5.346
   6323SM  H18F 8167   4.562   5.527   5.307
   6323SM  H18G 8168   4.428   5.407   5.301
   6323SM  C19F 8169   4.627   5.320   5.301
   6323SM  H19F 8170   4.606   5.226   5.355
   6323SM  H19G 8171   4.729   5.353   5.330
   6323SM  C20F 8172   4.622   5.294   5.150
   6323SM  H20F 8173   4.608   5.391   5.097
   6323SM  H20G 8174   4.535   5.230   5.127
   6323SM  C21F 8175   4.751   5.230   5.095
   6323SM  H21F 8176   4.835   5.301   5.111
   6323SM  H21G 8177   4.739   5.216   4.986
   6323SM  C22F 8178   4.787   5.095   5.157
   6323SM  H22F 8179   4.704   5.023   5.139
   6323SM  H22G 8180   4.797   5.106   5.267
   6323SM  C23F 8181   4.917   5.038   5.099
   6323SM  H23F 8182   4.906   5.019   4.990
   6323SM  H23G 8183   4.944   4.943   5.150
   6323SM  H23H 8184   5.000   5.110   5.114
   6423SM     N 8185   5.481   3.861   7.794
   6423SM   C15 8186   5.388   3.743   7.793
   6423SM  H15A 8187   5.304   3.763   7.728
   6423SM  H15B 8188   5.352   3.719   7.892
   6423SM  H15C 8189   5.436   3.655   7.753
   6423SM   C14 8190   5.409   3.980   7.849
   6423SM  H14A 8191   5.325   4.002   7.785
   6423SM  H14B 8192   5.476   4.065   7.850
   6423SM  H14C 8193   5.374   3.960   7.949
   6423SM   C13 8194   5.597   3.827   7.883
   6423SM  H13A 8195   5.565   3.800   7.982
   6423SM  H13B 8196   5.665   3.911   7.892
   6423SM  H13C 8197   5.653   3.743   7.846
   6423SM   C12 8198   5.531   3.891   7.654
   6423SM  H12A 8199   5.569   3.800   7.610
   6423SM  H12B 8200   5.615   3.959   7.660
   6423SM   C11 8201   5.432   3.952   7.550
   6423SM  H11A 8202   5.487   3.969   7.454
   6423SM  H11B 8203   5.399   4.052   7.584
   6423SM     P 8204   5.328   3.731   7.456
   6423SM   O13 8205   5.471   3.697   7.434
   6423SM   O14 8206   5.247   3.636   7.535
   6423SM   O11 8207   5.261   3.754   7.315
   6423SM   O12 8208   5.317   3.871   7.528
   6423SM   C1S 8209   5.236   3.883   7.258
   6423SM   H1S 8210   5.314   3.956   7.287
   6423SM   H1T 8211   5.138   3.921   7.292
   6423SM    NF 8212   5.220   4.006   7.042
   6423SM   HNF 8213   5.129   4.031   7.011
   6423SM   C2S 8214   5.236   3.875   7.102
   6423SM   H2S 8215   5.335   3.835   7.072
   6423SM   C3S 8216   5.126   3.777   7.051
   6423SM   H3S 8217   5.026   3.821   7.073
   6423SM    O3 8218   5.126   3.648   7.112
   6423SM   HO3 8219   5.181   3.660   7.190
   6423SM   C4S 8220   5.145   3.763   6.903
   6423SM   H4S 8221   5.238   3.710   6.877
   6423SM   C5S 8222   5.063   3.805   6.806
   6423SM   H5S 8223   4.968   3.855   6.832
   6423SM   C6S 8224   5.089   3.790   6.658
   6423SM   H6S 8225   5.056   3.883   6.608
   6423SM   H6T 8226   5.028   3.707   6.616
   6423SM   C7S 8227   5.238   3.767   6.621
   6423SM   H7S 8228   5.272   3.672   6.666
   6423SM   H7T 8229   5.299   3.849   6.664
   6423SM   C8S 8230   5.266   3.760   6.470
   6423SM   H8S 8231   5.212   3.673   6.428
   6423SM   H8T 8232   5.374   3.743   6.456
   6423SM   C9S 8233   5.226   3.887   6.393
   6423SM   H9S 8234   5.273   3.976   6.441
   6423SM   H9T 8235   5.116   3.900   6.398
   6423SM  C10S 8236   5.269   3.881   6.246
   6423SM  H10S 8237   5.226   3.790   6.200
   6423SM  H10T 8238   5.380   3.872   6.240
   6423SM  C11S 8239   5.223   4.003   6.165
   6423SM  H11S 8240   5.269   4.096   6.206
   6423SM  H11T 8241   5.113   4.014   6.175
   6423SM  C12S 8242   5.258   3.990   6.017
   6423SM  H12S 8243   5.239   3.885   5.985
   6423SM  H12T 8244   5.367   4.010   6.003
   6423SM  C13S 8245   5.177   4.083   5.927
   6423SM  H13S 8246   5.196   4.189   5.953
   6423SM  H13T 8247   5.069   4.063   5.944
   6423SM  C14S 8248   5.208   4.059   5.778
   6423SM  H14S 8249   5.199   3.950   5.758
   6423SM  H14T 8250   5.313   4.089   5.758
   6423SM  C15S 8251   5.114   4.136   5.685
   6423SM  H15S 8252   5.122   4.245   5.707
   6423SM  H15T 8253   5.010   4.106   5.708
   6423SM  C16S 8254   5.143   4.113   5.536
   6423SM  H16S 8255   5.241   4.158   5.511
   6423SM  H16T 8256   5.065   4.167   5.477
   6423SM  C17S 8257   5.145   3.966   5.492
   6423SM  H17S 8258   5.055   3.915   5.532
   6423SM  H17T 8259   5.234   3.916   5.536
   6423SM  C18S 8260   5.148   3.948   5.339
   6423SM  H18S 8261   5.054   3.987   5.294
   6423SM  H18T 8262   5.158   3.841   5.312
   6423SM  H18U 8263   5.234   4.004   5.295
   6423SM   C1F 8264   5.315   4.099   7.031
   6423SM    OF 8265   5.414   4.098   7.102
   6423SM   C2F 8266   5.288   4.208   6.931
   6423SM   H2F 8267   5.241   4.293   6.985
   6423SM   H2G 8268   5.214   4.170   6.858
   6423SM   C3F 8269   5.414   4.255   6.855
   6423SM   H3F 8270   5.492   4.289   6.926
   6423SM   H3G 8271   5.386   4.342   6.792
   6423SM   C4F 8272   5.475   4.147   6.763
   6423SM   H4F 8273   5.395   4.101   6.702
   6423SM   H4G 8274   5.520   4.067   6.825
   6423SM   C5F 8275   5.582   4.206   6.669
   6423SM   H5F 8276   5.653   4.267   6.730
   6423SM   H5G 8277   5.533   4.275   6.598
   6423SM   C6F 8278   5.663   4.102   6.591
   6423SM   H6F 8279   5.722   4.040   6.662
   6423SM   H6G 8280   5.736   4.156   6.526
   6423SM   C7F 8281   5.578   4.008   6.503
   6423SM   H7F 8282   5.512   4.068   6.437
   6423SM   H7G 8283   5.512   3.948   6.569
   6423SM   C8F 8284   5.662   3.910   6.419
   6423SM   H8F 8285   5.596   3.829   6.381
   6423SM   H8G 8286   5.737   3.863   6.485
   6423SM   C9F 8287   5.734   3.973   6.298
   6423SM   H9F 8288   5.807   3.900   6.258
   6423SM   H9G 8289   5.791   4.062   6.331
   6423SM  C10F 8290   5.639   4.013   6.184
   6423SM  H10F 8291   5.564   4.085   6.225
   6423SM  H10G 8292   5.583   3.923   6.150
   6423SM  C11F 8293   5.709   4.080   6.066
   6423SM  H11F 8294   5.781   4.155   6.107
   6423SM  H11G 8295   5.634   4.137   6.006
   6423SM  C12F 8296   5.785   3.986   5.971
   6423SM  H12F 8297   5.817   3.893   6.024
   6423SM  H12G 8298   5.877   4.038   5.938
   6423SM  C13F 8299   5.707   3.950   5.842
   6423SM  H13F 8300   5.778   3.909   5.767
   6423SM  H13G 8301   5.664   4.043   5.799
   6423SM  C14F 8302   5.595   3.847   5.864
   6423SM  H14F 8303   5.531   3.882   5.947
   6423SM  H14G 8304   5.640   3.750   5.895
   6423SM  C15F 8305   5.506   3.826   5.740
   6423SM  H15F 8306   5.468   3.925   5.706
   6423SM  H15G 8307   5.418   3.766   5.771
   6423SM  C16F 8308   5.575   3.754   5.623
   6423SM  H16F 8309   5.617   3.658   5.660
   6423SM  H16G 8310   5.659   3.816   5.586
   6423SM  C17F 8311   5.477   3.726   5.509
   6423SM  H17F 8312   5.440   3.821   5.466
   6423SM  H17G 8313   5.389   3.673   5.552
   6423SM  C18F 8314   5.536   3.637   5.397
   6423SM  H18F 8315   5.453   3.603   5.332
   6423SM  H18G 8316   5.580   3.547   5.444
   6423SM  C19F 8317   5.641   3.706   5.309
   6423SM  H19F 8318   5.681   3.630   5.239
   6423SM  H19G 8319   5.725   3.743   5.370
   6423SM  C20F 8320   5.584   3.822   5.225
   6423SM  H20F 8321   5.563   3.909   5.291
   6423SM  H20G 8322   5.488   3.791   5.180
   6423SM  C21F 8323   5.679   3.865   5.113
   6423SM  H21F 8324   5.697   3.778   5.045
   6423SM  H21G 8325   5.778   3.893   5.156
   6423SM  C22F 8326   5.625   3.981   5.029
   6423SM  H22F 8327   5.615   4.071   5.094
   6423SM  H22G 8328   5.523   3.955   4.993
   6423SM  C23F 8329   5.713   4.016   4.909
   6423SM  H23F 8330   5.816   4.041   4.942
   6423SM  H23G 8331   5.672   4.102   4.853
   6423SM  H23H 8332   5.719   3.929   4.839
   6523SM     N 8333   5.380   4.500   7.811
   6523SM   C15 8334   5.259   4.545   7.737
   6523SM  H15A 8335   5.171   4.488   7.764
   6523SM  H15B 8336   5.275   4.530   7.632
   6523SM  H15C 8337   5.241   4.651   7.750
   6523SM   C14 8338   5.363   4.522   7.958
   6523SM  H14A 8339   5.276   4.470   7.995
   6523SM  H14B 8340   5.352   4.627   7.980
   6523SM  H14C 8341   5.450   4.486   8.011
   6523SM   C13 8342   5.397   4.353   7.784
   6523SM  H13A 8343   5.485   4.314   7.833
   6523SM  H13B 8344   5.411   4.339   7.678
   6523SM  H13C 8345   5.309   4.298   7.813
   6523SM   C12 8346   5.504   4.574   7.762
   6523SM  H12A 8347   5.583   4.563   7.835
   6523SM  H12B 8348   5.481   4.680   7.755
   6523SM   C11 8349   5.561   4.534   7.624
   6523SM  H11A 8350   5.599   4.430   7.628
   6523SM  H11B 8351   5.649   4.597   7.600
   6523SM     P 8352   5.425   4.682   7.457
   6523SM   O13 8353   5.303   4.659   7.378
   6523SM   O14 8354   5.422   4.784   7.564
   6523SM   O11 8355   5.553   4.698   7.364
   6523SM   O12 8356   5.460   4.542   7.523
   6523SM   C1S 8357   5.584   4.821   7.297
   6523SM   H1S 8358   5.688   4.850   7.322
   6523SM   H1T 8359   5.520   4.906   7.331
   6523SM    NF 8360   5.433   4.789   7.107
   6523SM   HNF 8361   5.402   4.695   7.098
   6523SM   C2S 8362   5.572   4.809   7.142
   6523SM   H2S 8363   5.606   4.904   7.096
   6523SM   C3S 8364   5.664   4.695   7.089
   6523SM   H3S 8365   5.636   4.599   7.137
   6523SM    O3 8366   5.803   4.712   7.121
   6523SM   HO3 8367   5.803   4.780   7.189
   6523SM   C4S 8368   5.645   4.679   6.939
   6523SM   H4S 8369   5.563   4.609   6.916
   6523SM   C5S 8370   5.711   4.738   6.837
   6523SM   H5S 8371   5.792   4.808   6.858
   6523SM   C6S 8372   5.683   4.716   6.690
   6523SM   H6S 8373   5.775   4.679   6.639
   6523SM   H6T 8374   5.660   4.813   6.642
   6523SM   C7S 8375   5.568   4.619   6.654
   6523SM   H7S 8376   5.477   4.652   6.708
   6523SM   H7T 8377   5.593   4.516   6.687
   6523SM   C8S 8378   5.533   4.618   6.504
   6523SM   H8S 8379   5.522   4.723   6.469
   6523SM   H8T 8380   5.435   4.568   6.491
   6523SM   C9S 8381   5.633   4.545   6.413
   6523SM   H9S 8382   5.635   4.437   6.440
   6523SM   H9T 8383   5.735   4.587   6.427
   6523SM  C10S 8384   5.595   4.559   6.264
   6523SM  H10S 8385   5.610   4.666   6.235
   6523SM  H10T 8386   5.487   4.536   6.250
   6523SM  C11S 8387   5.677   4.470   6.171
   6523SM  H11S 8388   5.650   4.363   6.187
   6523SM  H11T 8389   5.785   4.480   6.197
   6523SM  C12S 8390   5.659   4.505   6.022
   6523SM  H12S 8391   5.673   4.614   6.009
   6523SM  H12T 8392   5.555   4.480   5.991
   6523SM  C13S 8393   5.759   4.432   5.931
   6523SM  H13S 8394   5.752   4.322   5.949
   6523SM  H13T 8395   5.862   4.463   5.960
   6523SM  C14S 8396   5.741   4.457   5.781
   6523SM  H14S 8397   5.823   4.405   5.727
   6523SM  H14T 8398   5.750   4.565   5.758
   6523SM  C15S 8399   5.607   4.404   5.725
   6523SM  H15S 8400   5.527   4.477   5.747
   6523SM  H15T 8401   5.582   4.309   5.778
   6523SM  C16S 8402   5.611   4.374   5.574
   6523SM  H16S 8403   5.512   4.335   5.543
   6523SM  H16T 8404   5.685   4.294   5.555
   6523SM  C17S 8405   5.646   4.495   5.486
   6523SM  H17S 8406   5.746   4.535   5.516
   6523SM  H17T 8407   5.572   4.576   5.504
   6523SM  C18S 8408   5.650   4.461   5.337
   6523SM  H18S 8409   5.728   4.385   5.316
   6523SM  H18T 8410   5.671   4.551   5.276
   6523SM  H18U 8411   5.552   4.419   5.304
   6523SM   C1F 8412   5.344   4.887   7.123
   6523SM    OF 8413   5.380   5.002   7.147
   6523SM   C2F 8414   5.200   4.845   7.122
   6523SM   H2F 8415   5.146   4.909   7.195
   6523SM   H2G 8416   5.193   4.740   7.157
   6523SM   C3F 8417   5.135   4.859   6.983
   6523SM   H3F 8418   5.139   4.965   6.950
   6523SM   H3G 8419   5.028   4.832   6.996
   6523SM   C4F 8420   5.194   4.769   6.873
   6523SM   H4F 8421   5.212   4.667   6.914
   6523SM   H4G 8422   5.292   4.810   6.840
   6523SM   C5F 8423   5.099   4.757   6.752
   6523SM   H5F 8424   5.074   4.859   6.716
   6523SM   H5G 8425   5.005   4.710   6.787
   6523SM   C6F 8426   5.155   4.673   6.636
   6523SM   H6F 8427   5.074   4.609   6.595
   6523SM   H6G 8428   5.235   4.606   6.674
   6523SM   C7F 8429   5.210   4.757   6.519
   6523SM   H7F 8430   5.259   4.688   6.446
   6523SM   H7G 8431   5.289   4.825   6.558
   6523SM   C8F 8432   5.106   4.840   6.441
   6523SM   H8F 8433   5.158   4.894   6.359
   6523SM   H8G 8434   5.063   4.917   6.508
   6523SM   C9F 8435   4.991   4.759   6.378
   6523SM   H9F 8436   4.923   4.830   6.326
   6523SM   H9G 8437   4.931   4.709   6.458
   6523SM  C10F 8438   5.037   4.654   6.275
   6523SM  H10F 8439   5.090   4.571   6.327
   6523SM  H10G 8440   5.108   4.703   6.206
   6523SM  C11F 8441   4.920   4.596   6.193
   6523SM  H11F 8442   4.871   4.679   6.138
   6523SM  H11G 8443   4.845   4.553   6.263
   6523SM  C12F 8444   4.961   4.486   6.094
   6523SM  H12F 8445   4.872   4.457   6.034
   6523SM  H12G 8446   4.991   4.396   6.152
   6523SM  C13F 8447   5.076   4.521   5.998
   6523SM  H13F 8448   5.100   4.433   5.935
   6523SM  H13G 8449   5.167   4.543   6.059
   6523SM  C14F 8450   5.048   4.641   5.906
   6523SM  H14F 8451   5.005   4.724   5.967
   6523SM  H14G 8452   4.972   4.613   5.830
   6523SM  C15F 8453   5.175   4.696   5.838
   6523SM  H15F 8454   5.251   4.715   5.917
   6523SM  H15G 8455   5.151   4.794   5.791
   6523SM  C16F 8456   5.237   4.606   5.731
   6523SM  H16F 8457   5.239   4.500   5.765
   6523SM  H16G 8458   5.342   4.638   5.715
   6523SM  C17F 8459   5.165   4.615   5.595
   6523SM  H17F 8460   5.163   4.722   5.564
   6523SM  H17G 8461   5.060   4.581   5.606
   6523SM  C18F 8462   5.234   4.534   5.485
   6523SM  H18F 8463   5.229   4.426   5.512
   6523SM  H18G 8464   5.342   4.562   5.480
   6523SM  C19F 8465   5.171   4.557   5.347
   6523SM  H19F 8466   5.182   4.665   5.322
   6523SM  H19G 8467   5.063   4.534   5.353
   6523SM  C20F 8468   5.235   4.474   5.233
   6523SM  H20F 8469   5.345   4.487   5.239
   6523SM  H20G 8470   5.202   4.515   5.135
   6523SM  C21F 8471   5.200   4.325   5.239
   6523SM  H21F 8472   5.211   4.291   5.344
   6523SM  H21G 8473   5.273   4.266   5.179
   6523SM  C22F 8474   5.058   4.292   5.189
   6523SM  H22F 8475   4.988   4.374   5.217
   6523SM  H22G 8476   5.022   4.201   5.243
   6523SM  C23F 8477   5.049   4.265   5.039
   6523SM  H23F 8478   5.088   4.352   4.981
   6523SM  H23G 8479   4.943   4.247   5.008
   6523SM  H23H 8480   5.109   4.176   5.012
   6623SM     N 8481   4.195   1.953   7.789
   6623SM   C15 8482   4.226   2.088   7.732
   6623SM  H15A 8483   4.319   2.087   7.676
   6623SM  H15B 8484   4.233   2.164   7.808
   6623SM  H15C 8485   4.147   2.117   7.664
   6623SM   C14 8486   4.297   1.917   7.893
   6623SM  H14A 8487   4.397   1.922   7.851
   6623SM  H14B 8488   4.279   1.817   7.929
   6623SM  H14C 8489   4.292   1.986   7.976
   6623SM   C13 8490   4.060   1.960   7.853
   6623SM  H13A 8491   3.986   1.978   7.776
   6623SM  H13B 8492   4.054   2.042   7.923
   6623SM  H13C 8493   4.035   1.868   7.903
   6623SM   C12 8494   4.196   1.848   7.678
   6623SM  H12A 8495   4.159   1.755   7.719
   6623SM  H12B 8496   4.298   1.827   7.648
   6623SM   C11 8497   4.118   1.880   7.548
   6623SM  H11A 8498   4.127   1.792   7.482
   6623SM  H11B 8499   4.173   1.963   7.497
   6623SM     P 8500   3.908   2.041   7.524
   6623SM   O13 8501   3.776   2.001   7.473
   6623SM   O14 8502   3.912   2.138   7.637
   6623SM   O11 8503   4.000   2.093   7.407
   6623SM   O12 8504   3.980   1.908   7.571
   6623SM   C1S 8505   3.999   2.026   7.280
   6623SM   H1S 8506   3.901   1.978   7.257
   6623SM   H1T 8507   4.075   1.945   7.279
   6623SM    NF 8508   3.913   2.135   7.078
   6623SM   HNF 8509   3.911   2.080   6.994
   6623SM   C2S 8510   4.030   2.125   7.164
   6623SM   H2S 8511   4.051   2.225   7.207
   6623SM   C3S 8512   4.156   2.078   7.087
   6623SM   H3S 8513   4.140   1.973   7.053
   6623SM    O3 8514   4.276   2.078   7.164
   6623SM   HO3 8515   4.250   2.103   7.253
   6623SM   C4S 8516   4.176   2.166   6.967
   6623SM   H4S 8517   4.184   2.273   6.991
   6623SM   C5S 8518   4.184   2.125   6.839
   6623SM   H5S 8519   4.179   2.017   6.816
   6623SM   C6S 8520   4.202   2.216   6.721
   6623SM   H6S 8521   4.306   2.254   6.715
   6623SM   H6T 8522   4.135   2.304   6.729
   6623SM   C7S 8523   4.169   2.142   6.589
   6623SM   H7S 8524   4.067   2.099   6.596
   6623SM   H7T 8525   4.239   2.057   6.575
   6623SM   C8S 8526   4.176   2.231   6.464
   6623SM   H8S 8527   4.279   2.272   6.453
   6623SM   H8T 8528   4.106   2.316   6.476
   6623SM   C9S 8529   4.139   2.152   6.338
   6623SM   H9S 8530   4.044   2.099   6.358
   6623SM   H9T 8531   4.217   2.075   6.319
   6623SM  C10S 8532   4.121   2.238   6.213
   6623SM  H10S 8533   4.219   2.282   6.183
   6623SM  H10T 8534   4.052   2.322   6.235
   6623SM  C11S 8535   4.064   2.157   6.096
   6623SM  H11S 8536   3.963   2.119   6.125
   6623SM  H11T 8537   4.129   2.068   6.078
   6623SM  C12S 8538   4.050   2.236   5.966
   6623SM  H12S 8539   4.151   2.267   5.932
   6623SM  H12T 8540   3.990   2.328   5.984
   6623SM  C13S 8541   3.983   2.154   5.854
   6623SM  H13S 8542   3.878   2.131   5.883
   6623SM  H13T 8543   4.037   2.057   5.844
   6623SM  C14S 8544   3.985   2.225   5.719
   6623SM  H14S 8545   4.091   2.246   5.691
   6623SM  H14T 8546   3.933   2.323   5.727
   6623SM  C15S 8547   3.921   2.142   5.607
   6623SM  H15S 8548   3.811   2.136   5.623
   6623SM  H15T 8549   3.961   2.039   5.613
   6623SM  C16S 8550   3.951   2.197   5.466
   6623SM  H16S 8551   3.915   2.123   5.391
   6623SM  H16T 8552   4.061   2.206   5.454
   6623SM  C17S 8553   3.885   2.332   5.436
   6623SM  H17S 8554   3.913   2.405   5.515
   6623SM  H17T 8555   3.775   2.319   5.439
   6623SM  C18S 8556   3.926   2.389   5.300
   6623SM  H18S 8557   3.873   2.484   5.280
   6623SM  H18T 8558   3.902   2.316   5.219
   6623SM  H18U 8559   4.035   2.409   5.298
   6623SM   C1F 8560   3.808   2.210   7.111
   6623SM    OF 8561   3.814   2.289   7.204
   6623SM   C2F 8562   3.685   2.194   7.027
   6623SM   H2F 8563   3.599   2.174   7.093
   6623SM   H2G 8564   3.698   2.107   6.959
   6623SM   C3F 8565   3.656   2.322   6.944
   6623SM   H3F 8566   3.625   2.402   7.014
   6623SM   H3G 8567   3.568   2.300   6.879
   6623SM   C4F 8568   3.772   2.375   6.857
   6623SM   H4F 8569   3.851   2.414   6.924
   6623SM   H4G 8570   3.733   2.460   6.798
   6623SM   C5F 8571   3.835   2.273   6.761
   6623SM   H5F 8572   3.887   2.193   6.819
   6623SM   H5G 8573   3.913   2.326   6.702
   6623SM   C6F 8574   3.736   2.207   6.664
   6623SM   H6F 8575   3.679   2.286   6.610
   6623SM   H6G 8576   3.664   2.145   6.721
   6623SM   C7F 8577   3.809   2.119   6.561
   6623SM   H7F 8578   3.867   2.041   6.616
   6623SM   H7G 8579   3.880   2.182   6.503
   6623SM   C8F 8580   3.713   2.049   6.465
   6623SM   H8F 8581   3.650   2.125   6.415
   6623SM   H8G 8582   3.648   1.982   6.525
   6623SM   C9F 8583   3.781   1.962   6.359
   6623SM   H9F 8584   3.844   1.885   6.408
   6623SM   H9G 8585   3.846   2.025   6.295
   6623SM  C10F 8586   3.675   1.893   6.272
   6623SM  H10F 8587   3.619   1.973   6.218
   6623SM  H10G 8588   3.603   1.840   6.338
   6623SM  C11F 8589   3.729   1.793   6.169
   6623SM  H11F 8590   3.642   1.745   6.119
   6623SM  H11G 8591   3.786   1.714   6.222
   6623SM  C12F 8592   3.816   1.858   6.061
   6623SM  H12F 8593   3.914   1.887   6.106
   6623SM  H12G 8594   3.767   1.951   6.024
   6623SM  C13F 8595   3.841   1.765   5.941
   6623SM  H13F 8596   3.912   1.817   5.873
   6623SM  H13G 8597   3.746   1.750   5.886
   6623SM  C14F 8598   3.897   1.629   5.982
   6623SM  H14F 8599   3.820   1.574   6.041
   6623SM  H14G 8600   3.984   1.645   6.050
   6623SM  C15F 8601   3.940   1.539   5.865
   6623SM  H15F 8602   3.850   1.510   5.807
   6623SM  H15G 8603   3.983   1.445   5.907
   6623SM  C16F 8604   4.042   1.601   5.769
   6623SM  H16F 8605   3.996   1.689   5.720
   6623SM  H16G 8606   4.065   1.528   5.689
   6623SM  C17F 8607   4.174   1.645   5.835
   6623SM  H17F 8608   4.235   1.555   5.858
   6623SM  H17G 8609   4.153   1.697   5.931
   6623SM  C18F 8610   4.255   1.742   5.748
   6623SM  H18F 8611   4.346   1.775   5.803
   6623SM  H18G 8612   4.192   1.833   5.731
   6623SM  C19F 8613   4.296   1.683   5.613
   6623SM  H19F 8614   4.207   1.645   5.559
   6623SM  H19G 8615   4.363   1.596   5.631
   6623SM  C20F 8616   4.368   1.785   5.523
   6623SM  H20F 8617   4.401   1.733   5.430
   6623SM  H20G 8618   4.459   1.819   5.576
   6623SM  C21F 8619   4.285   1.909   5.485
   6623SM  H21F 8620   4.345   1.970   5.415
   6623SM  H21G 8621   4.269   1.971   5.576
   6623SM  C22F 8622   4.149   1.879   5.420
   6623SM  H22F 8623   4.105   1.976   5.387
   6623SM  H22G 8624   4.081   1.836   5.497
   6623SM  C23F 8625   4.154   1.784   5.300
   6623SM  H23F 8626   4.056   1.779   5.250
   6623SM  H23G 8627   4.183   1.682   5.332
   6623SM  H23H 8628   4.230   1.819   5.226
   6723SM     N 8629   3.335   5.934   7.831
   6723SM   C15 8630   3.305   6.076   7.798
   6723SM  H15A 8631   3.382   6.140   7.839
   6723SM  H15B 8632   3.209   6.107   7.838
   6723SM  H15C 8633   3.302   6.090   7.691
   6723SM   C14 8634   3.464   5.897   7.765
   6723SM  H14A 8635   3.452   5.899   7.657
   6723SM  H14B 8636   3.493   5.796   7.791
   6723SM  H14C 8637   3.545   5.963   7.792
   6723SM   C13 8638   3.353   5.920   7.979
   6723SM  H13A 8639   3.427   5.990   8.013
   6723SM  H13B 8640   3.386   5.821   8.004
   6723SM  H13C 8641   3.261   5.941   8.033
   6723SM   C12 8642   3.225   5.840   7.780
   6723SM  H12A 8643   3.138   5.850   7.843
   6723SM  H12B 8644   3.259   5.739   7.793
   6723SM   C11 8645   3.179   5.855   7.633
   6723SM  H11A 8646   3.129   5.954   7.621
   6723SM  H11B 8647   3.101   5.779   7.613
   6723SM     P 8648   3.307   5.727   7.440
   6723SM   O13 8649   3.421   5.757   7.353
   6723SM   O14 8650   3.311   5.598   7.514
   6723SM   O11 8651   3.173   5.734   7.356
   6723SM   O12 8652   3.289   5.848   7.542
   6723SM   C1S 8653   3.127   5.857   7.299
   6723SM   H1S 8654   3.165   5.947   7.352
   6723SM   H1T 8655   3.016   5.862   7.307
   6723SM    NF 8656   3.133   6.004   7.099
   6723SM   HNF 8657   3.053   6.014   7.041
   6723SM   C2S 8658   3.164   5.870   7.148
   6723SM   H2S 8659   3.273   5.853   7.137
   6723SM   C3S 8660   3.087   5.759   7.071
   6723SM   H3S 8661   2.978   5.771   7.090
   6723SM    O3 8662   3.121   5.627   7.112
   6723SM   HO3 8663   3.160   5.639   7.199
   6723SM   C4S 8664   3.113   5.768   6.923
   6723SM   H4S 8665   3.214   5.737   6.893
   6723SM   C5S 8666   3.024   5.809   6.831
   6723SM   H5S 8667   2.923   5.839   6.863
   6723SM   C6S 8668   3.048   5.818   6.682
   6723SM   H6S 8669   3.082   5.920   6.656
   6723SM   H6T 8670   2.951   5.803   6.629
   6723SM   C7S 8671   3.149   5.717   6.624
   6723SM   H7S 8672   3.107   5.614   6.633
   6723SM   H7T 8673   3.244   5.720   6.681
   6723SM   C8S 8674   3.185   5.744   6.476
   6723SM   H8S 8675   3.258   5.667   6.443
   6723SM   H8T 8676   3.236   5.842   6.471
   6723SM   C9S 8677   3.066   5.745   6.379
   6723SM   H9S 8678   2.992   5.820   6.414
   6723SM   H9T 8679   3.017   5.646   6.377
   6723SM  C10S 8680   3.108   5.787   6.237
   6723SM  H10S 8681   3.169   5.880   6.244
   6723SM  H10T 8682   3.018   5.811   6.177
   6723SM  C11S 8683   3.189   5.681   6.162
   6723SM  H11S 8684   3.130   5.588   6.154
   6723SM  H11T 8685   3.282   5.658   6.220
   6723SM  C12S 8686   3.231   5.726   6.021
   6723SM  H12S 8687   3.291   5.819   6.027
   6723SM  H12T 8688   3.140   5.748   5.960
   6723SM  C13S 8689   3.313   5.616   5.953
   6723SM  H13S 8690   3.250   5.525   5.944
   6723SM  H13T 8691   3.399   5.592   6.019
   6723SM  C14S 8692   3.369   5.651   5.814
   6723SM  H14S 8693   3.444   5.573   5.789
   6723SM  H14T 8694   3.421   5.749   5.816
   6723SM  C15S 8695   3.263   5.650   5.703
   6723SM  H15S 8696   3.203   5.743   5.708
   6723SM  H15T 8697   3.193   5.565   5.720
   6723SM  C16S 8698   3.326   5.634   5.564
   6723SM  H16S 8699   3.382   5.538   5.562
   6723SM  H16T 8700   3.398   5.716   5.547
   6723SM  C17S 8701   3.222   5.632   5.452
   6723SM  H17S 8702   3.174   5.732   5.449
   6723SM  H17T 8703   3.143   5.558   5.476
   6723SM  C18S 8704   3.280   5.601   5.314
   6723SM  H18S 8705   3.357   5.675   5.286
   6723SM  H18T 8706   3.201   5.602   5.236
   6723SM  H18U 8707   3.327   5.500   5.314
   6723SM   C1F 8708   3.205   6.112   7.129
   6723SM    OF 8709   3.298   6.110   7.209
   6723SM   C2F 8710   3.163   6.240   7.064
   6723SM   H2F 8711   3.177   6.322   7.139
   6723SM   H2G 8712   3.056   6.235   7.038
   6723SM   C3F 8713   3.245   6.272   6.938
   6723SM   H3F 8714   3.354   6.269   6.960
   6723SM   H3G 8715   3.221   6.376   6.906
   6723SM   C4F 8716   3.215   6.181   6.817
   6723SM   H4F 8717   3.106   6.183   6.796
   6723SM   H4G 8718   3.244   6.077   6.839
   6723SM   C5F 8719   3.290   6.230   6.693
   6723SM   H5F 8720   3.399   6.222   6.712
   6723SM   H5G 8721   3.268   6.337   6.675
   6723SM   C6F 8722   3.255   6.151   6.566
   6723SM   H6F 8723   3.147   6.163   6.544
   6723SM   H6G 8724   3.275   6.043   6.583
   6723SM   C7F 8725   3.338   6.198   6.445
   6723SM   H7F 8726   3.446   6.183   6.469
   6723SM   H7G 8727   3.323   6.307   6.430
   6723SM   C8F 8728   3.306   6.124   6.315
   6723SM   H8F 8729   3.316   6.014   6.331
   6723SM   H8G 8730   3.381   6.151   6.238
   6723SM   C9F 8731   3.167   6.156   6.258
   6723SM   H9F 8732   3.145   6.264   6.271
   6723SM   H9G 8733   3.090   6.099   6.315
   6723SM  C10F 8734   3.156   6.122   6.108
   6723SM  H10F 8735   3.209   6.026   6.089
   6723SM  H10G 8736   3.209   6.200   6.050
   6723SM  C11F 8737   3.011   6.107   6.060
   6723SM  H11F 8738   2.956   6.202   6.077
   6723SM  H11G 8739   2.962   6.028   6.120
   6723SM  C12F 8740   3.002   6.068   5.911
   6723SM  H12F 8741   2.900   6.030   5.890
   6723SM  H12G 8742   3.073   5.986   5.890
   6723SM  C13F 8743   3.029   6.187   5.818
   6723SM  H13F 8744   3.125   6.235   5.847
   6723SM  H13G 8745   2.948   6.262   5.833
   6723SM  C14F 8746   3.036   6.150   5.669
   6723SM  H14F 8747   3.040   6.245   5.612
   6723SM  H14G 8748   2.943   6.097   5.637
   6723SM  C15F 8749   3.159   6.066   5.632
   6723SM  H15F 8750   3.134   5.958   5.634
   6723SM  H15G 8751   3.239   6.083   5.708
   6723SM  C16F 8752   3.216   6.104   5.494
   6723SM  H16F 8753   3.243   6.212   5.497
   6723SM  H16G 8754   3.136   6.091   5.418
   6723SM  C17F 8755   3.339   6.023   5.452
   6723SM  H17F 8756   3.308   5.919   5.429
   6723SM  H17G 8757   3.410   6.018   5.538
   6723SM  C18F 8758   3.414   6.083   5.331
   6723SM  H18F 8759   3.501   6.020   5.306
   6723SM  H18G 8760   3.452   6.183   5.360
   6723SM  C19F 8761   3.327   6.102   5.206
   6723SM  H19F 8762   3.381   6.165   5.132
   6723SM  H19G 8763   3.235   6.158   5.234
   6723SM  C20F 8764   3.287   5.971   5.137
   6723SM  H20F 8765   3.293   5.887   5.210
   6723SM  H20G 8766   3.359   5.949   5.055
   6723SM  C21F 8767   3.144   5.972   5.081
   6723SM  H21F 8768   3.072   5.979   5.165
   6723SM  H21G 8769   3.124   5.876   5.029
   6723SM  C22F 8770   3.116   6.087   4.982
   6723SM  H22F 8771   3.186   6.079   4.897
   6723SM  H22G 8772   3.135   6.185   5.032
   6723SM  C23F 8773   2.972   6.086   4.930
   6723SM  H23F 8774   2.958   6.165   4.853
   6723SM  H23G 8775   2.900   6.103   5.012
   6723SM  H23H 8776   2.950   5.988   4.883
   6823SM     N 8777   3.428   1.512   7.715
   6823SM   C15 8778   3.340   1.576   7.819
   6823SM  H15A 8779   3.280   1.503   7.870
   6823SM  H15B 8780   3.272   1.645   7.771
   6823SM  H15C 8781   3.398   1.631   7.892
   6823SM   C14 8782   3.513   1.407   7.778
   6823SM  H14A 8783   3.579   1.362   7.705
   6823SM  H14B 8784   3.453   1.329   7.822
   6823SM  H14C 8785   3.575   1.449   7.856
   6823SM   C13 8786   3.339   1.448   7.612
   6823SM  H13A 8787   3.292   1.525   7.554
   6823SM  H13B 8788   3.259   1.392   7.659
   6823SM  H13C 8789   3.394   1.383   7.546
   6823SM   C12 8790   3.515   1.618   7.648
   6823SM  H12A 8791   3.568   1.572   7.566
   6823SM  H12B 8792   3.591   1.648   7.719
   6823SM   C11 8793   3.447   1.748   7.596
   6823SM  H11A 8794   3.525   1.811   7.550
   6823SM  H11B 8795   3.409   1.804   7.684
   6823SM     P 8796   3.199   1.779   7.518
   6823SM   O13 8797   3.133   1.695   7.620
   6823SM   O14 8798   3.204   1.925   7.541
   6823SM   O11 8799   3.130   1.753   7.379
   6823SM   O12 8800   3.346   1.722   7.497
   6823SM   C1S 8801   3.136   1.625   7.316
   6823SM   H1S 8802   3.086   1.549   7.380
   6823SM   H1T 8803   3.241   1.594   7.298
   6823SM    NF 8804   3.066   1.497   7.116
   6823SM   HNF 8805   3.114   1.489   7.029
   6823SM   C2S 8806   3.065   1.629   7.177
   6823SM   H2S 8807   2.959   1.659   7.193
   6823SM   C3S 8808   3.133   1.736   7.086
   6823SM   H3S 8809   3.240   1.710   7.077
   6823SM    O3 8810   3.128   1.870   7.137
   6823SM   HO3 8811   3.108   1.858   7.230
   6823SM   C4S 8812   3.073   1.730   6.948
   6823SM   H4S 8813   3.136   1.675   6.876
   6823SM   C5S 8814   2.960   1.788   6.903
   6823SM   H5S 8815   2.904   1.852   6.973
   6823SM   C6S 8816   2.906   1.780   6.762
   6823SM   H6S 8817   2.894   1.883   6.723
   6823SM   H6T 8818   2.805   1.734   6.763
   6823SM   C7S 8819   2.989   1.702   6.656
   6823SM   H7S 8820   2.990   1.594   6.683
   6823SM   H7T 8821   3.094   1.739   6.656
   6823SM   C8S 8822   2.931   1.720   6.515
   6823SM   H8S 8823   2.944   1.827   6.485
   6823SM   H8T 8824   2.822   1.699   6.518
   6823SM   C9S 8825   2.995   1.630   6.408
   6823SM   H9S 8826   2.976   1.524   6.436
   6823SM   H9T 8827   3.105   1.645   6.407
   6823SM  C10S 8828   2.938   1.657   6.268
   6823SM  H10S 8829   2.983   1.751   6.229
   6823SM  H10T 8830   2.828   1.673   6.276
   6823SM  C11S 8831   2.962   1.544   6.168
   6823SM  H11S 8832   2.897   1.457   6.192
   6823SM  H11T 8833   3.067   1.509   6.176
   6823SM  C12S 8834   2.934   1.584   6.022
   6823SM  H12S 8835   3.006   1.664   5.994
   6823SM  H12T 8836   2.832   1.628   6.014
   6823SM  C13S 8837   2.946   1.467   5.924
   6823SM  H13S 8838   2.862   1.395   5.942
   6823SM  H13T 8839   3.041   1.413   5.943
   6823SM  C14S 8840   2.943   1.513   5.778
   6823SM  H14S 8841   3.023   1.589   5.765
   6823SM  H14T 8842   2.846   1.563   5.757
   6823SM  C15S 8843   2.967   1.400   5.677
   6823SM  H15S 8844   2.886   1.325   5.685
   6823SM  H15T 8845   3.063   1.350   5.702
   6823SM  C16S 8846   2.975   1.453   5.533
   6823SM  H16S 8847   3.053   1.532   5.528
   6823SM  H16T 8848   2.878   1.500   5.507
   6823SM  C17S 8849   3.008   1.344   5.431
   6823SM  H17S 8850   2.928   1.267   5.434
   6823SM  H17T 8851   3.103   1.295   5.461
   6823SM  C18S 8852   3.022   1.398   5.288
   6823SM  H18S 8853   3.044   1.316   5.217
   6823SM  H18T 8854   3.104   1.473   5.283
   6823SM  H18U 8855   2.928   1.448   5.256
   6823SM   C1F 8856   3.005   1.388   7.163
   6823SM    OF 8857   2.941   1.389   7.267
   6823SM   C2F 8858   3.013   1.267   7.076
   6823SM   H2F 8859   3.019   1.297   6.969
   6823SM   H2G 8860   2.918   1.210   7.089
   6823SM   C3F 8861   3.131   1.173   7.111
   6823SM   H3F 8862   3.132   1.090   7.037
   6823SM   H3G 8863   3.112   1.128   7.211
   6823SM   C4F 8864   3.271   1.238   7.113
   6823SM   H4F 8865   3.346   1.161   7.142
   6823SM   H4G 8866   3.273   1.315   7.194
   6823SM   C5F 8867   3.317   1.303   6.982
   6823SM   H5F 8868   3.242   1.379   6.950
   6823SM   H5G 8869   3.323   1.227   6.901
   6823SM   C6F 8870   3.453   1.372   6.999
   6823SM   H6F 8871   3.534   1.296   6.994
   6823SM   H6G 8872   3.456   1.416   7.100
   6823SM   C7F 8873   3.481   1.486   6.899
   6823SM   H7F 8874   3.573   1.539   6.933
   6823SM   H7G 8875   3.398   1.560   6.903
   6823SM   C8F 8876   3.503   1.442   6.754
   6823SM   H8F 8877   3.406   1.408   6.712
   6823SM   H8G 8878   3.573   1.356   6.751
   6823SM   C9F 8879   3.560   1.557   6.669
   6823SM   H9F 8880   3.659   1.585   6.711
   6823SM   H9G 8881   3.493   1.646   6.679
   6823SM  C10F 8882   3.577   1.525   6.520
   6823SM  H10F 8883   3.633   1.430   6.508
   6823SM  H10G 8884   3.637   1.606   6.473
   6823SM  C11F 8885   3.444   1.515   6.444
   6823SM  H11F 8886   3.383   1.605   6.467
   6823SM  H11G 8887   3.387   1.426   6.480
   6823SM  C12F 8888   3.462   1.505   6.292
   6823SM  H12F 8889   3.522   1.416   6.266
   6823SM  H12G 8890   3.517   1.595   6.256
   6823SM  C13F 8891   3.326   1.498   6.221
   6823SM  H13F 8892   3.264   1.583   6.255
   6823SM  H13G 8893   3.274   1.405   6.254
   6823SM  C14F 8894   3.331   1.500   6.068
   6823SM  H14F 8895   3.227   1.486   6.030
   6823SM  H14G 8896   3.391   1.415   6.029
   6823SM  C15F 8897   3.382   1.633   6.011
   6823SM  H15F 8898   3.492   1.630   5.998
   6823SM  H15G 8899   3.360   1.712   6.086
   6823SM  C16F 8900   3.313   1.676   5.880
   6823SM  H16F 8901   3.334   1.784   5.865
   6823SM  H16G 8902   3.203   1.665   5.891
   6823SM  C17F 8903   3.360   1.602   5.754
   6823SM  H17F 8904   3.324   1.497   5.757
   6823SM  H17G 8905   3.471   1.601   5.752
   6823SM  C18F 8906   3.311   1.671   5.627
   6823SM  H18F 8907   3.347   1.776   5.627
   6823SM  H18G 8908   3.200   1.675   5.628
   6823SM  C19F 8909   3.357   1.602   5.498
   6823SM  H19F 8910   3.315   1.499   5.496
   6823SM  H19G 8911   3.468   1.593   5.498
   6823SM  C20F 8912   3.314   1.676   5.370
   6823SM  H20F 8913   3.205   1.696   5.374
   6823SM  H20G 8914   3.332   1.609   5.283
   6823SM  C21F 8915   3.390   1.808   5.347
   6823SM  H21F 8916   3.498   1.786   5.337
   6823SM  H21G 8917   3.377   1.874   5.435
   6823SM  C22F 8918   3.344   1.886   5.222
   6823SM  H22F 8919   3.405   1.979   5.215
   6823SM  H22G 8920   3.239   1.919   5.237
   6823SM  C23F 8921   3.355   1.809   5.090
   6823SM  H23F 8922   3.327   1.874   5.004
   6823SM  H23G 8923   3.288   1.721   5.090
   6823SM  H23H 8924   3.459   1.774   5.075
   6923SM     N 8925   5.395   2.103   7.867
   6923SM   C15 8926   5.251   2.097   7.825
   6923SM  H15A 8927   5.187   2.145   7.898
   6923SM  H15B 8928   5.218   1.995   7.813
   6923SM  H15C 8929   5.238   2.145   7.730
   6923SM   C14 8930   5.433   2.246   7.885
   6923SM  H14A 8931   5.422   2.301   7.792
   6923SM  H14B 8932   5.535   2.257   7.919
   6923SM  H14C 8933   5.370   2.295   7.959
   6923SM   C13 8934   5.409   2.033   7.999
   6923SM  H13A 8935   5.341   2.075   8.071
   6923SM  H13B 8936   5.508   2.047   8.040
   6923SM  H13C 8937   5.389   1.928   7.990
   6923SM   C12 8938   5.484   2.037   7.762
   6923SM  H12A 8939   5.443   1.940   7.738
   6923SM  H12B 8940   5.582   2.022   7.805
   6923SM   C11 8941   5.502   2.112   7.628
   6923SM  H11A 8942   5.575   2.057   7.565
   6923SM  H11B 8943   5.548   2.211   7.647
   6923SM     P 8944   5.321   2.008   7.476
   6923SM   O13 8945   5.353   1.882   7.547
   6923SM   O14 8946   5.178   2.035   7.445
   6923SM   O11 8947   5.407   2.023   7.345
   6923SM   O12 8948   5.376   2.130   7.562
   6923SM   C1S 8949   5.421   2.153   7.285
   6923SM   H1S 8950   5.525   2.188   7.301
   6923SM   H1T 8951   5.354   2.230   7.327
   6923SM    NF 8952   5.252   2.148   7.105
   6923SM   HNF 8953   5.204   2.060   7.108
   6923SM   C2S 8954   5.395   2.148   7.131
   6923SM   H2S 8955   5.438   2.240   7.086
   6923SM   C3S 8956   5.470   2.025   7.072
   6923SM   H3S 8957   5.439   1.931   7.121
   6923SM    O3 8958   5.612   2.037   7.086
   6923SM   HO3 8959   5.625   2.121   7.131
   6923SM   C4S 8960   5.439   2.018   6.925
   6923SM   H4S 8961   5.471   2.105   6.867
   6923SM   C5S 8962   5.376   1.917   6.861
   6923SM   H5S 8963   5.343   1.828   6.917
   6923SM   C6S 8964   5.347   1.920   6.714
   6923SM   H6S 8965   5.320   2.023   6.682
   6923SM   H6T 8966   5.259   1.856   6.690
   6923SM   C7S 8967   5.465   1.876   6.625
   6923SM   H7S 8968   5.493   1.771   6.648
   6923SM   H7T 8969   5.553   1.941   6.646
   6923SM   C8S 8970   5.429   1.889   6.476
   6923SM   H8S 8971   5.398   1.994   6.456
   6923SM   H8T 8972   5.341   1.825   6.455
   6923SM   C9S 8973   5.544   1.854   6.382
   6923SM   H9S 8974   5.580   1.751   6.401
   6923SM   H9T 8975   5.628   1.924   6.402
   6923SM  C10S 8976   5.504   1.868   6.234
   6923SM  H10S 8977   5.596   1.871   6.172
   6923SM  H10T 8978   5.450   1.964   6.220
   6923SM  C11S 8979   5.417   1.752   6.184
   6923SM  H11S 8980   5.338   1.730   6.260
   6923SM  H11T 8981   5.480   1.661   6.175
   6923SM  C12S 8982   5.347   1.780   6.051
   6923SM  H12S 8983   5.275   1.864   6.064
   6923SM  H12T 8984   5.288   1.690   6.021
   6923SM  C13S 8985   5.444   1.816   5.938
   6923SM  H13S 8986   5.521   1.736   5.930
   6923SM  H13T 8987   5.497   1.910   5.963
   6923SM  C14S 8988   5.375   1.833   5.802
   6923SM  H14S 8989   5.298   1.913   5.811
   6923SM  H14T 8990   5.323   1.739   5.775
   6923SM  C15S 8991   5.474   1.870   5.691
   6923SM  H15S 8992   5.548   1.788   5.678
   6923SM  H15T 8993   5.530   1.961   5.722
   6923SM  C16S 8994   5.404   1.897   5.558
   6923SM  H16S 8995   5.335   1.983   5.570
   6923SM  H16T 8996   5.343   1.809   5.528
   6923SM  C17S 8997   5.503   1.930   5.445
   6923SM  H17S 8998   5.568   1.841   5.428
   6923SM  H17T 8999   5.568   2.013   5.478
   6923SM  C18S 9000   5.434   1.969   5.315
   6923SM  H18S 9001   5.370   1.887   5.277
   6923SM  H18T 9002   5.509   1.995   5.237
   6923SM  H18U 9003   5.370   2.059   5.331
   6923SM   C1F 9004   5.180   2.259   7.112
   6923SM    OF 9005   5.233   2.364   7.147
   6923SM   C2F 9006   5.034   2.250   7.082
   6923SM   H2F 9007   4.977   2.264   7.176
   6923SM   H2G 9008   5.010   2.149   7.042
   6923SM   C3F 9009   4.989   2.358   6.980
   6923SM   H3F 9010   5.002   2.459   7.025
   6923SM   H3G 9011   4.880   2.345   6.962
   6923SM   C4F 9012   5.062   2.354   6.844
   6923SM   H4F 9013   5.168   2.384   6.858
   6923SM   H4G 9014   5.015   2.431   6.778
   6923SM   C5F 9015   5.058   2.218   6.773
   6923SM   H5F 9016   4.953   2.184   6.764
   6923SM   H5G 9017   5.112   2.144   6.835
   6923SM   C6F 9018   5.122   2.219   6.633
   6923SM   H6F 9019   5.135   2.114   6.599
   6923SM   H6G 9020   5.223   2.266   6.640
   6923SM   C7F 9021   5.040   2.293   6.525
   6923SM   H7F 9022   5.008   2.391   6.565
   6923SM   H7G 9023   4.948   2.235   6.504
   6923SM   C8F 9024   5.118   2.318   6.395
   6923SM   H8F 9025   5.207   2.380   6.420
   6923SM   H8G 9026   5.055   2.378   6.326
   6923SM   C9F 9027   5.166   2.191   6.322
   6923SM   H9F 9028   5.223   2.128   6.392
   6923SM   H9G 9029   5.236   2.222   6.241
   6923SM  C10F 9030   5.054   2.106   6.258
   6923SM  H10F 9031   4.986   2.069   6.338
   6923SM  H10G 9032   5.102   2.018   6.211
   6923SM  C11F 9033   4.970   2.177   6.150
   6923SM  H11F 9034   4.905   2.254   6.196
   6923SM  H11G 9035   4.904   2.101   6.102
   6923SM  C12F 9036   5.056   2.243   6.041
   6923SM  H12F 9037   5.139   2.175   6.013
   6923SM  H12G 9038   5.103   2.334   6.085
   6923SM  C13F 9039   4.978   2.286   5.916
   6923SM  H13F 9040   5.042   2.356   5.858
   6923SM  H13G 9041   4.886   2.340   5.946
   6923SM  C14F 9042   4.940   2.171   5.820
   6923SM  H14F 9043   4.893   2.216   5.731
   6923SM  H14G 9044   4.864   2.105   5.868
   6923SM  C15F 9045   5.061   2.085   5.776
   6923SM  H15F 9046   5.074   2.003   5.850
   6923SM  H15G 9047   5.153   2.147   5.779
   6923SM  C16F 9048   5.047   2.026   5.635
   6923SM  H16F 9049   4.945   1.984   5.621
   6923SM  H16G 9050   5.119   1.943   5.624
   6923SM  C17F 9051   5.077   2.130   5.525
   6923SM  H17F 9052   5.177   2.174   5.544
   6923SM  H17G 9053   5.003   2.213   5.532
   6923SM  C18F 9054   5.075   2.072   5.383
   6923SM  H18F 9055   4.976   2.025   5.362
   6923SM  H18G 9056   5.152   1.993   5.375
   6923SM  C19F 9057   5.102   2.181   5.278
   6923SM  H19F 9058   5.194   2.236   5.308
   6923SM  H19G 9059   5.019   2.254   5.277
   6923SM  C20F 9060   5.124   2.127   5.136
   6923SM  H20F 9061   5.206   2.052   5.138
   6923SM  H20G 9062   5.157   2.211   5.071
   6923SM  C21F 9063   4.999   2.064   5.072
   6923SM  H21F 9064   4.915   2.137   5.079
   6923SM  H21G 9065   4.969   1.974   5.129
   6923SM  C22F 9066   5.020   2.027   4.924
   6923SM  H22F 9067   5.049   2.119   4.868
   6923SM  H22G 9068   4.923   1.993   4.883
   6923SM  C23F 9069   5.125   1.919   4.900
   6923SM  H23F 9070   5.132   1.894   4.792
   6923SM  H23G 9071   5.100   1.826   4.956
   6923SM  H23H 9072   5.226   1.954   4.933
   7023SM     N 9073   4.775   1.609   7.836
   7023SM   C15 9074   4.763   1.468   7.784
   7023SM  H15A 9075   4.695   1.467   7.700
   7023SM  H15B 9076   4.725   1.402   7.860
   7023SM  H15C 9077   4.858   1.429   7.749
   7023SM   C14 9078   4.639   1.649   7.883
   7023SM  H14A 9079   4.571   1.644   7.800
   7023SM  H14B 9080   4.639   1.749   7.923
   7023SM  H14C 9081   4.603   1.581   7.959
   7023SM   C13 9082   4.870   1.607   7.952
   7023SM  H13A 9083   4.970   1.581   7.921
   7023SM  H13B 9084   4.838   1.532   8.023
   7023SM  H13C 9085   4.872   1.702   8.003
   7023SM   C12 9086   4.820   1.701   7.724
   7023SM  H12A 9087   4.906   1.656   7.675
   7023SM  H12B 9088   4.852   1.795   7.765
   7023SM   C11 9089   4.716   1.731   7.613
   7023SM  H11A 9090   4.766   1.786   7.530
   7023SM  H11B 9091   4.638   1.797   7.655
   7023SM     P 9092   4.531   1.612   7.472
   7023SM   O13 9093   4.475   1.475   7.472
   7023SM   O14 9094   4.441   1.721   7.517
   7023SM   O11 9095   4.595   1.645   7.330
   7023SM   O12 9096   4.659   1.610   7.563
   7023SM   C1S 9097   4.713   1.572   7.290
   7023SM   H1S 9098   4.697   1.463   7.304
   7023SM   H1T 9099   4.801   1.602   7.350
   7023SM    NF 9100   4.855   1.513   7.087
   7023SM   HNF 9101   4.925   1.561   7.035
   7023SM   C2S 9102   4.747   1.597   7.139
   7023SM   H2S 9103   4.655   1.572   7.082
   7023SM   C3S 9104   4.781   1.747   7.115
   7023SM   H3S 9105   4.877   1.770   7.166
   7023SM    O3 9106   4.686   1.839   7.168
   7023SM   HO3 9107   4.633   1.786   7.228
   7023SM   C4S 9108   4.793   1.775   6.967
   7023SM   H4S 9109   4.697   1.772   6.914
   7023SM   C5S 9110   4.905   1.807   6.898
   7023SM   H5S 9111   5.001   1.818   6.951
   7023SM   C6S 9112   4.906   1.835   6.750
   7023SM   H6S 9113   4.953   1.934   6.731
   7023SM   H6T 9114   4.802   1.843   6.711
   7023SM   C7S 9115   4.977   1.731   6.661
   7023SM   H7S 9116   4.930   1.631   6.675
   7023SM   H7T 9117   5.084   1.722   6.691
   7023SM   C8S 9118   4.970   1.768   6.512
   7023SM   H8S 9119   5.017   1.868   6.497
   7023SM   H8T 9120   4.863   1.777   6.481
   7023SM   C9S 9121   5.040   1.666   6.421
   7023SM   H9S 9122   4.988   1.568   6.426
   7023SM   H9T 9123   5.143   1.653   6.462
   7023SM  C10S 9124   5.057   1.710   6.275
   7023SM  H10S 9125   5.128   1.641   6.225
   7023SM  H10T 9126   5.102   1.812   6.272
   7023SM  C11S 9127   4.927   1.709   6.194
   7023SM  H11S 9128   4.852   1.775   6.242
   7023SM  H11T 9129   4.887   1.606   6.194
   7023SM  C12S 9130   4.948   1.754   6.048
   7023SM  H12S 9131   5.036   1.702   6.006
   7023SM  H12T 9132   4.970   1.863   6.046
   7023SM  C13S 9133   4.827   1.723   5.959
   7023SM  H13S 9134   4.736   1.774   6.000
   7023SM  H13T 9135   4.809   1.614   5.963
   7023SM  C14S 9136   4.846   1.762   5.812
   7023SM  H14S 9137   4.940   1.717   5.775
   7023SM  H14T 9138   4.856   1.873   5.805
   7023SM  C15S 9139   4.729   1.716   5.724
   7023SM  H15S 9140   4.636   1.764   5.762
   7023SM  H15T 9141   4.716   1.606   5.735
   7023SM  C16S 9142   4.745   1.750   5.575
   7023SM  H16S 9143   4.767   1.858   5.564
   7023SM  H16T 9144   4.649   1.729   5.524
   7023SM  C17S 9145   4.853   1.668   5.503
   7023SM  H17S 9146   4.829   1.560   5.516
   7023SM  H17T 9147   4.952   1.686   5.551
   7023SM  C18S 9148   4.861   1.701   5.354
   7023SM  H18S 9149   4.931   1.633   5.302
   7023SM  H18T 9150   4.897   1.805   5.340
   7023SM  H18U 9151   4.761   1.691   5.307
   7023SM   C1F 9152   4.855   1.379   7.081
   7023SM    OF 9153   4.813   1.309   7.172
   7023SM   C2F 9154   4.916   1.318   6.958
   7023SM   H2F 9155   4.971   1.226   6.989
   7023SM   H2G 9156   4.989   1.389   6.913
   7023SM   C3F 9157   4.809   1.280   6.853
   7023SM   H3F 9158   4.735   1.212   6.899
   7023SM   H3G 9159   4.858   1.225   6.771
   7023SM   C4F 9160   4.734   1.401   6.793
   7023SM   H4F 9161   4.806   1.466   6.738
   7023SM   H4G 9162   4.691   1.462   6.875
   7023SM   C5F 9163   4.618   1.364   6.699
   7023SM   H5F 9164   4.557   1.455   6.680
   7023SM   H5G 9165   4.552   1.291   6.752
   7023SM   C6F 9166   4.661   1.306   6.564
   7023SM   H6F 9167   4.729   1.219   6.583
   7023SM   H6G 9168   4.719   1.381   6.507
   7023SM   C7F 9169   4.542   1.255   6.481
   7023SM   H7F 9170   4.477   1.195   6.547
   7023SM   H7G 9171   4.579   1.187   6.401
   7023SM   C8F 9172   4.456   1.364   6.415
   7023SM   H8F 9173   4.425   1.438   6.493
   7023SM   H8G 9174   4.364   1.316   6.376
   7023SM   C9F 9175   4.524   1.439   6.299
   7023SM   H9F 9176   4.615   1.491   6.337
   7023SM   H9G 9177   4.455   1.517   6.262
   7023SM  C10F 9178   4.564   1.349   6.181
   7023SM  H10F 9179   4.475   1.294   6.143
   7023SM  H10G 9180   4.639   1.274   6.214
   7023SM  C11F 9181   4.626   1.431   6.067
   7023SM  H11F 9182   4.709   1.490   6.111
   7023SM  H11G 9183   4.551   1.504   6.028
   7023SM  C12F 9184   4.683   1.348   5.952
   7023SM  H12F 9185   4.748   1.267   5.991
   7023SM  H12G 9186   4.747   1.415   5.890
   7023SM  C13F 9187   4.577   1.287   5.858
   7023SM  H13F 9188   4.486   1.351   5.862
   7023SM  H13G 9189   4.549   1.186   5.895
   7023SM  C14F 9190   4.623   1.279   5.712
   7023SM  H14F 9191   4.641   1.383   5.676
   7023SM  H14G 9192   4.540   1.237   5.650
   7023SM  C15F 9193   4.751   1.197   5.688
   7023SM  H15F 9194   4.729   1.089   5.699
   7023SM  H15G 9195   4.827   1.224   5.765
   7023SM  C16F 9196   4.814   1.224   5.550
   7023SM  H16F 9197   4.912   1.171   5.543
   7023SM  H16G 9198   4.835   1.333   5.542
   7023SM  C17F 9199   4.726   1.182   5.432
   7023SM  H17F 9200   4.621   1.215   5.450
   7023SM  H17G 9201   4.725   1.071   5.424
   7023SM  C18F 9202   4.772   1.243   5.299
   7023SM  H18F 9203   4.875   1.209   5.275
   7023SM  H18G 9204   4.774   1.354   5.311
   7023SM  C19F 9205   4.677   1.209   5.184
   7023SM  H19F 9206   4.572   1.228   5.215
   7023SM  H19G 9207   4.686   1.101   5.160
   7023SM  C20F 9208   4.707   1.290   5.057
   7023SM  H20F 9209   4.812   1.271   5.025
   7023SM  H20G 9210   4.698   1.398   5.082
   7023SM  C21F 9211   4.612   1.256   4.942
   7023SM  H21F 9212   4.508   1.274   4.974
   7023SM  H21G 9213   4.622   1.148   4.919
   7023SM  C22F 9214   4.640   1.336   4.814
   7023SM  H22F 9215   4.580   1.293   4.732
   7023SM  H22G 9216   4.747   1.324   4.787
   7023SM  C23F 9217   4.608   1.486   4.825
   7023SM  H23F 9218   4.625   1.536   4.727
   7023SM  H23G 9219   4.673   1.534   4.901
   7023SM  H23H 9220   4.502   1.500   4.854
   7123SM     N 9221   4.541   6.574   7.636
   7123SM   C15 9222   4.678   6.548   7.691
   7123SM  H15A 9223   4.738   6.636   7.675
   7123SM  H15B 9224   4.728   6.467   7.638
   7123SM  H15C 9225   4.676   6.526   7.796
   7123SM   C14 9226   4.457   6.450   7.650
   7123SM  H14A 9227   4.497   6.368   7.592
   7123SM  H14B 9228   4.355   6.469   7.618
   7123SM  H14C 9229   4.453   6.419   7.753
   7123SM   C13 9230   4.478   6.683   7.717
   7123SM  H13A 9231   4.536   6.774   7.706
   7123SM  H13B 9232   4.474   6.657   7.822
   7123SM  H13C 9233   4.378   6.704   7.683
   7123SM   C12 9234   4.553   6.617   7.491
   7123SM  H12A 9235   4.456   6.612   7.444
   7123SM  H12B 9236   4.617   6.548   7.438
   7123SM   C11 9237   4.609   6.760   7.465
   7123SM  H11A 9238   4.536   6.835   7.501
   7123SM  H11B 9239   4.618   6.772   7.355
   7123SM     P 9240   4.825   6.903   7.495
   7123SM   O13 9241   4.740   7.024   7.506
   7123SM   O14 9242   4.948   6.898   7.576
   7123SM   O11 9243   4.861   6.880   7.343
   7123SM   O12 9244   4.736   6.778   7.529
   7123SM   C1S 9245   4.905   6.752   7.295
   7123SM   H1S 9246   4.877   6.669   7.363
   7123SM   H1T 9247   5.016   6.751   7.285
   7123SM    NF 9248   4.860   6.588   7.110
   7123SM   HNF 9249   4.911   6.573   7.025
   7123SM   C2S 9250   4.843   6.725   7.154
   7123SM   H2S 9251   4.734   6.745   7.161
   7123SM   C3S 9252   4.905   6.828   7.054
   7123SM   H3S 9253   5.015   6.814   7.053
   7123SM    O3 9254   4.881   6.963   7.092
   7123SM   HO3 9255   4.869   6.957   7.187
   7123SM   C4S 9256   4.851   6.809   6.915
   7123SM   H4S 9257   4.741   6.809   6.909
   7123SM   C5S 9258   4.924   6.796   6.803
   7123SM   H5S 9259   5.034   6.801   6.807
   7123SM   C6S 9260   4.864   6.778   6.665
   7123SM   H6S 9261   4.755   6.759   6.671
   7123SM   H6T 9262   4.910   6.691   6.614
   7123SM   C7S 9263   4.884   6.903   6.577
   7123SM   H7S 9264   4.992   6.922   6.562
   7123SM   H7T 9265   4.840   6.992   6.627
   7123SM   C8S 9266   4.817   6.888   6.439
   7123SM   H8S 9267   4.709   6.867   6.452
   7123SM   H8T 9268   4.862   6.802   6.386
   7123SM   C9S 9269   4.833   7.015   6.353
   7123SM   H9S 9270   4.942   7.037   6.341
   7123SM   H9T 9271   4.786   7.101   6.405
   7123SM  C10S 9272   4.773   7.000   6.213
   7123SM  H10S 9273   4.665   6.979   6.222
   7123SM  H10T 9274   4.822   6.915   6.160
   7123SM  C11S 9275   4.790   7.128   6.129
   7123SM  H11S 9276   4.897   7.158   6.127
   7123SM  H11T 9277   4.733   7.209   6.179
   7123SM  C12S 9278   4.739   7.114   5.984
   7123SM  H12S 9279   4.722   7.216   5.945
   7123SM  H12T 9280   4.641   7.061   5.982
   7123SM  C13S 9281   4.836   7.044   5.889
   7123SM  H13S 9282   4.831   6.934   5.902
   7123SM  H13T 9283   4.940   7.076   5.913
   7123SM  C14S 9284   4.809   7.081   5.742
   7123SM  H14S 9285   4.804   7.192   5.734
   7123SM  H14T 9286   4.709   7.042   5.713
   7123SM  C15S 9287   4.916   7.032   5.644
   7123SM  H15S 9288   4.927   6.921   5.653
   7123SM  H15T 9289   5.013   7.077   5.674
   7123SM  C16S 9290   4.885   7.070   5.499
   7123SM  H16S 9291   4.978   7.060   5.438
   7123SM  H16T 9292   4.854   7.176   5.495
   7123SM  C17S 9293   4.777   6.982   5.434
   7123SM  H17S 9294   4.690   6.975   5.502
   7123SM  H17T 9295   4.818   6.879   5.423
   7123SM  C18S 9296   4.729   7.031   5.298
   7123SM  H18S 9297   4.815   7.048   5.230
   7123SM  H18T 9298   4.674   7.127   5.309
   7123SM  H18U 9299   4.660   6.958   5.251
   7123SM   C1F 9300   4.796   6.484   7.164
   7123SM    OF 9301   4.753   6.486   7.279
   7123SM   C2F 9302   4.777   6.366   7.074
   7123SM   H2F 9303   4.785   6.272   7.133
   7123SM   H2G 9304   4.858   6.366   6.998
   7123SM   C3F 9305   4.639   6.372   7.005
   7123SM   H3F 9306   4.617   6.475   6.970
   7123SM   H3G 9307   4.561   6.347   7.080
   7123SM   C4F 9308   4.624   6.277   6.885
   7123SM   H4F 9309   4.518   6.277   6.852
   7123SM   H4G 9310   4.647   6.174   6.918
   7123SM   C5F 9311   4.714   6.310   6.764
   7123SM   H5F 9312   4.693   6.234   6.685
   7123SM   H5G 9313   4.820   6.298   6.793
   7123SM   C6F 9314   4.694   6.450   6.702
   7123SM   H6F 9315   4.772   6.464   6.625
   7123SM   H6G 9316   4.710   6.528   6.780
   7123SM   C7F 9317   4.557   6.471   6.636
   7123SM   H7F 9318   4.476   6.453   6.709
   7123SM   H7G 9319   4.546   6.395   6.555
   7123SM   C8F 9320   4.542   6.612   6.577
   7123SM   H8F 9321   4.627   6.632   6.508
   7123SM   H8G 9322   4.550   6.685   6.661
   7123SM   C9F 9323   4.409   6.638   6.504
   7123SM   H9F 9324   4.403   6.746   6.477
   7123SM   H9G 9325   4.326   6.616   6.574
   7123SM  C10F 9326   4.388   6.554   6.376
   7123SM  H10F 9327   4.284   6.571   6.340
   7123SM  H10G 9328   4.397   6.447   6.402
   7123SM  C11F 9329   4.483   6.586   6.260
   7123SM  H11F 9330   4.482   6.499   6.191
   7123SM  H11G 9331   4.587   6.598   6.297
   7123SM  C12F 9332   4.441   6.710   6.180
   7123SM  H12F 9333   4.423   6.795   6.250
   7123SM  H12G 9334   4.345   6.690   6.127
   7123SM  C13F 9335   4.547   6.755   6.078
   7123SM  H13F 9336   4.637   6.785   6.136
   7123SM  H13G 9337   4.511   6.845   6.023
   7123SM  C14F 9338   4.593   6.648   5.978
   7123SM  H14F 9339   4.627   6.558   6.033
   7123SM  H14G 9340   4.682   6.688   5.926
   7123SM  C15F 9341   4.488   6.605   5.874
   7123SM  H15F 9342   4.397   6.569   5.927
   7123SM  H15G 9343   4.529   6.519   5.817
   7123SM  C16F 9344   4.447   6.713   5.772
   7123SM  H16F 9345   4.391   6.793   5.824
   7123SM  H16G 9346   4.378   6.666   5.699
   7123SM  C17F 9347   4.562   6.778   5.693
   7123SM  H17F 9348   4.623   6.841   5.762
   7123SM  H17G 9349   4.516   6.847   5.619
   7123SM  C18F 9350   4.655   6.681   5.617
   7123SM  H18F 9351   4.682   6.731   5.521
   7123SM  H18G 9352   4.602   6.588   5.590
   7123SM  C19F 9353   4.788   6.650   5.690
   7123SM  H19F 9354   4.774   6.561   5.755
   7123SM  H19G 9355   4.813   6.736   5.755
   7123SM  C20F 9356   4.908   6.629   5.597
   7123SM  H20F 9357   5.001   6.621   5.657
   7123SM  H20G 9358   4.918   6.720   5.533
   7123SM  C21F 9359   4.897   6.506   5.506
   7123SM  H21F 9360   4.790   6.474   5.498
   7123SM  H21G 9361   4.953   6.422   5.552
   7123SM  C22F 9362   4.949   6.534   5.365
   7123SM  H22F 9363   5.055   6.566   5.370
   7123SM  H22G 9364   4.890   6.617   5.321
   7123SM  C23F 9365   4.938   6.412   5.272
   7123SM  H23F 9366   5.005   6.331   5.306
   7123SM  H23G 9367   4.966   6.440   5.168
   7123SM  H23H 9368   4.834   6.373   5.270
   7223SM     N 9369   6.703   2.717   7.737
   7223SM   C15 9370   6.709   2.803   7.860
   7223SM  H15A 9371   6.612   2.813   7.905
   7223SM  H15B 9372   6.743   2.901   7.832
   7223SM  H15C 9373   6.779   2.763   7.932
   7223SM   C14 9374   6.840   2.707   7.677
   7223SM  H14A 9375   6.913   2.675   7.749
   7223SM  H14B 9376   6.868   2.805   7.640
   7223SM  H14C 9377   6.841   2.640   7.593
   7223SM   C13 9378   6.653   2.580   7.771
   7223SM  H13A 9379   6.648   2.519   7.683
   7223SM  H13B 9380   6.553   2.586   7.812
   7223SM  H13C 9381   6.718   2.532   7.843
   7223SM   C12 9382   6.608   2.781   7.635
   7223SM  H12A 9383   6.507   2.767   7.669
   7223SM  H12B 9384   6.617   2.728   7.542
   7223SM   C11 9385   6.628   2.932   7.605
   7223SM  H11A 9386   6.599   2.990   7.695
   7223SM  H11B 9387   6.558   2.959   7.524
   7223SM     P 9388   6.802   3.109   7.536
   7223SM   O13 9389   6.692   3.172   7.461
   7223SM   O14 9390   6.846   3.174   7.662
   7223SM   O11 9391   6.927   3.095   7.439
   7223SM   O12 9392   6.763   2.959   7.566
   7223SM   C1S 9393   6.935   2.987   7.344
   7223SM   H1S 9394   6.924   2.889   7.395
   7223SM   H1T 9395   7.037   2.988   7.299
   7223SM    NF 9396   6.861   2.881   7.135
   7223SM   HNF 9397   6.887   2.906   7.042
   7223SM   C2S 9398   6.836   2.996   7.224
   7223SM   H2S 9399   6.732   2.987   7.262
   7223SM   C3S 9400   6.849   3.133   7.149
   7223SM   H3S 9401   6.957   3.153   7.132
   7223SM    O3 9402   6.795   3.248   7.215
   7223SM   HO3 9403   6.765   3.218   7.301
   7223SM   C4S 9404   6.783   3.120   7.013
   7223SM   H4S 9405   6.856   3.128   6.931
   7223SM   C5S 9406   6.652   3.107   6.986
   7223SM   H5S 9407   6.579   3.107   7.068
   7223SM   C6S 9408   6.592   3.093   6.848
   7223SM   H6S 9409   6.519   3.175   6.831
   7223SM   H6T 9410   6.535   2.998   6.840
   7223SM   C7S 9411   6.695   3.096   6.733
   7223SM   H7S 9412   6.772   3.017   6.746
   7223SM   H7T 9413   6.746   3.194   6.735
   7223SM   C8S 9414   6.633   3.078   6.593
   7223SM   H8S 9415   6.533   3.125   6.589
   7223SM   H8T 9416   6.621   2.970   6.571
   7223SM   C9S 9417   6.722   3.144   6.488
   7223SM   H9S 9418   6.826   3.104   6.496
   7223SM   H9T 9419   6.726   3.253   6.509
   7223SM  C10S 9420   6.674   3.126   6.343
   7223SM  H10S 9421   6.568   3.157   6.334
   7223SM  H10T 9422   6.681   3.018   6.316
   7223SM  C11S 9423   6.760   3.210   6.248
   7223SM  H11S 9424   6.867   3.200   6.277
   7223SM  H11T 9425   6.731   3.317   6.261
   7223SM  C12S 9426   6.746   3.171   6.101
   7223SM  H12S 9427   6.640   3.182   6.069
   7223SM  H12T 9428   6.774   3.064   6.089
   7223SM  C13S 9429   6.836   3.257   6.011
   7223SM  H13S 9430   6.938   3.263   6.055
   7223SM  H13T 9431   6.795   3.360   6.006
   7223SM  C14S 9432   6.847   3.199   5.870
   7223SM  H14S 9433   6.745   3.186   5.828
   7223SM  H14T 9434   6.894   3.099   5.875
   7223SM  C15S 9435   6.928   3.288   5.775
   7223SM  H15S 9436   7.029   3.307   5.816
   7223SM  H15T 9437   6.876   3.385   5.764
   7223SM  C16S 9438   6.941   3.221   5.637
   7223SM  H16S 9439   6.841   3.183   5.608
   7223SM  H16T 9440   7.010   3.134   5.645
   7223SM  C17S 9441   6.990   3.315   5.527
   7223SM  H17S 9442   7.095   3.345   5.546
   7223SM  H17T 9443   6.928   3.408   5.529
   7223SM  C18S 9444   6.978   3.252   5.388
   7223SM  H18S 9445   7.047   3.164   5.379
   7223SM  H18T 9446   7.004   3.325   5.309
   7223SM  H18U 9447   6.874   3.216   5.370
   7223SM   C1F 9448   6.842   2.753   7.165
   7223SM    OF 9449   6.797   2.717   7.274
   7223SM   C2F 9450   6.872   2.652   7.058
   7223SM   H2F 9451   6.808   2.563   7.075
   7223SM   H2G 9452   6.978   2.620   7.067
   7223SM   C3F 9453   6.846   2.706   6.915
   7223SM   H3F 9454   6.916   2.788   6.890
   7223SM   H3G 9455   6.742   2.746   6.908
   7223SM   C4F 9456   6.859   2.595   6.808
   7223SM   H4F 9457   6.786   2.516   6.832
   7223SM   H4G 9458   6.960   2.549   6.814
   7223SM   C5F 9459   6.833   2.644   6.665
   7223SM   H5F 9460   6.734   2.695   6.660
   7223SM   H5G 9461   6.827   2.555   6.599
   7223SM   C6F 9462   6.941   2.736   6.606
   7223SM   H6F 9463   7.040   2.687   6.615
   7223SM   H6G 9464   6.944   2.832   6.663
   7223SM   C7F 9465   6.914   2.767   6.458
   7223SM   H7F 9466   6.817   2.820   6.450
   7223SM   H7G 9467   6.905   2.671   6.402
   7223SM   C8F 9468   7.023   2.852   6.391
   7223SM   H8F 9469   7.119   2.797   6.391
   7223SM   H8G 9470   7.037   2.945   6.450
   7223SM   C9F 9471   6.984   2.890   6.247
   7223SM   H9F 9472   6.885   2.941   6.252
   7223SM   H9G 9473   6.970   2.798   6.186
   7223SM  C10F 9474   7.083   2.985   6.179
   7223SM  H10F 9475   7.108   3.067   6.249
   7223SM  H10G 9476   7.032   3.033   6.092
   7223SM  C11F 9477   7.212   2.919   6.129
   7223SM  H11F 9478   7.261   2.867   6.215
   7223SM  H11G 9479   7.282   2.998   6.095
   7223SM  C12F 9480   7.194   2.818   6.014
   7223SM  H12F 9481   7.132   2.733   6.049
   7223SM  H12G 9482   7.294   2.777   5.988
   7223SM  C13F 9483   7.131   2.877   5.887
   7223SM  H13F 9484   7.184   2.971   5.861
   7223SM  H13G 9485   7.025   2.903   5.908
   7223SM  C14F 9486   7.138   2.781   5.768
   7223SM  H14F 9487   7.086   2.686   5.793
   7223SM  H14G 9488   7.245   2.757   5.750
   7223SM  C15F 9489   7.079   2.837   5.638
   7223SM  H15F 9490   7.116   2.775   5.553
   7223SM  H15G 9491   7.117   2.940   5.621
   7223SM  C16F 9492   6.926   2.837   5.634
   7223SM  H16F 9493   6.888   2.899   5.718
   7223SM  H16G 9494   6.889   2.733   5.651
   7223SM  C17F 9495   6.866   2.892   5.503
   7223SM  H17F 9496   6.907   2.995   5.488
   7223SM  H17G 9497   6.756   2.903   5.515
   7223SM  C18F 9498   6.896   2.811   5.376
   7223SM  H18F 9499   7.006   2.800   5.365
   7223SM  H18G 9500   6.860   2.869   5.288
   7223SM  C19F 9501   6.830   2.671   5.371
   7223SM  H19F 9502   6.857   2.618   5.465
   7223SM  H19G 9503   6.874   2.613   5.287
   7223SM  C20F 9504   6.677   2.675   5.355
   7223SM  H20F 9505   6.637   2.774   5.386
   7223SM  H20G 9506   6.633   2.599   5.424
   7223SM  C21F 9507   6.627   2.642   5.213
   7223SM  H21F 9508   6.517   2.635   5.216
   7223SM  H21G 9509   6.666   2.542   5.183
   7223SM  C22F 9510   6.667   2.746   5.108
   7223SM  H22F 9511   6.777   2.749   5.099
   7223SM  H22G 9512   6.633   2.846   5.142
   7223SM  C23F 9513   6.606   2.718   4.970
   7223SM  H23F 9514   6.495   2.719   4.975
   7223SM  H23G 9515   6.637   2.618   4.933
   7223SM  H23H 9516   6.638   2.794   4.896
   7323SM     N 9517   5.262   1.064   7.838
   7323SM   C15 9518   5.307   1.205   7.820
   7323SM  H15A 9519   5.353   1.245   7.909
   7323SM  H15B 9520   5.225   1.269   7.790
   7323SM  H15C 9521   5.377   1.211   7.738
   7323SM   C14 9522   5.381   0.981   7.875
   7323SM  H14A 9523   5.427   1.020   7.965
   7323SM  H14B 9524   5.454   0.983   7.796
   7323SM  H14C 9525   5.350   0.879   7.893
   7323SM   C13 9526   5.162   1.056   7.950
   7323SM  H13A 9527   5.204   1.097   8.041
   7323SM  H13B 9528   5.137   0.953   7.969
   7323SM  H13C 9529   5.071   1.108   7.926
   7323SM   C12 9530   5.197   1.010   7.711
   7323SM  H12A 9531   5.118   1.078   7.681
   7323SM  H12B 9532   5.147   0.918   7.737
   7323SM   C11 9533   5.286   0.982   7.587
   7323SM  H11A 9534   5.222   0.940   7.506
   7323SM  H11B 9535   5.358   0.901   7.614
   7323SM     P 9536   5.288   1.214   7.464
   7323SM   O13 9537   5.184   1.158   7.374
   7323SM   O14 9538   5.246   1.317   7.560
   7323SM   O11 9539   5.409   1.268   7.377
   7323SM   O12 9540   5.359   1.095   7.541
   7323SM   C1S 9541   5.483   1.184   7.288
   7323SM   H1S 9542   5.461   1.077   7.303
   7323SM   H1T 9543   5.592   1.197   7.307
   7323SM    NF 9544   5.506   1.124   7.047
   7323SM   HNF 9545   5.588   1.149   6.996
   7323SM   C2S 9546   5.454   1.223   7.140
   7323SM   H2S 9547   5.343   1.227   7.129
   7323SM   C3S 9548   5.511   1.366   7.113
   7323SM   H3S 9549   5.622   1.358   7.110
   7323SM    O3 9550   5.483   1.464   7.214
   7323SM   HO3 9551   5.445   1.413   7.285
   7323SM   C4S 9552   5.463   1.411   6.978
   7323SM   H4S 9553   5.534   1.389   6.897
   7323SM   C5S 9554   5.347   1.474   6.948
   7323SM   H5S 9555   5.278   1.499   7.030
   7323SM   C6S 9556   5.303   1.516   6.810
   7323SM   H6S 9557   5.294   1.627   6.806
   7323SM   H6T 9558   5.202   1.475   6.790
   7323SM   C7S 9559   5.394   1.471   6.695
   7323SM   H7S 9560   5.407   1.361   6.697
   7323SM   H7T 9561   5.494   1.519   6.707
   7323SM   C8S 9562   5.338   1.512   6.558
   7323SM   H8S 9563   5.329   1.623   6.557
   7323SM   H8T 9564   5.236   1.469   6.548
   7323SM   C9S 9565   5.421   1.468   6.437
   7323SM   H9S 9566   5.524   1.512   6.444
   7323SM   H9T 9567   5.373   1.511   6.347
   7323SM  C10S 9568   5.429   1.316   6.421
   7323SM  H10S 9569   5.326   1.276   6.420
   7323SM  H10T 9570   5.482   1.271   6.508
   7323SM  C11S 9571   5.500   1.270   6.292
   7323SM  H11S 9572   5.493   1.159   6.288
   7323SM  H11T 9573   5.608   1.297   6.296
   7323SM  C12S 9574   5.438   1.327   6.163
   7323SM  H12S 9575   5.480   1.428   6.144
   7323SM  H12T 9576   5.329   1.338   6.177
   7323SM  C13S 9577   5.461   1.238   6.040
   7323SM  H13S 9578   5.410   1.283   5.953
   7323SM  H13T 9579   5.414   1.139   6.059
   7323SM  C14S 9580   5.610   1.216   6.007
   7323SM  H14S 9581   5.664   1.185   6.099
   7323SM  H14T 9582   5.655   1.311   5.972
   7323SM  C15S 9583   5.631   1.106   5.901
   7323SM  H15S 9584   5.580   1.014   5.936
   7323SM  H15T 9585   5.740   1.085   5.894
   7323SM  C16S 9586   5.580   1.142   5.761
   7323SM  H16S 9587   5.643   1.223   5.720
   7323SM  H16T 9588   5.475   1.179   5.765
   7323SM  C17S 9589   5.586   1.022   5.666
   7323SM  H17S 9590   5.515   0.944   5.701
   7323SM  H17T 9591   5.688   0.978   5.671
   7323SM  C18S 9592   5.558   1.057   5.520
   7323SM  H18S 9593   5.635   1.127   5.482
   7323SM  H18T 9594   5.458   1.104   5.509
   7323SM  H18U 9595   5.562   0.965   5.457
   7323SM   C1F 9596   5.454   1.002   7.030
   7323SM    OF 9597   5.376   0.954   7.112
   7323SM   C2F 9598   5.497   0.927   6.908
   7323SM   H2F 9599   5.574   0.852   6.938
   7323SM   H2G 9600   5.544   0.998   6.836
   7323SM   C3F 9601   5.380   0.855   6.837
   7323SM   H3F 9602   5.342   0.773   6.901
   7323SM   H3G 9603   5.421   0.807   6.745
   7323SM   C4F 9604   5.263   0.947   6.798
   7323SM   H4F 9605   5.302   1.039   6.749
   7323SM   H4G 9606   5.211   0.978   6.891
   7323SM   C5F 9607   5.160   0.879   6.705
   7323SM   H5F 9608   5.062   0.929   6.717
   7323SM   H5G 9609   5.148   0.774   6.737
   7323SM   C6F 9610   5.199   0.882   6.556
   7323SM   H6F 9611   5.135   0.811   6.499
   7323SM   H6G 9612   5.304   0.847   6.545
   7323SM   C7F 9613   5.185   1.021   6.489
   7323SM   H7F 9614   5.238   1.017   6.391
   7323SM   H7G 9615   5.238   1.097   6.551
   7323SM   C8F 9616   5.040   1.066   6.465
   7323SM   H8F 9617   4.983   1.055   6.559
   7323SM   H8G 9618   4.992   0.999   6.390
   7323SM   C9F 9619   5.029   1.213   6.419
   7323SM   H9F 9620   5.085   1.275   6.492
   7323SM   H9G 9621   4.923   1.245   6.423
   7323SM  C10F 9622   5.083   1.239   6.278
   7323SM  H10F 9623   5.171   1.174   6.257
   7323SM  H10G 9624   5.119   1.344   6.273
   7323SM  C11F 9625   4.978   1.221   6.167
   7323SM  H11F 9626   4.903   1.302   6.178
   7323SM  H11G 9627   4.925   1.125   6.180
   7323SM  C12F 9628   5.039   1.228   6.026
   7323SM  H12F 9629   5.129   1.293   6.026
   7323SM  H12G 9630   4.966   1.274   5.957
   7323SM  C13F 9631   5.074   1.089   5.970
   7323SM  H13F 9632   4.982   1.027   5.971
   7323SM  H13G 9633   5.148   1.039   6.037
   7323SM  C14F 9634   5.128   1.093   5.827
   7323SM  H14F 9635   5.230   1.137   5.827
   7323SM  H14G 9636   5.063   1.158   5.765
   7323SM  C15F 9637   5.132   0.953   5.763
   7323SM  H15F 9638   5.029   0.914   5.753
   7323SM  H15G 9639   5.189   0.885   5.829
   7323SM  C16F 9640   5.199   0.953   5.624
   7323SM  H16F 9641   5.303   0.989   5.637
   7323SM  H16G 9642   5.147   1.025   5.557
   7323SM  C17F 9643   5.200   0.814   5.559
   7323SM  H17F 9644   5.099   0.792   5.519
   7323SM  H17G 9645   5.223   0.739   5.637
   7323SM  C18F 9646   5.305   0.799   5.447
   7323SM  H18F 9647   5.298   0.694   5.409
   7323SM  H18G 9648   5.406   0.810   5.492
   7323SM  C19F 9649   5.290   0.898   5.331
   7323SM  H19F 9650   5.298   1.001   5.374
   7323SM  H19G 9651   5.189   0.891   5.285
   7323SM  C20F 9652   5.399   0.887   5.222
   7323SM  H20F 9653   5.497   0.868   5.269
   7323SM  H20G 9654   5.405   0.986   5.172
   7323SM  C21F 9655   5.374   0.783   5.111
   7323SM  H21F 9656   5.453   0.796   5.034
   7323SM  H21G 9657   5.277   0.803   5.061
   7323SM  C22F 9658   5.378   0.637   5.159
   7323SM  H22F 9659   5.286   0.616   5.217
   7323SM  H22G 9660   5.465   0.624   5.227
   7323SM  C23F 9661   5.388   0.535   5.045
   7323SM  H23F 9662   5.480   0.552   4.985
   7323SM  H23G 9663   5.300   0.543   4.978
   7323SM  H23H 9664   5.391   0.432   5.085
   7423SM     N 9665   0.487   4.548   7.652
   7423SM   C15 9666   0.586   4.637   7.721
   7423SM  H15A 9667   0.631   4.707   7.652
   7423SM  H15B 9668   0.665   4.579   7.766
   7423SM  H15C 9669   0.539   4.696   7.799
   7423SM   C14 9670   0.429   4.452   7.751
   7423SM  H14A 9671   0.507   4.392   7.797
   7423SM  H14B 9672   0.366   4.381   7.699
   7423SM  H14C 9673   0.372   4.501   7.828
   7423SM   C13 9674   0.376   4.633   7.597
   7423SM  H13A 9675   0.303   4.571   7.547
   7423SM  H13B 9676   0.413   4.705   7.526
   7423SM  H13C 9677   0.326   4.686   7.676
   7423SM   C12 9678   0.555   4.471   7.540
   7423SM  H12A 9679   0.644   4.424   7.579
   7423SM  H12B 9680   0.587   4.540   7.464
   7423SM   C11 9681   0.473   4.357   7.474
   7423SM  H11A 9682   0.513   4.339   7.372
   7423SM  H11B 9683   0.368   4.389   7.460
   7423SM     P 9684   0.611   4.155   7.561
   7423SM   O13 9685   0.716   4.243   7.618
   7423SM   O14 9686   0.589   4.026   7.629
   7423SM   O11 9687   0.647   4.129   7.409
   7423SM   O12 9688   0.476   4.238   7.554
   7423SM   C1S 9689   0.553   4.067   7.321
   7423SM   H1S 9690   0.450   4.107   7.335
   7423SM   H1T 9691   0.550   3.957   7.339
   7423SM    NF 9692   0.491   4.051   7.078
   7423SM   HNF 9693   0.520   3.988   7.006
   7423SM   C2S 9694   0.595   4.092   7.173
   7423SM   H2S 9695   0.612   4.201   7.159
   7423SM   C3S 9696   0.731   4.019   7.148
   7423SM   H3S 9697   0.723   3.916   7.188
   7423SM    O3 9698   0.840   4.082   7.214
   7423SM   HO3 9699   0.800   4.125   7.291
   7423SM   C4S 9700   0.759   4.014   7.001
   7423SM   H4S 9701   0.788   4.110   6.955
   7423SM   C5S 9702   0.754   3.902   6.926
   7423SM   H5S 9703   0.738   3.805   6.977
   7423SM   C6S 9704   0.779   3.887   6.779
   7423SM   H6S 9705   0.689   3.843   6.731
   7423SM   H6T 9706   0.861   3.814   6.762
   7423SM   C7S 9707   0.814   4.016   6.704
   7423SM   H7S 9708   0.911   4.052   6.743
   7423SM   H7T 9709   0.736   4.094   6.724
   7423SM   C8S 9710   0.827   3.995   6.553
   7423SM   H8S 9711   0.879   3.899   6.533
   7423SM   H8T 9712   0.890   4.076   6.512
   7423SM   C9S 9713   0.693   3.998   6.477
   7423SM   H9S 9714   0.636   4.088   6.507
   7423SM   H9T 9715   0.633   3.908   6.503
   7423SM  C10S 9716   0.718   4.003   6.326
   7423SM  H10S 9717   0.769   3.909   6.295
   7423SM  H10T 9718   0.787   4.087   6.304
   7423SM  C11S 9719   0.593   4.022   6.240
   7423SM  H11S 9720   0.537   4.112   6.272
   7423SM  H11T 9721   0.526   3.934   6.252
   7423SM  C12S 9722   0.634   4.036   6.093
   7423SM  H12S 9723   0.693   3.946   6.065
   7423SM  H12T 9724   0.701   4.125   6.083
   7423SM  C13S 9725   0.519   4.052   5.992
   7423SM  H13S 9726   0.467   4.149   6.009
   7423SM  H13T 9727   0.445   3.971   6.008
   7423SM  C14S 9728   0.576   4.045   5.850
   7423SM  H14S 9729   0.632   3.950   5.839
   7423SM  H14T 9730   0.647   4.129   5.835
   7423SM  C15S 9731   0.470   4.050   5.739
   7423SM  H15S 9732   0.409   4.142   5.750
   7423SM  H15T 9733   0.402   3.963   5.750
   7423SM  C16S 9734   0.536   4.045   5.600
   7423SM  H16S 9735   0.605   3.958   5.596
   7423SM  H16T 9736   0.598   4.137   5.586
   7423SM  C17S 9737   0.436   4.033   5.485
   7423SM  H17S 9738   0.368   4.121   5.487
   7423SM  H17T 9739   0.374   3.943   5.501
   7423SM  C18S 9740   0.504   4.025   5.349
   7423SM  H18S 9741   0.575   3.939   5.346
   7423SM  H18T 9742   0.562   4.118   5.329
   7423SM  H18U 9743   0.429   4.012   5.268
   7423SM   C1F 9744   0.376   4.118   7.065
   7423SM    OF 9745   0.345   4.205   7.144
   7423SM   C2F 9746   0.291   4.084   6.946
   7423SM   H2F 9747   0.209   4.016   6.979
   7423SM   H2G 9748   0.352   4.033   6.869
   7423SM   C3F 9749   0.229   4.212   6.885
   7423SM   H3F 9750   0.309   4.282   6.853
   7423SM   H3G 9751   0.169   4.264   6.963
   7423SM   C4F 9752   0.135   4.184   6.765
   7423SM   H4F 9753   0.075   4.275   6.744
   7423SM   H4G 9754   0.063   4.104   6.793
   7423SM   C5F 9755   0.207   4.142   6.635
   7423SM   H5F 9756   0.129   4.126   6.558
   7423SM   H5G 9757   0.259   4.045   6.651
   7423SM   C6F 9758   0.308   4.245   6.580
   7423SM   H6F 9759   0.343   4.208   6.481
   7423SM   H6G 9760   0.397   4.250   6.647
   7423SM   C7F 9761   0.250   4.387   6.563
   7423SM   H7F 9762   0.223   4.426   6.663
   7423SM   H7G 9763   0.157   4.382   6.503
   7423SM   C8F 9764   0.349   4.486   6.499
   7423SM   H8F 9765   0.443   4.486   6.557
   7423SM   H8G 9766   0.305   4.588   6.506
   7423SM   C9F 9767   0.381   4.460   6.351
   7423SM   H9F 9768   0.433   4.363   6.339
   7423SM   H9G 9769   0.451   4.540   6.318
   7423SM  C10F 9770   0.257   4.462   6.260
   7423SM  H10F 9771   0.196   4.552   6.285
   7423SM  H10G 9772   0.195   4.372   6.281
   7423SM  C11F 9773   0.289   4.467   6.110
   7423SM  H11F 9774   0.192   4.460   6.054
   7423SM  H11G 9775   0.350   4.379   6.082
   7423SM  C12F 9776   0.360   4.596   6.067
   7423SM  H12F 9777   0.465   4.594   6.102
   7423SM  H12G 9778   0.310   4.682   6.116
   7423SM  C13F 9779   0.357   4.620   5.915
   7423SM  H13F 9780   0.404   4.718   5.892
   7423SM  H13G 9781   0.252   4.624   5.880
   7423SM  C14F 9782   0.431   4.510   5.836
   7423SM  H14F 9783   0.385   4.412   5.859
   7423SM  H14G 9784   0.537   4.507   5.869
   7423SM  C15F 9785   0.426   4.531   5.684
   7423SM  H15F 9786   0.472   4.628   5.657
   7423SM  H15G 9787   0.319   4.534   5.652
   7423SM  C16F 9788   0.497   4.416   5.611
   7423SM  H16F 9789   0.452   4.321   5.644
   7423SM  H16G 9790   0.604   4.415   5.642
   7423SM  C17F 9791   0.489   4.422   5.458
   7423SM  H17F 9792   0.546   4.335   5.418
   7423SM  H17G 9793   0.539   4.514   5.421
   7423SM  C18F 9794   0.346   4.415   5.404
   7423SM  H18F 9795   0.297   4.515   5.412
   7423SM  H18G 9796   0.288   4.344   5.467
   7423SM  C19F 9797   0.338   4.364   5.259
   7423SM  H19F 9798   0.232   4.352   5.229
   7423SM  H19G 9799   0.384   4.262   5.257
   7423SM  C20F 9800   0.410   4.454   5.158
   7423SM  H20F 9801   0.506   4.491   5.200
   7423SM  H20G 9802   0.346   4.542   5.137
   7423SM  C21F 9803   0.441   4.381   5.026
   7423SM  H21F 9804   0.463   4.457   4.947
   7423SM  H21G 9805   0.351   4.325   4.994
   7423SM  C22F 9806   0.562   4.287   5.036
   7423SM  H22F 9807   0.540   4.207   5.111
   7423SM  H22G 9808   0.649   4.345   5.075
   7423SM  C23F 9809   0.603   4.221   4.904
   7423SM  H23F 9810   0.624   4.299   4.827
   7423SM  H23G 9811   0.521   4.157   4.865
   7423SM  H23H 9812   0.693   4.159   4.917
   7523SM     N 9813   6.767   5.408   7.689
   7523SM   C15 9814   6.655   5.350   7.768
   7523SM  H15A 9815   6.593   5.287   7.705
   7523SM  H15B 9816   6.590   5.428   7.807
   7523SM  H15C 9817   6.689   5.290   7.851
   7523SM   C14 9818   6.848   5.298   7.627
   7523SM  H14A 9819   6.938   5.340   7.585
   7523SM  H14B 9820   6.793   5.250   7.547
   7523SM  H14C 9821   6.877   5.224   7.700
   7523SM   C13 9822   6.708   5.490   7.578
   7523SM  H13A 9823   6.642   5.566   7.617
   7523SM  H13B 9824   6.651   5.428   7.510
   7523SM  H13C 9825   6.787   5.538   7.523
   7523SM   C12 9826   6.857   5.496   7.775
   7523SM  H12A 9827   6.908   5.434   7.847
   7523SM  H12B 9828   6.796   5.566   7.830
   7523SM   C11 9829   6.966   5.579   7.700
   7523SM  H11A 9830   7.018   5.640   7.777
   7523SM  H11B 9831   6.916   5.650   7.631
   7523SM     P 9832   7.156   5.551   7.524
   7523SM   O13 9833   7.243   5.654   7.586
   7523SM   O14 9834   7.222   5.440   7.452
   7523SM   O11 9835   7.055   5.622   7.425
   7523SM   O12 9836   7.059   5.493   7.634
   7523SM   C1S 9837   6.957   5.550   7.349
   7523SM   H1S 9838   6.858   5.595   7.370
   7523SM   H1T 9839   6.951   5.442   7.375
   7523SM    NF 9840   7.039   5.445   7.141
   7523SM   HNF 9841   7.138   5.437   7.149
   7523SM   C2S 9842   6.976   5.565   7.194
   7523SM   H2S 9843   6.875   5.576   7.150
   7523SM   C3S 9844   7.055   5.696   7.165
   7523SM   H3S 9845   7.161   5.686   7.197
   7523SM    O3 9846   6.998   5.804   7.238
   7523SM   HO3 9847   7.008   5.770   7.328
   7523SM   C4S 9848   7.048   5.727   7.018
   7523SM   H4S 9849   6.974   5.804   6.991
   7523SM   C5S 9850   7.126   5.674   6.922
   7523SM   H5S 9851   7.203   5.601   6.950
   7523SM   C6S 9852   7.117   5.706   6.776
   7523SM   H6S 9853   7.218   5.728   6.736
   7523SM   H6T 9854   7.057   5.797   6.757
   7523SM   C7S 9855   7.053   5.590   6.695
   7523SM   H7S 9856   6.950   5.571   6.731
   7523SM   H7T 9857   7.112   5.497   6.711
   7523SM   C8S 9858   7.047   5.619   6.544
   7523SM   H8S 9859   7.150   5.643   6.509
   7523SM   H8T 9860   6.984   5.709   6.525
   7523SM   C9S 9861   6.994   5.500   6.462
   7523SM   H9S 9862   6.883   5.506   6.459
   7523SM   H9T 9863   7.021   5.406   6.514
   7523SM  C10S 9864   7.050   5.493   6.319
   7523SM  H10S 9865   7.005   5.405   6.268
   7523SM  H10T 9866   7.160   5.477   6.324
   7523SM  C11S 9867   7.022   5.618   6.234
   7523SM  H11S 9868   7.062   5.708   6.286
   7523SM  H11T 9869   6.912   5.632   6.224
   7523SM  C12S 9870   7.087   5.611   6.095
   7523SM  H12S 9871   7.050   5.521   6.042
   7523SM  H12T 9872   7.197   5.602   6.107
   7523SM  C13S 9873   7.056   5.735   6.010
   7523SM  H13S 9874   7.079   5.826   6.069
   7523SM  H13T 9875   6.947   5.737   5.987
   7523SM  C14S 9876   7.135   5.742   5.879
   7523SM  H14S 9877   7.117   5.648   5.821
   7523SM  H14T 9878   7.244   5.746   5.903
   7523SM  C15S 9879   7.097   5.863   5.793
   7523SM  H15S 9880   7.115   5.957   5.850
   7523SM  H15T 9881   6.988   5.858   5.770
   7523SM  C16S 9882   7.176   5.867   5.661
   7523SM  H16S 9883   7.164   5.769   5.610
   7523SM  H16T 9884   7.284   5.881   5.684
   7523SM  C17S 9885   7.131   5.976   5.564
   7523SM  H17S 9886   7.141   6.075   5.614
   7523SM  H17T 9887   7.024   5.962   5.541
   7523SM  C18S 9888   7.212   5.976   5.434
   7523SM  H18S 9889   7.318   6.003   5.454
   7523SM  H18T 9890   7.170   6.049   5.361
   7523SM  H18U 9891   7.210   5.875   5.387
   7523SM   C1F 9892   6.967   5.336   7.117
   7523SM    OF 9893   6.845   5.339   7.129
   7523SM   C2F 9894   7.042   5.211   7.081
   7523SM   H2F 9895   7.060   5.152   7.173
   7523SM   H2G 9896   7.140   5.239   7.037
   7523SM   C3F 9897   6.962   5.124   6.980
   7523SM   H3F 9898   6.939   5.182   6.888
   7523SM   H3G 9899   6.866   5.097   7.027
   7523SM   C4F 9900   7.033   4.993   6.940
   7523SM   H4F 9901   6.954   4.918   6.921
   7523SM   H4G 9902   7.092   4.956   7.026
   7523SM   C5F 9903   7.115   5.002   6.810
   7523SM   H5F 9904   7.044   5.029   6.729
   7523SM   H5G 9905   7.154   4.900   6.785
   7523SM   C6F 9906   7.231   5.104   6.808
   7523SM   H6F 9907   7.300   5.084   6.892
   7523SM   H6G 9908   7.190   5.206   6.822
   7523SM   C7F 9909   7.310   5.101   6.676
   7523SM   H7F 9910   7.330   4.995   6.647
   7523SM   H7G 9911   7.409   5.149   6.692
   7523SM   C8F 9912   7.237   5.175   6.564
   7523SM   H8F 9913   7.230   5.283   6.592
   7523SM   H8G 9914   7.133   5.138   6.557
   7523SM   C9F 9915   7.298   5.165   6.423
   7523SM   H9F 9916   7.247   5.242   6.360
   7523SM   H9G 9917   7.274   5.066   6.379
   7523SM  C10F 9918   7.451   5.185   6.411
   7523SM  H10F 9919   7.500   5.085   6.409
   7523SM  H10G 9920   7.489   5.238   6.501
   7523SM  C11F 9921   7.492   5.266   6.286
   7523SM  H11F 9922   7.602   5.276   6.283
   7523SM  H11G 9923   7.449   5.368   6.295
   7523SM  C12F 9924   7.443   5.207   6.152
   7523SM  H12F 9925   7.333   5.191   6.157
   7523SM  H12G 9926   7.490   5.108   6.135
   7523SM  C13F 9927   7.473   5.300   6.033
   7523SM  H13F 9928   7.583   5.301   6.015
   7523SM  H13G 9929   7.443   5.404   6.059
   7523SM  C14F 9930   7.401   5.260   5.903
   7523SM  H14F 9931   7.421   5.152   5.883
   7523SM  H14G 9932   7.444   5.316   5.817
   7523SM  C15F 9933   7.250   5.287   5.907
   7523SM  H15F 9934   7.231   5.393   5.937
   7523SM  H15G 9935   7.205   5.222   5.985
   7523SM  C16F 9936   7.177   5.259   5.774
   7523SM  H16F 9937   7.228   5.175   5.723
   7523SM  H16G 9938   7.186   5.348   5.707
   7523SM  C17F 9939   7.030   5.221   5.795
   7523SM  H17F 9940   6.972   5.309   5.830
   7523SM  H17G 9941   7.026   5.144   5.876
   7523SM  C18F 9942   6.964   5.159   5.671
   7523SM  H18F 9943   6.869   5.109   5.702
   7523SM  H18G 9944   7.031   5.081   5.630
   7523SM  C19F 9945   6.930   5.263   5.563
   7523SM  H19F 9946   7.021   5.320   5.536
   7523SM  H19G 9947   6.856   5.334   5.606
   7523SM  C20F 9948   6.870   5.201   5.435
   7523SM  H20F 9949   6.833   5.283   5.370
   7523SM  H20G 9950   6.783   5.137   5.462
   7523SM  C21F 9951   6.971   5.118   5.355
   7523SM  H21F 9952   6.999   5.027   5.412
   7523SM  H21G 9953   7.064   5.178   5.340
   7523SM  C22F 9954   6.918   5.078   5.216
   7523SM  H22F 9955   6.892   5.170   5.160
   7523SM  H22G 9956   6.825   5.019   5.229
   7523SM  C23F 9957   7.019   4.996   5.135
   7523SM  H23F 9958   6.979   4.974   5.034
   7523SM  H23G 9959   7.042   4.900   5.186
   7523SM  H23H 9960   7.115   5.052   5.124
   7623SM     N 9961   0.640   5.929   7.837
   7623SM   C15 9962   0.592   5.793   7.876
   7623SM  H15A 9963   0.532   5.753   7.796
   7623SM  H15B 9964   0.534   5.794   7.967
   7623SM  H15C 9965   0.676   5.726   7.888
   7623SM   C14 9966   0.524   6.024   7.839
   7623SM  H14A 9967   0.483   6.033   7.938
   7623SM  H14B 9968   0.446   5.992   7.772
   7623SM  H14C 9969   0.554   6.123   7.808
   7623SM   C13 9970   0.743   5.976   7.936
   7623SM  H13A 9971   0.826   5.907   7.941
   7623SM  H13B 9972   0.700   5.982   8.035
   7623SM  H13C 9973   0.780   6.074   7.911
   7623SM   C12 9974   0.700   5.924   7.697
   7623SM  H12A 9975   0.787   5.860   7.698
   7623SM  H12B 9976   0.732   6.023   7.669
   7623SM   C11 9977   0.607   5.871   7.585
   7623SM  H11A 9978   0.652   5.901   7.488
   7623SM  H11B 9979   0.508   5.922   7.589
   7623SM     P 9980   0.689   5.631   7.525
   7623SM   O13 9981   0.823   5.655   7.583
   7623SM   O14 9982   0.640   5.491   7.531
   7623SM   O11 9983   0.687   5.680   7.375
   7623SM   O12 9984   0.586   5.729   7.595
   7623SM   C1S 9985   0.562   5.713   7.311
   7623SM   H1S 9986   0.553   5.824   7.307
   7623SM   H1T 9987   0.473   5.677   7.366
   7623SM    NF 9988   0.516   5.523   7.159
   7623SM   HNF 9989   0.580   5.458   7.119
   7623SM   C2S 9990   0.556   5.663   7.164
   7623SM   H2S 9991   0.478   5.721   7.110
   7623SM   C3S 9992   0.693   5.689   7.094
   7623SM   H3S 9993   0.775   5.639   7.150
   7623SM    O3 9994   0.726   5.828   7.090
   7623SM   HO3 9995   0.671   5.868   7.158
   7623SM   C4S 9996   0.692   5.637   6.953
   7623SM   H4S 9997   0.643   5.702   6.879
   7623SM   C5S 9998   0.749   5.522   6.913
   7623SM   H5S 9999   0.799   5.458   6.987
   7623SM   C6S10000   0.751   5.467   6.773
   7623SM   H6S10001   0.662   5.402   6.758
   7623SM   H6T10002   0.839   5.401   6.762
   7623SM   C7S10003   0.756   5.568   6.656
   7623SM   H7S10004   0.848   5.630   6.664
   7623SM   H7T10005   0.668   5.635   6.659
   7623SM   C8S10006   0.758   5.493   6.522
   7623SM   H8S10007   0.663   5.436   6.514
   7623SM   H8T10008   0.841   5.419   6.522
   7623SM   C9S10009   0.771   5.582   6.398
   7623SM   H9S10010   0.866   5.640   6.402
   7623SM   H9T10011   0.688   5.655   6.396
   7623SM  C10S10012   0.768   5.496   6.270
   7623SM  H10S10013   0.678   5.432   6.272
   7623SM  H10T10014   0.856   5.429   6.271
   7623SM  C11S10015   0.768   5.576   6.139
   7623SM  H11S10016   0.853   5.647   6.136
   7623SM  H11T10017   0.674   5.635   6.131
   7623SM  C12S10018   0.776   5.481   6.018
   7623SM  H12S10019   0.696   5.404   6.028
   7623SM  H12T10020   0.874   5.429   6.022
   7623SM  C13S10021   0.759   5.550   5.882
   7623SM  H13S10022   0.803   5.652   5.886
   7623SM  H13T10023   0.651   5.560   5.861
   7623SM  C14S10024   0.828   5.473   5.768
   7623SM  H14S10025   0.808   5.364   5.780
   7623SM  H14T10026   0.937   5.488   5.777
   7623SM  C15S10027   0.784   5.514   5.627
   7623SM  H15S10028   0.786   5.624   5.618
   7623SM  H15T10029   0.679   5.481   5.613
   7623SM  C16S10030   0.873   5.451   5.519
   7623SM  H16S10031   0.881   5.342   5.536
   7623SM  H16T10032   0.975   5.494   5.530
   7623SM  C17S10033   0.823   5.475   5.376
   7623SM  H17S10034   0.905   5.449   5.306
   7623SM  H17T10035   0.802   5.583   5.363
   7623SM  C18S10036   0.700   5.393   5.339
   7623SM  H18S10037   0.670   5.412   5.234
   7623SM  H18T10038   0.614   5.418   5.405
   7623SM  H18U10039   0.721   5.284   5.350
   7623SM   C1F10040   0.393   5.482   7.192
   7623SM    OF10041   0.309   5.560   7.234
   7623SM   C2F10042   0.364   5.336   7.174
   7623SM   H2F10043   0.312   5.298   7.264
   7623SM   H2G10044   0.460   5.281   7.163
   7623SM   C3F10045   0.277   5.314   7.048
   7623SM   H3F10046   0.173   5.348   7.068
   7623SM   H3G10047   0.273   5.205   7.027
   7623SM   C4F10048   0.331   5.387   6.925
   7623SM   H4F10049   0.441   5.369   6.916
   7623SM   H4G10050   0.316   5.496   6.937
   7623SM   C5F10051   0.266   5.344   6.794
   7623SM   H5F10052   0.155   5.338   6.804
   7623SM   H5G10053   0.302   5.243   6.768
   7623SM   C6F10054   0.300   5.444   6.682
   7623SM   H6F10055   0.404   5.479   6.696
   7623SM   H6G10056   0.233   5.532   6.692
   7623SM   C7F10057   0.286   5.385   6.541
   7623SM   H7F10058   0.192   5.326   6.534
   7623SM   H7G10059   0.371   5.316   6.524
   7623SM   C8F10060   0.286   5.491   6.430
   7623SM   H8F10061   0.185   5.535   6.421
   7623SM   H8G10062   0.309   5.441   6.334
   7623SM   C9F10063   0.386   5.606   6.453
   7623SM   H9F10064   0.478   5.567   6.503
   7623SM   H9G10065   0.340   5.681   6.521
   7623SM  C10F10066   0.428   5.672   6.321
   7623SM  H10F10067   0.341   5.671   6.252
   7623SM  H10G10068   0.506   5.609   6.274
   7623SM  C11F10069   0.476   5.817   6.334
   7623SM  H11F10070   0.551   5.827   6.416
   7623SM  H11G10071   0.389   5.880   6.361
   7623SM  C12F10072   0.537   5.864   6.202
   7623SM  H12F10073   0.494   5.800   6.122
   7623SM  H12G10074   0.647   5.847   6.201
   7623SM  C13F10075   0.506   6.009   6.163
   7623SM  H13F10076   0.582   6.078   6.207
   7623SM  H13G10077   0.407   6.038   6.203
   7623SM  C14F10078   0.500   6.026   6.010
   7623SM  H14F10079   0.474   6.131   5.984
   7623SM  H14G10080   0.418   5.961   5.972
   7623SM  C15F10081   0.631   5.987   5.938
   7623SM  H15F10082   0.671   5.891   5.977
   7623SM  H15G10083   0.706   6.066   5.959
   7623SM  C16F10084   0.612   5.972   5.786
   7623SM  H16F10085   0.711   5.983   5.735
   7623SM  H16G10086   0.546   6.053   5.749
   7623SM  C17F10087   0.553   5.836   5.748
   7623SM  H17F10088   0.465   5.816   5.812
   7623SM  H17G10089   0.628   5.757   5.769
   7623SM  C18F10090   0.509   5.827   5.602
   7623SM  H18F10091   0.597   5.837   5.534
   7623SM  H18G10092   0.441   5.912   5.581
   7623SM  C19F10093   0.435   5.696   5.572
   7623SM  H19F10094   0.366   5.675   5.656
   7623SM  H19G10095   0.507   5.611   5.567
   7623SM  C20F10096   0.352   5.703   5.444
   7623SM  H20F10097   0.297   5.799   5.445
   7623SM  H20G10098   0.277   5.621   5.444
   7623SM  C21F10099   0.435   5.693   5.315
   7623SM  H21F10100   0.479   5.591   5.309
   7623SM  H21G10101   0.519   5.765   5.317
   7623SM  C22F10102   0.350   5.718   5.189
   7623SM  H22F10103   0.256   5.660   5.197
   7623SM  H22G10104   0.405   5.679   5.100
   7623SM  C23F10105   0.319   5.866   5.165
   7623SM  H23F10106   0.256   5.878   5.074
   7623SM  H23G10107   0.412   5.924   5.151
   7623SM  H23H10108   0.263   5.910   5.251
   7723SM     N10109   0.260   1.925   7.830
   7723SM   C1510110   0.328   1.803   7.778
   7723SM  H15A10111   0.256   1.730   7.744
   7723SM  H15B10112   0.389   1.755   7.854
   7723SM  H15C10113   0.393   1.828   7.696
   7723SM   C1410114   0.174   1.888   7.947
   7723SM  H14A10115   0.233   1.842   8.025
   7723SM  H14B10116   0.098   1.817   7.916
   7723SM  H14C10117   0.124   1.975   7.987
   7723SM   C1310118   0.366   2.022   7.873
   7723SM  H13A10119   0.437   1.977   7.941
   7723SM  H13B10120   0.322   2.111   7.919
   7723SM  H13C10121   0.418   2.056   7.785
   7723SM   C1210122   0.176   1.989   7.720
   7723SM  H12A10123   0.141   2.085   7.754
   7723SM  H12B10124   0.088   1.929   7.702
   7723SM   C1110125   0.245   2.013   7.583
   7723SM  H11A10126   0.170   2.064   7.519
   7723SM  H11B10127   0.269   1.914   7.537
   7723SM     P10128   0.460   2.122   7.477
   7723SM   O1310129   0.441   2.261   7.433
   7723SM   O1410130   0.596   2.085   7.524
   7723SM   O1110131   0.417   2.022   7.362
   7723SM   O1210132   0.362   2.093   7.596
   7723SM   C1S10133   0.301   2.044   7.280
   7723SM   H1S10134   0.243   2.132   7.315
   7723SM   H1T10135   0.233   1.956   7.287
   7723SM    NF10136   0.220   2.097   7.047
   7723SM   HNF10137   0.210   2.042   6.965
   7723SM   C2S10138   0.337   2.064   7.130
   7723SM   H2S10139   0.408   2.149   7.124
   7723SM   C3S10140   0.408   1.935   7.077
   7723SM   H3S10141   0.335   1.851   7.080
   7723SM    O310142   0.519   1.891   7.156
   7723SM   HO310143   0.506   1.939   7.238
   7723SM   C4S10144   0.455   1.955   6.935
   7723SM   H4S10145   0.527   2.037   6.921
   7723SM   C5S10146   0.418   1.879   6.830
   7723SM   H5S10147   0.350   1.794   6.847
   7723SM   C6S10148   0.461   1.893   6.686
   7723SM   H6S10149   0.371   1.885   6.621
   7723SM   H6T10150   0.525   1.807   6.659
   7723SM   C7S10151   0.533   2.023   6.644
   7723SM   H7S10152   0.629   2.034   6.700
   7723SM   H7T10153   0.467   2.109   6.670
   7723SM   C8S10154   0.562   2.031   6.493
   7723SM   H8S10155   0.590   2.135   6.465
   7723SM   H8T10156   0.468   2.007   6.439
   7723SM   C9S10157   0.675   1.937   6.445
   7723SM   H9S10158   0.683   1.854   6.518
   7723SM   H9T10159   0.772   1.990   6.445
   7723SM  C10S10160   0.648   1.873   6.308
   7723SM  H10S10161   0.540   1.847   6.301
   7723SM  H10T10162   0.705   1.778   6.301
   7723SM  C11S10163   0.684   1.958   6.186
   7723SM  H11S10164   0.793   1.978   6.187
   7723SM  H11T10165   0.632   2.056   6.192
   7723SM  C12S10166   0.645   1.887   6.056
   7723SM  H12S10167   0.535   1.878   6.050
   7723SM  H12T10168   0.687   1.784   6.057
   7723SM  C13S10169   0.697   1.959   5.931
   7723SM  H13S10170   0.808   1.966   5.937
   7723SM  H13T10171   0.655   2.062   5.930
   7723SM  C14S10172   0.659   1.889   5.800
   7723SM  H14S10173   0.549   1.886   5.789
   7723SM  H14T10174   0.695   1.783   5.804
   7723SM  C15S10175   0.722   1.957   5.677
   7723SM  H15S10176   0.832   1.963   5.692
   7723SM  H15T10177   0.684   2.061   5.669
   7723SM  C16S10178   0.693   1.882   5.547
   7723SM  H16S10179   0.584   1.885   5.526
   7723SM  H16T10180   0.722   1.775   5.560
   7723SM  C17S10181   0.768   1.937   5.427
   7723SM  H17S10182   0.877   1.935   5.449
   7723SM  H17T10183   0.738   2.043   5.411
   7723SM  C18S10184   0.743   1.858   5.299
   7723SM  H18S10185   0.806   1.896   5.215
   7723SM  H18T10186   0.636   1.866   5.268
   7723SM  H18U10187   0.767   1.751   5.315
   7723SM   C1F10188   0.137   2.201   7.063
   7723SM    OF10189   0.115   2.255   7.171
   7723SM   C2F10190   0.065   2.249   6.941
   7723SM   H2F10191  -0.040   2.272   6.969
   7723SM   H2G10192   0.065   2.167   6.865
   7723SM   C3F10193   0.133   2.376   6.885
   7723SM   H3F10194   0.239   2.353   6.861
   7723SM   H3G10195   0.132   2.455   6.963
   7723SM   C4F10196   0.066   2.430   6.758
   7723SM   H4F10197   0.125   2.515   6.719
   7723SM   H4G10198  -0.036   2.467   6.782
   7723SM   C5F10199   0.055   2.325   6.647
   7723SM   H5F10200  -0.023   2.251   6.675
   7723SM   H5G10201   0.152   2.271   6.637
   7723SM   C6F10202   0.018   2.385   6.510
   7723SM   H6F10203   0.106   2.439   6.471
   7723SM   H6G10204  -0.064   2.459   6.523
   7723SM   C7F10205  -0.028   2.280   6.408
   7723SM   H7F10206  -0.022   2.324   6.306
   7723SM   H7G10207  -0.135   2.255   6.427
   7723SM   C8F10208   0.052   2.149   6.412
   7723SM   H8F10209   0.038   2.099   6.510
   7723SM   H8G10210   0.160   2.171   6.400
   7723SM   C9F10211   0.010   2.050   6.302
   7723SM   H9F10212   0.031   2.096   6.203
   7723SM   H9G10213  -0.100   2.033   6.308
   7723SM  C10F10214   0.082   1.915   6.315
   7723SM  H10F10215   0.054   1.870   6.413
   7723SM  H10G10216   0.191   1.932   6.316
   7723SM  C11F10217   0.047   1.817   6.203
   7723SM  H11F10218  -0.063   1.807   6.195
   7723SM  H11G10219   0.088   1.717   6.229
   7723SM  C12F10220   0.105   1.859   6.067
   7723SM  H12F10221   0.215   1.872   6.076
   7723SM  H12G10222   0.061   1.957   6.037
   7723SM  C13F10223   0.076   1.758   5.956
   7723SM  H13F10224  -0.035   1.745   5.950
   7723SM  H13G10225   0.120   1.660   5.981
   7723SM  C14F10226   0.126   1.804   5.818
   7723SM  H14F10227   0.236   1.817   5.820
   7723SM  H14G10228   0.082   1.902   5.794
   7723SM  C15F10229   0.086   1.703   5.709
   7723SM  H15F10230  -0.019   1.672   5.729
   7723SM  H15G10231   0.149   1.612   5.718
   7723SM  C16F10232   0.091   1.756   5.565
   7723SM  H16F10233   0.002   1.821   5.546
   7723SM  H16G10234   0.080   1.667   5.498
   7723SM  C17F10235   0.217   1.832   5.523
   7723SM  H17F10236   0.304   1.798   5.583
   7723SM  H17G10237   0.203   1.940   5.544
   7723SM  C18F10238   0.248   1.810   5.374
   7723SM  H18F10239   0.153   1.812   5.317
   7723SM  H18G10240   0.290   1.708   5.363
   7723SM  C19F10241   0.345   1.912   5.313
   7723SM  H19F10242   0.412   1.860   5.241
   7723SM  H19G10243   0.409   1.954   5.394
   7723SM  C20F10244   0.274   2.027   5.239
   7723SM  H20F10245   0.345   2.110   5.223
   7723SM  H20G10246   0.193   2.065   5.305
   7723SM  C21F10247   0.214   1.986   5.103
   7723SM  H21F10248   0.135   2.059   5.077
   7723SM  H21G10249   0.165   1.887   5.111
   7723SM  C22F10250   0.317   1.986   4.990
   7723SM  H22F10251   0.398   1.913   5.014
   7723SM  H22G10252   0.363   2.086   4.983
   7723SM  C23F10253   0.256   1.952   4.853
   7723SM  H23F10254   0.208   1.852   4.856
   7723SM  H23G10255   0.335   1.951   4.775
   7723SM  H23H10256   0.180   2.027   4.825
   7823SM     N10257   1.274   7.119   7.792
   7823SM   C1510258   1.397   7.044   7.750
   7823SM  H15A10259   1.396   7.033   7.642
   7823SM  H15B10260   1.398   6.944   7.791
   7823SM  H15C10261   1.487   7.096   7.777
   7823SM   C1410262   1.153   7.047   7.741
   7823SM  H14A10263   1.153   7.054   7.633
   7823SM  H14B10264   1.062   7.092   7.777
   7823SM  H14C10265   1.157   6.942   7.767
   7823SM   C1310266   1.270   7.124   7.942
   7823SM  H13A10267   1.260   7.024   7.982
   7823SM  H13B10268   1.187   7.183   7.977
   7823SM  H13C10269   1.362   7.165   7.981
   7823SM   C1210270   1.281   7.259   7.733
   7823SM  H12A10271   1.360   7.313   7.783
   7823SM  H12B10272   1.190   7.313   7.755
   7823SM   C1110273   1.308   7.272   7.580
   7823SM  H11A10274   1.411   7.236   7.559
   7823SM  H11B10275   1.308   7.381   7.555
   7823SM     P10276   1.247   7.102   7.390
   7823SM   O1310277   1.304   6.983   7.457
   7823SM   O1410278   1.131   7.079   7.301
   7823SM   O1110279   1.362   7.173   7.308
   7823SM   O1210280   1.208   7.207   7.501
   7823SM   C1S10281   1.350   7.309   7.264
   7823SM   H1S10282   1.445   7.362   7.287
   7823SM   H1T10283   1.270   7.366   7.316
   7823SM    NF10284   1.188   7.301   7.076
   7823SM   HNF10285   1.166   7.210   7.042
   7823SM   C2S10286   1.328   7.322   7.110
   7823SM   H2S10287   1.354   7.426   7.080
   7823SM   C3S10288   1.420   7.224   7.032
   7823SM   H3S10289   1.392   7.118   7.054
   7823SM    O310290   1.559   7.234   7.062
   7823SM   HO310291   1.576   7.328   7.075
   7823SM   C4S10292   1.403   7.251   6.886
   7823SM   H4S10293   1.445   7.347   6.854
   7823SM   C5S10294   1.343   7.172   6.795
   7823SM   H5S10295   1.297   7.077   6.828
   7823SM   C6S10296   1.326   7.204   6.648
   7823SM   H6S10297   1.219   7.196   6.621
   7823SM   H6T10298   1.380   7.127   6.588
   7823SM   C7S10299   1.374   7.344   6.604
   7823SM   H7S10300   1.483   7.355   6.623
   7823SM   H7T10301   1.322   7.420   6.665
   7823SM   C8S10302   1.347   7.375   6.456
   7823SM   H8S10303   1.238   7.362   6.437
   7823SM   H8T10304   1.402   7.305   6.389
   7823SM   C9S10305   1.386   7.519   6.421
   7823SM   H9S10306   1.497   7.527   6.423
   7823SM   H9T10307   1.346   7.585   6.501
   7823SM  C10S10308   1.332   7.570   6.286
   7823SM  H10S10309   1.367   7.675   6.274
   7823SM  H10T10310   1.221   7.571   6.287
   7823SM  C11S10311   1.381   7.493   6.162
   7823SM  H11S10312   1.334   7.393   6.159
   7823SM  H11T10313   1.491   7.480   6.169
   7823SM  C12S10314   1.349   7.571   6.033
   7823SM  H12S10315   1.387   7.675   6.045
   7823SM  H12T10316   1.239   7.576   6.019
   7823SM  C13S10317   1.414   7.511   5.908
   7823SM  H13S10318   1.372   7.410   5.888
   7823SM  H13T10319   1.523   7.499   5.927
   7823SM  C14S10320   1.395   7.600   5.785
   7823SM  H14S10321   1.430   7.703   5.810
   7823SM  H14T10322   1.287   7.608   5.762
   7823SM  C15S10323   1.471   7.551   5.660
   7823SM  H15S10324   1.531   7.461   5.686
   7823SM  H15T10325   1.542   7.631   5.629
   7823SM  C16S10326   1.380   7.519   5.541
   7823SM  H16S10327   1.443   7.508   5.450
   7823SM  H16T10328   1.311   7.605   5.523
   7823SM  C17S10329   1.299   7.390   5.558
   7823SM  H17S10330   1.242   7.394   5.653
   7823SM  H17T10331   1.370   7.305   5.564
   7823SM  C18S10332   1.202   7.365   5.442
   7823SM  H18S10333   1.150   7.267   5.455
   7823SM  H18T10334   1.256   7.364   5.345
   7823SM  H18U10335   1.125   7.445   5.438
   7823SM   C1F10336   1.086   7.382   7.104
   7823SM    OF10337   1.101   7.490   7.164
   7823SM   C2F10338   0.952   7.332   7.062
   7823SM   H2F10339   0.892   7.311   7.152
   7823SM   H2G10340   0.964   7.237   7.006
   7823SM   C3F10341   0.878   7.433   6.970
   7823SM   H3F10342   0.856   7.527   7.026
   7823SM   H3G10343   0.780   7.388   6.941
   7823SM   C4F10344   0.956   7.466   6.842
   7823SM   H4F10345   0.982   7.372   6.789
   7823SM   H4G10346   1.051   7.517   6.869
   7823SM   C5F10347   0.878   7.558   6.747
   7823SM   H5F10348   0.837   7.643   6.806
   7823SM   H5G10349   0.792   7.503   6.704
   7823SM   C6F10350   0.965   7.615   6.634
   7823SM   H6F10351   1.051   7.669   6.680
   7823SM   H6G10352   0.907   7.690   6.577
   7823SM   C7F10353   1.021   7.511   6.536
   7823SM   H7F10354   1.075   7.431   6.591
   7823SM   H7G10355   1.096   7.562   6.472
   7823SM   C8F10356   0.914   7.449   6.444
   7823SM   H8F10357   0.855   7.532   6.401
   7823SM   H8G10358   0.845   7.385   6.503
   7823SM   C9F10359   0.974   7.368   6.328
   7823SM   H9F10360   1.066   7.418   6.292
   7823SM   H9G10361   0.902   7.367   6.243
   7823SM  C10F10362   1.004   7.221   6.363
   7823SM  H10F10363   0.909   7.166   6.379
   7823SM  H10G10364   1.061   7.218   6.459
   7823SM  C11F10365   1.087   7.152   6.254
   7823SM  H11F10366   1.182   7.209   6.241
   7823SM  H11G10367   1.032   7.158   6.157
   7823SM  C12F10368   1.120   7.006   6.286
   7823SM  H12F10369   1.027   6.944   6.288
   7823SM  H12G10370   1.163   7.004   6.388
   7823SM  C13F10371   1.224   6.944   6.190
   7823SM  H13F10372   1.292   6.880   6.250
   7823SM  H13G10373   1.285   7.025   6.146
   7823SM  C14F10374   1.166   6.856   6.078
   7823SM  H14F10375   1.108   6.774   6.124
   7823SM  H14G10376   1.251   6.810   6.023
   7823SM  C15F10377   1.078   6.928   5.975
   7823SM  H15F10378   1.140   6.998   5.915
   7823SM  H15G10379   0.999   6.987   6.026
   7823SM  C16F10380   1.009   6.828   5.881
   7823SM  H16F10381   0.936   6.770   5.941
   7823SM  H16G10382   1.084   6.754   5.843
   7823SM  C17F10383   0.934   6.893   5.763
   7823SM  H17F10384   0.891   6.990   5.796
   7823SM  H17G10385   0.849   6.827   5.736
   7823SM  C18F10386   1.018   6.912   5.636
   7823SM  H18F10387   1.100   6.985   5.654
   7823SM  H18G10388   0.952   6.954   5.557
   7823SM  C19F10389   1.078   6.780   5.584
   7823SM  H19F10390   1.009   6.697   5.610
   7823SM  H19G10391   1.175   6.760   5.635
   7823SM  C20F10392   1.098   6.776   5.432
   7823SM  H20F10393   1.169   6.855   5.401
   7823SM  H20G10394   1.001   6.796   5.382
   7823SM  C21F10395   1.150   6.639   5.387
   7823SM  H21F10396   1.081   6.560   5.423
   7823SM  H21G10397   1.249   6.620   5.433
   7823SM  C22F10398   1.163   6.627   5.234
   7823SM  H22F10399   1.233   6.705   5.198
   7823SM  H22G10400   1.064   6.647   5.188
   7823SM  C23F10401   1.212   6.489   5.189
   7823SM  H23F10402   1.143   6.409   5.223
   7823SM  H23G10403   1.313   6.468   5.230
   7823SM  H23H10404   1.218   6.485   5.078
   7923SM     N10405   6.913   0.528   7.798
   7923SM   C1510406   6.870   0.667   7.835
   7923SM  H15A10407   6.788   0.665   7.905
   7923SM  H15B10408   6.837   0.721   7.747
   7923SM  H15C10409   6.948   0.726   7.880
   7923SM   C1410410   7.006   0.528   7.680
   7923SM  H14A10411   7.036   0.427   7.657
   7923SM  H14B10412   7.095   0.587   7.692
   7923SM  H14C10413   6.952   0.563   7.593
   7923SM   C1310414   6.979   0.459   7.913
   7923SM  H13A10415   7.001   0.356   7.887
   7923SM  H13B10416   6.916   0.456   8.001
   7923SM  H13C10417   7.073   0.505   7.942
   7923SM   C1210418   6.789   0.448   7.758
   7923SM  H12A10419   6.722   0.442   7.842
   7923SM  H12B10420   6.819   0.347   7.736
   7923SM   C1110421   6.709   0.497   7.634
   7923SM  H11A10422   6.686   0.605   7.644
   7923SM  H11B10423   6.611   0.445   7.631
   7923SM     P10424   6.784   0.331   7.448
   7923SM   O1310425   6.785   0.232   7.558
   7923SM   O1410426   6.677   0.324   7.347
   7923SM   O1110427   6.925   0.325   7.376
   7923SM   O1210428   6.782   0.476   7.512
   7923SM   C1S10429   6.991   0.439   7.319
   7923SM   H1S10430   7.101   0.424   7.330
   7923SM   H1T10431   6.967   0.533   7.373
   7923SM    NF10432   6.822   0.502   7.154
   7923SM   HNF10433   6.754   0.430   7.163
   7923SM   C2S10434   6.960   0.458   7.167
   7923SM   H2S10435   7.027   0.537   7.127
   7923SM   C3S10436   6.991   0.326   7.089
   7923SM   H3S10437   6.931   0.243   7.133
   7923SM    O310438   7.128   0.284   7.096
   7923SM   HO310439   7.169   0.341   7.162
   7923SM   C4S10440   6.947   0.343   6.945
   7923SM   H4S10441   6.849   0.298   6.925
   7923SM   C5S10442   7.013   0.403   6.843
   7923SM   H5S10443   7.112   0.447   6.860
   7923SM   C6S10444   6.959   0.414   6.703
   7923SM   H6S10445   6.898   0.506   6.694
   7923SM   H6T10446   6.890   0.329   6.679
   7923SM   C7S10447   7.068   0.419   6.594
   7923SM   H7S10448   7.122   0.322   6.590
   7923SM   H7T10449   7.141   0.498   6.618
   7923SM   C8S10450   7.008   0.448   6.455
   7923SM   H8S10451   6.955   0.546   6.460
   7923SM   H8T10452   6.933   0.371   6.430
   7923SM   C9S10453   7.113   0.455   6.343
   7923SM   H9S10454   7.155   0.354   6.326
   7923SM   H9T10455   7.196   0.522   6.373
   7923SM  C10S10456   7.052   0.508   6.212
   7923SM  H10S10457   7.019   0.613   6.228
   7923SM  H10T10458   6.961   0.447   6.188
   7923SM  C11S10459   7.147   0.506   6.092
   7923SM  H11S10460   7.174   0.401   6.068
   7923SM  H11T10461   7.241   0.560   6.120
   7923SM  C12S10462   7.088   0.574   5.966
   7923SM  H12S10463   7.164   0.570   5.885
   7923SM  H12T10464   7.068   0.681   5.988
   7923SM  C13S10465   6.958   0.508   5.916
   7923SM  H13S10466   6.879   0.520   5.992
   7923SM  H13T10467   6.977   0.399   5.902
   7923SM  C14S10468   6.908   0.568   5.784
   7923SM  H14S10469   6.982   0.545   5.704
   7923SM  H14T10470   6.901   0.678   5.794
   7923SM  C15S10471   6.771   0.515   5.737
   7923SM  H15S10472   6.698   0.515   5.821
   7923SM  H15T10473   6.784   0.410   5.703
   7923SM  C16S10474   6.714   0.597   5.620
   7923SM  H16S10475   6.798   0.634   5.557
   7923SM  H16T10476   6.662   0.687   5.660
   7923SM  C17S10477   6.621   0.517   5.530
   7923SM  H17S10478   6.537   0.477   5.590
   7923SM  H17T10479   6.677   0.430   5.488
   7923SM  C18S10480   6.565   0.600   5.414
   7923SM  H18S10481   6.647   0.642   5.353
   7923SM  H18T10482   6.503   0.684   5.453
   7923SM  H18U10483   6.501   0.537   5.348
   7923SM   C1F10484   6.787   0.627   7.185
   7923SM    OF10485   6.872   0.712   7.210
   7923SM   C2F10486   6.640   0.655   7.196
   7923SM   H2F10487   6.617   0.676   7.303
   7923SM   H2G10488   6.584   0.564   7.166
   7923SM   C3F10489   6.596   0.775   7.109
   7923SM   H3F10490   6.651   0.866   7.142
   7923SM   H3G10491   6.488   0.793   7.126
   7923SM   C4F10492   6.619   0.758   6.957
   7923SM   H4F10493   6.727   0.744   6.936
   7923SM   H4G10494   6.587   0.852   6.908
   7923SM   C5F10495   6.539   0.643   6.894
   7923SM   H5F10496   6.431   0.657   6.917
   7923SM   H5G10497   6.571   0.546   6.937
   7923SM   C6F10498   6.556   0.636   6.741
   7923SM   H6F10499   6.662   0.612   6.717
   7923SM   H6G10500   6.533   0.735   6.696
   7923SM   C7F10501   6.464   0.531   6.677
   7923SM   H7F10502   6.359   0.562   6.694
   7923SM   H7G10503   6.479   0.434   6.729
   7923SM   C8F10504   6.485   0.510   6.526
   7923SM   H8F10505   6.483   0.607   6.472
   7923SM   H8G10506   6.399   0.450   6.489
   7923SM   C9F10507   6.613   0.432   6.492
   7923SM   H9F10508   6.641   0.370   6.580
   7923SM   H9G10509   6.697   0.503   6.474
   7923SM  C10F10510   6.597   0.336   6.373
   7923SM  H10F10511   6.515   0.266   6.396
   7923SM  H10G10512   6.690   0.277   6.362
   7923SM  C11F10513   6.566   0.405   6.239
   7923SM  H11F10514   6.654   0.464   6.206
   7923SM  H11G10515   6.482   0.477   6.254
   7923SM  C12F10516   6.524   0.307   6.128
   7923SM  H12F10517   6.503   0.365   6.036
   7923SM  H12G10518   6.429   0.258   6.158
   7923SM  C13F10519   6.627   0.198   6.094
   7923SM  H13F10520   6.588   0.134   6.012
   7923SM  H13G10521   6.643   0.132   6.182
   7923SM  C14F10522   6.762   0.255   6.049
   7923SM  H14F10523   6.809   0.304   6.137
   7923SM  H14G10524   6.745   0.333   5.972
   7923SM  C15F10525   6.859   0.150   5.994
   7923SM  H15F10526   6.837   0.051   6.039
   7923SM  H15G10527   6.962   0.178   6.026
   7923SM  C16F10528   6.860   0.141   5.840
   7923SM  H16F10529   6.868   0.244   5.800
   7923SM  H16G10530   6.764   0.099   5.804
   7923SM  C17F10531   6.979   0.061   5.785
   7923SM  H17F10532   6.960  -0.047   5.804
   7923SM  H17G10533   7.072   0.089   5.838
   7923SM  C18F10534   7.002   0.079   5.634
   7923SM  H18F10535   6.906   0.063   5.580
   7923SM  H18G10536   7.073   0.001   5.600
   7923SM  C19F10537   7.060   0.216   5.594
   7923SM  H19F10538   7.153   0.233   5.653
   7923SM  H19G10539   6.989   0.298   5.619
   7923SM  C20F10540   7.095   0.224   5.444
   7923SM  H20F10541   7.155   0.133   5.417
   7923SM  H20G10542   7.160   0.312   5.426
   7923SM  C21F10543   6.973   0.233   5.351
   7923SM  H21F10544   6.930   0.336   5.357
   7923SM  H21G10545   6.894   0.162   5.386
   7923SM  C22F10546   7.004   0.199   5.204
   7923SM  H22F10547   6.910   0.206   5.146
   7923SM  H22G10548   7.038   0.093   5.199
   7923SM  C23F10549   7.110   0.288   5.139
   7923SM  H23F10550   7.124   0.261   5.033
   7923SM  H23G10551   7.208   0.279   5.191
   7923SM  H23H10552   7.078   0.395   5.144
   8023SM     N10553   0.613   0.501   7.745
   8023SM   C1510554   0.742   0.535   7.811
   8023SM  H15A10555   0.765   0.465   7.890
   8023SM  H15B10556   0.740   0.635   7.854
   8023SM  H15C10557   0.824   0.532   7.741
   8023SM   C1410558   0.623   0.363   7.687
   8023SM  H14A10559   0.704   0.357   7.615
   8023SM  H14B10560   0.533   0.340   7.633
   8023SM  H14C10561   0.637   0.287   7.763
   8023SM   C1310562   0.502   0.503   7.846
   8023SM  H13A10563   0.512   0.423   7.917
   8023SM  H13B10564   0.407   0.489   7.795
   8023SM  H13C10565   0.498   0.596   7.899
   8023SM   C1210566   0.581   0.599   7.632
   8023SM  H12A10567   0.652   0.584   7.553
   8023SM  H12B10568   0.593   0.700   7.667
   8023SM   C1110569   0.439   0.590   7.569
   8023SM  H11A10570   0.436   0.658   7.482
   8023SM  H11B10571   0.367   0.628   7.645
   8023SM     P10572   0.262   0.418   7.485
   8023SM   O1310573   0.254   0.271   7.472
   8023SM   O1410574   0.167   0.483   7.579
   8023SM   O1110575   0.245   0.483   7.341
   8023SM   O1210576   0.408   0.457   7.529
   8023SM   C1S10577   0.355   0.491   7.249
   8023SM   H1S10578   0.453   0.505   7.300
   8023SM   H1T10579   0.341   0.581   7.185
   8023SM    NF10580   0.485   0.381   7.071
   8023SM   HNF10581   0.469   0.400   6.974
   8023SM   C2S10582   0.367   0.368   7.154
   8023SM   H2S10583   0.379   0.276   7.216
   8023SM   C3S10584   0.235   0.355   7.071
   8023SM   H3S10585   0.213   0.454   7.026
   8023SM    O310586   0.120   0.319   7.148
   8023SM   HO310587   0.142   0.354   7.235
   8023SM   C4S10588   0.257   0.254   6.960
   8023SM   H4S10589   0.280   0.152   6.995
   8023SM   C5S10590   0.250   0.280   6.828
   8023SM   H5S10591   0.226   0.382   6.795
   8023SM   C6S10592   0.275   0.180   6.718
   8023SM   H6S10593   0.179   0.145   6.673
   8023SM   H6T10594   0.327   0.090   6.755
   8023SM   C7S10595   0.361   0.244   6.606
   8023SM   H7S10596   0.449   0.295   6.651
   8023SM   H7T10597   0.300   0.321   6.553
   8023SM   C8S10598   0.414   0.144   6.502
   8023SM   H8S10599   0.331   0.083   6.461
   8023SM   H8T10600   0.485   0.075   6.553
   8023SM   C9S10601   0.487   0.215   6.387
   8023SM   H9S10602   0.560   0.287   6.430
   8023SM   H9T10603   0.413   0.274   6.328
   8023SM  C10S10604   0.564   0.122   6.292
   8023SM  H10S10605   0.494   0.050   6.244
   8023SM  H10T10606   0.638   0.063   6.351
   8023SM  C11S10607   0.639   0.200   6.182
   8023SM  H11S10608   0.689   0.287   6.232
   8023SM  H11T10609   0.566   0.241   6.109
   8023SM  C12S10610   0.748   0.121   6.108
   8023SM  H12S10611   0.799   0.054   6.180
   8023SM  H12T10612   0.823   0.193   6.069
   8023SM  C13S10613   0.698   0.039   5.988
   8023SM  H13S10614   0.616  -0.028   6.020
   8023SM  H13T10615   0.782  -0.024   5.953
   8023SM  C14S10616   0.650   0.123   5.867
   8023SM  H14S10617   0.714   0.213   5.855
   8023SM  H14T10618   0.546   0.157   5.887
   8023SM  C15S10619   0.654   0.042   5.737
   8023SM  H15S10620   0.612  -0.059   5.757
   8023SM  H15T10621   0.760   0.028   5.706
   8023SM  C16S10622   0.574   0.103   5.621
   8023SM  H16S10623   0.610   0.207   5.601
   8023SM  H16T10624   0.467   0.109   5.652
   8023SM  C17S10625   0.584   0.022   5.492
   8023SM  H17S10626   0.555  -0.083   5.513
   8023SM  H17T10627   0.689   0.021   5.458
   8023SM  C18S10628   0.495   0.076   5.379
   8023SM  H18S10629   0.509   0.017   5.286
   8023SM  H18T10630   0.520   0.182   5.357
   8023SM  H18U10631   0.388   0.071   5.408
   8023SM   C1F10632   0.611   0.374   7.114
   8023SM    OF10633   0.639   0.332   7.226
   8023SM   C2F10634   0.718   0.411   7.015
   8023SM   H2F10635   0.674   0.411   6.912
   8023SM   H2G10636   0.797   0.333   7.018
   8023SM   C3F10637   0.782   0.549   7.043
   8023SM   H3F10638   0.856   0.569   6.963
   8023SM   H3G10639   0.839   0.543   7.139
   8023SM   C4F10640   0.685   0.669   7.051
   8023SM   H4F10641   0.746   0.761   7.058
   8023SM   H4G10642   0.626   0.660   7.144
   8023SM   C5F10643   0.587   0.683   6.933
   8023SM   H5F10644   0.517   0.766   6.954
   8023SM   H5G10645   0.525   0.591   6.927
   8023SM   C6F10646   0.654   0.707   6.796
   8023SM   H6F10647   0.719   0.620   6.772
   8023SM   H6G10648   0.719   0.797   6.802
   8023SM   C7F10649   0.553   0.725   6.681
   8023SM   H7F10650   0.609   0.736   6.586
   8023SM   H7G10651   0.496   0.819   6.697
   8023SM   C8F10652   0.453   0.608   6.668
   8023SM   H8F10653   0.393   0.601   6.761
   8023SM   H8G10654   0.510   0.513   6.657
   8023SM   C9F10655   0.355   0.622   6.551
   8023SM   H9F10656   0.304   0.720   6.555
   8023SM   H9G10657   0.276   0.544   6.562
   8023SM  C10F10658   0.421   0.605   6.414
   8023SM  H10F10659   0.482   0.512   6.413
   8023SM  H10G10660   0.490   0.690   6.397
   8023SM  C11F10661   0.320   0.600   6.299
   8023SM  H11F10662   0.248   0.683   6.312
   8023SM  H11G10663   0.262   0.505   6.302
   8023SM  C12F10664   0.387   0.616   6.162
   8023SM  H12F10665   0.449   0.708   6.164
   8023SM  H12G10666   0.307   0.629   6.085
   8023SM  C13F10667   0.476   0.497   6.121
   8023SM  H13F10668   0.414   0.405   6.123
   8023SM  H13G10669   0.556   0.486   6.197
   8023SM  C14F10670   0.541   0.511   5.982
   8023SM  H14F10671   0.613   0.427   5.971
   8023SM  H14G10672   0.600   0.605   5.977
   8023SM  C15F10673   0.442   0.504   5.866
   8023SM  H15F10674   0.388   0.601   5.858
   8023SM  H15G10675   0.367   0.425   5.888
   8023SM  C16F10676   0.508   0.472   5.731
   8023SM  H16F10677   0.556   0.372   5.737
   8023SM  H16G10678   0.589   0.546   5.713
   8023SM  C17F10679   0.412   0.475   5.610
   8023SM  H17F10680   0.470   0.454   5.518
   8023SM  H17G10681   0.372   0.579   5.601
   8023SM  C18F10682   0.294   0.377   5.619
   8023SM  H18F10683   0.240   0.390   5.715
   8023SM  H18G10684   0.332   0.273   5.615
   8023SM  C19F10685   0.192   0.398   5.505
   8023SM  H19F10686   0.244   0.392   5.407
   8023SM  H19G10687   0.152   0.501   5.516
   8023SM  C20F10688   0.073   0.301   5.509
   8023SM  H20F10689  -0.021   0.358   5.492
   8023SM  H20G10690   0.066   0.256   5.611
   8023SM  C21F10691   0.080   0.189   5.404
   8023SM  H21F10692   0.003   0.113   5.428
   8023SM  H21G10693   0.179   0.140   5.410
   8023SM  C22F10694   0.056   0.238   5.260
   8023SM  H22F10695   0.133   0.314   5.234
   8023SM  H22G10696  -0.043   0.289   5.256
   8023SM  C23F10697   0.059   0.127   5.155
   8023SM  H23F10698   0.159   0.078   5.154
   8023SM  H23G10699   0.039   0.168   5.054
   8023SM  H23H10700  -0.017   0.050   5.178
   8123SM     N10701   3.396   3.738   2.228
   8123SM   C1510702   3.294   3.631   2.207
   8123SM  H15A10703   3.341   3.540   2.172
   8123SM  H15B10704   3.218   3.661   2.137
   8123SM  H15C10705   3.245   3.608   2.301
   8123SM   C1410706   3.470   3.763   2.100
   8123SM  H14A10707   3.543   3.842   2.112
   8123SM  H14B10708   3.402   3.792   2.021
   8123SM  H14C10709   3.523   3.673   2.069
   8123SM   C1310710   3.330   3.865   2.270
   8123SM  H13A10711   3.258   3.901   2.198
   8123SM  H13B10712   3.404   3.942   2.288
   8123SM  H13C10713   3.280   3.849   2.365
   8123SM   C1210714   3.496   3.694   2.334
   8123SM  H12A10715   3.567   3.774   2.350
   8123SM  H12B10716   3.550   3.608   2.296
   8123SM   C1110717   3.442   3.656   2.475
   8123SM  H11A10718   3.527   3.619   2.537
   8123SM  H11B10719   3.372   3.570   2.464
   8123SM     P10720   3.459   3.888   2.593
   8123SM   O1310721   3.561   3.926   2.493
   8123SM   O1410722   3.365   3.993   2.635
   8123SM   O1110723   3.530   3.828   2.722
   8123SM   O1210724   3.374   3.764   2.539
   8123SM   C1S10725   3.447   3.745   2.804
   8123SM   H1S10726   3.436   3.646   2.754
   8123SM   H1T10727   3.347   3.790   2.821
   8123SM    NF10728   3.393   3.668   3.033
   8123SM   HNF10729   3.389   3.705   3.125
   8123SM   C2S10730   3.503   3.714   2.947
   8123SM   H2S10731   3.578   3.632   2.939
   8123SM   C3S10732   3.577   3.840   3.003
   8123SM   H3S10733   3.506   3.926   3.001
   8123SM    O310734   3.691   3.880   2.926
   8123SM   HO310735   3.669   3.848   2.839
   8123SM   C4S10736   3.617   3.818   3.148
   8123SM   H4S10737   3.547   3.865   3.218
   8123SM   C5S10738   3.726   3.755   3.198
   8123SM   H5S10739   3.799   3.712   3.129
   8123SM   C6S10740   3.757   3.741   3.345
   8123SM   H6S10741   3.866   3.732   3.359
   8123SM   H6T10742   3.713   3.647   3.385
   8123SM   C7S10743   3.710   3.859   3.434
   8123SM   H7S10744   3.601   3.874   3.425
   8123SM   H7T10745   3.760   3.952   3.397
   8123SM   C8S10746   3.743   3.843   3.583
   8123SM   H8S10747   3.850   3.816   3.596
   8123SM   H8T10748   3.681   3.759   3.623
   8123SM   C9S10749   3.713   3.971   3.663
   8123SM   H9S10750   3.613   4.010   3.634
   8123SM   H9T10751   3.788   4.047   3.634
   8123SM  C10S10752   3.716   3.954   3.816
   8123SM  H10S10753   3.719   4.055   3.861
   8123SM  H10T10754   3.809   3.901   3.847
   8123SM  C11S10755   3.593   3.880   3.871
   8123SM  H11S10756   3.597   3.773   3.843
   8123SM  H11T10757   3.503   3.924   3.822
   8123SM  C12S10758   3.573   3.894   4.023
   8123SM  H12S10759   3.471   3.858   4.048
   8123SM  H12T10760   3.579   4.001   4.052
   8123SM  C13S10761   3.674   3.812   4.107
   8123SM  H13S10762   3.776   3.853   4.092
   8123SM  H13T10763   3.674   3.707   4.071
   8123SM  C14S10764   3.639   3.813   4.256
   8123SM  H14S10765   3.535   3.777   4.269
   8123SM  H14T10766   3.643   3.918   4.294
   8123SM  C15S10767   3.732   3.725   4.340
   8123SM  H15S10768   3.835   3.768   4.339
   8123SM  H15T10769   3.738   3.624   4.293
   8123SM  C16S10770   3.686   3.706   4.486
   8123SM  H16S10771   3.758   3.639   4.537
   8123SM  H16T10772   3.587   3.655   4.486
   8123SM  C17S10773   3.676   3.837   4.566
   8123SM  H17S10774   3.596   3.900   4.522
   8123SM  H17T10775   3.772   3.892   4.557
   8123SM  C18S10776   3.645   3.814   4.714
   8123SM  H18S10777   3.726   3.754   4.762
   8123SM  H18T10778   3.549   3.759   4.727
   8123SM  H18U10779   3.637   3.911   4.768
   8123SM   C1F10780   3.309   3.568   3.001
   8123SM    OF10781   3.310   3.514   2.891
   8123SM   C2F10782   3.207   3.527   3.103
   8123SM   H2F10783   3.121   3.485   3.047
   8123SM   H2G10784   3.170   3.617   3.158
   8123SM   C3F10785   3.260   3.419   3.199
   8123SM   H3F10786   3.303   3.335   3.141
   8123SM   H3G10787   3.173   3.379   3.255
   8123SM   C4F10788   3.364   3.469   3.302
   8123SM   H4F10789   3.456   3.501   3.250
   8123SM   H4G10790   3.392   3.383   3.367
   8123SM   C5F10791   3.310   3.582   3.391
   8123SM   H5F10792   3.211   3.550   3.431
   8123SM   H5G10793   3.294   3.673   3.330
   8123SM   C6F10794   3.403   3.616   3.507
   8123SM   H6F10795   3.504   3.638   3.467
   8123SM   H6G10796   3.412   3.527   3.573
   8123SM   C7F10797   3.356   3.737   3.590
   8123SM   H7F10798   3.353   3.826   3.524
   8123SM   H7G10799   3.432   3.758   3.669
   8123SM   C8F10800   3.218   3.720   3.657
   8123SM   H8F10801   3.143   3.696   3.579
   8123SM   H8G10802   3.188   3.817   3.702
   8123SM   C9F10803   3.213   3.612   3.766
   8123SM   H9F10804   3.258   3.517   3.730
   8123SM   H9G10805   3.106   3.591   3.788
   8123SM  C10F10806   3.278   3.655   3.898
   8123SM  H10F10807   3.229   3.748   3.933
   8123SM  H10G10808   3.386   3.678   3.881
   8123SM  C11F10809   3.267   3.548   4.008
   8123SM  H11F10810   3.337   3.465   3.983
   8123SM  H11G10811   3.165   3.505   4.010
   8123SM  C12F10812   3.301   3.602   4.148
   8123SM  H12F10813   3.392   3.666   4.141
   8123SM  H12G10814   3.325   3.516   4.214
   8123SM  C13F10815   3.185   3.681   4.211
   8123SM  H13F10816   3.097   3.613   4.223
   8123SM  H13G10817   3.154   3.762   4.141
   8123SM  C14F10818   3.218   3.745   4.346
   8123SM  H14F10819   3.132   3.807   4.378
   8123SM  H14G10820   3.305   3.813   4.333
   8123SM  C15F10821   3.251   3.644   4.457
   8123SM  H15F10822   3.336   3.581   4.424
   8123SM  H15G10823   3.164   3.576   4.473
   8123SM  C16F10824   3.290   3.710   4.590
   8123SM  H16F10825   3.369   3.786   4.568
   8123SM  H16G10826   3.335   3.634   4.657
   8123SM  C17F10827   3.174   3.776   4.665
   8123SM  H17F10828   3.098   3.697   4.687
   8123SM  H17G10829   3.125   3.852   4.601
   8123SM  C18F10830   3.217   3.842   4.797
   8123SM  H18F10831   3.279   3.770   4.855
   8123SM  H18G10832   3.127   3.865   4.858
   8123SM  C19F10833   3.296   3.972   4.776
   8123SM  H19F10834   3.230   4.047   4.728
   8123SM  H19G10835   3.381   3.952   4.706
   8123SM  C20F10836   3.355   4.030   4.905
   8123SM  H20F10837   3.419   3.954   4.954
   8123SM  H20G10838   3.272   4.055   4.975
   8123SM  C21F10839   3.439   4.156   4.877
   8123SM  H21F10840   3.372   4.233   4.833
   8123SM  H21G10841   3.516   4.131   4.801
   8123SM  C22F10842   3.509   4.215   5.001
   8123SM  H22F10843   3.572   4.300   4.967
   8123SM  H22G10844   3.578   4.138   5.043
   8123SM  C23F10845   3.415   4.264   5.111
   8123SM  H23F10846   3.473   4.313   5.192
   8123SM  H23G10847   3.358   4.180   5.154
   8123SM  H23H10848   3.343   4.338   5.070
   8223SM     N10849   3.902   4.307   2.320
   8223SM   C1510850   3.799   4.399   2.264
   8223SM  H15A10851   3.793   4.391   2.156
   8223SM  H15B10852   3.826   4.501   2.287
   8223SM  H15C10853   3.702   4.380   2.307
   8223SM   C1410854   3.861   4.165   2.291
   8223SM  H14A10855   3.938   4.096   2.323
   8223SM  H14B10856   3.843   4.149   2.186
   8223SM  H14C10857   3.770   4.141   2.344
   8223SM   C1310858   4.034   4.334   2.254
   8223SM  H13A10859   4.027   4.322   2.147
   8223SM  H13B10860   4.110   4.268   2.291
   8223SM  H13C10861   4.065   4.436   2.274
   8223SM   C1210862   3.915   4.327   2.471
   8223SM  H12A10863   3.974   4.247   2.512
   8223SM  H12B10864   3.816   4.317   2.514
   8223SM   C1110865   3.976   4.461   2.522
   8223SM  H11A10866   4.084   4.460   2.496
   8223SM  H11B10867   3.969   4.461   2.633
   8223SM     P10868   3.984   4.709   2.441
   8223SM   O1310869   4.112   4.676   2.374
   8223SM   O1410870   3.891   4.796   2.367
   8223SM   O1110871   4.010   4.765   2.587
   8223SM   O1210872   3.906   4.574   2.470
   8223SM   C1S10873   3.899   4.811   2.667
   8223SM   H1S10874   3.803   4.767   2.634
   8223SM   H1T10875   3.890   4.921   2.658
   8223SM    NF10876   3.792   4.800   2.889
   8223SM   HNF10877   3.781   4.887   2.936
   8223SM   C2S10878   3.917   4.776   2.818
   8223SM   H2S10879   3.942   4.668   2.825
   8223SM   C3S10880   4.036   4.857   2.878
   8223SM   H3S10881   4.010   4.965   2.873
   8223SM    O310882   4.160   4.843   2.810
   8223SM   HO310883   4.136   4.805   2.725
   8223SM   C4S10884   4.050   4.821   3.025
   8223SM   H4S10885   3.990   4.886   3.090
   8223SM   C5S10886   4.125   4.724   3.081
   8223SM   H5S10887   4.188   4.660   3.018
   8223SM   C6S10888   4.131   4.697   3.230
   8223SM   H6S10889   4.106   4.591   3.250
   8223SM   H6T10890   4.057   4.759   3.285
   8223SM   C7S10891   4.271   4.726   3.287
   8223SM   H7S10892   4.299   4.831   3.265
   8223SM   H7T10893   4.345   4.660   3.236
   8223SM   C8S10894   4.283   4.704   3.439
   8223SM   H8S10895   4.387   4.726   3.469
   8223SM   H8T10896   4.263   4.597   3.463
   8223SM   C9S10897   4.188   4.793   3.521
   8223SM   H9S10898   4.085   4.753   3.515
   8223SM   H9T10899   4.188   4.894   3.476
   8223SM  C10S10900   4.229   4.808   3.669
   8223SM  H10S10901   4.160   4.881   3.717
   8223SM  H10T10902   4.331   4.850   3.674
   8223SM  C11S10903   4.225   4.677   3.750
   8223SM  H11S10904   4.299   4.605   3.708
   8223SM  H11T10905   4.124   4.631   3.739
   8223SM  C12S10906   4.254   4.700   3.898
   8223SM  H12S10907   4.182   4.774   3.938
   8223SM  H12T10908   4.356   4.744   3.909
   8223SM  C13S10909   4.246   4.572   3.983
   8223SM  H13S10910   4.321   4.499   3.946
   8223SM  H13T10911   4.146   4.528   3.972
   8223SM  C14S10912   4.272   4.601   4.132
   8223SM  H14S10913   4.199   4.676   4.168
   8223SM  H14T10914   4.374   4.644   4.144
   8223SM  C15S10915   4.261   4.475   4.221
   8223SM  H15S10916   4.336   4.401   4.189
   8223SM  H15T10917   4.160   4.430   4.206
   8223SM  C16S10918   4.280   4.508   4.370
   8223SM  H16S10919   4.206   4.586   4.399
   8223SM  H16T10920   4.381   4.550   4.385
   8223SM  C17S10921   4.261   4.386   4.461
   8223SM  H17S10922   4.334   4.308   4.431
   8223SM  H17T10923   4.159   4.345   4.445
   8223SM  C18S10924   4.280   4.419   4.610
   8223SM  H18S10925   4.382   4.457   4.628
   8223SM  H18T10926   4.265   4.328   4.672
   8223SM  H18U10927   4.207   4.497   4.642
   8223SM   C1F10928   3.687   4.717   2.881
   8223SM    OF10929   3.684   4.625   2.800
   8223SM   C2F10930   3.573   4.742   2.975
   8223SM   H2F10931   3.484   4.770   2.914
   8223SM   H2G10932   3.597   4.828   3.041
   8223SM   C3F10933   3.540   4.617   3.060
   8223SM   H3F10934   3.512   4.534   2.991
   8223SM   H3G10935   3.452   4.639   3.123
   8223SM   C4F10936   3.654   4.567   3.151
   8223SM   H4F10937   3.737   4.529   3.087
   8223SM   H4G10938   3.618   4.481   3.210
   8223SM   C5F10939   3.712   4.672   3.247
   8223SM   H5F10940   3.756   4.755   3.186
   8223SM   H5G10941   3.796   4.627   3.304
   8223SM   C6F10942   3.610   4.733   3.345
   8223SM   H6F10943   3.524   4.775   3.288
   8223SM   H6G10944   3.660   4.819   3.394
   8223SM   C7F10945   3.559   4.640   3.456
   8223SM   H7F10946   3.503   4.555   3.412
   8223SM   H7G10947   3.488   4.698   3.519
   8223SM   C8F10948   3.672   4.586   3.546
   8223SM   H8F10949   3.740   4.670   3.573
   8223SM   H8G10950   3.731   4.511   3.490
   8223SM   C9F10951   3.620   4.522   3.676
   8223SM   H9F10952   3.534   4.456   3.651
   8223SM   H9G10953   3.582   4.602   3.744
   8223SM  C10F10954   3.725   4.436   3.750
   8223SM  H10F10955   3.749   4.350   3.685
   8223SM  H10G10956   3.680   4.396   3.843
   8223SM  C11F10957   3.856   4.508   3.784
   8223SM  H11F10958   3.895   4.559   3.692
   8223SM  H11G10959   3.933   4.433   3.813
   8223SM  C12F10960   3.846   4.612   3.897
   8223SM  H12F10961   3.758   4.677   3.882
   8223SM  H12G10962   3.936   4.677   3.891
   8223SM  C13F10963   3.843   4.549   4.037
   8223SM  H13F10964   3.924   4.473   4.044
   8223SM  H13G10965   3.746   4.497   4.054
   8223SM  C14F10966   3.866   4.654   4.147
   8223SM  H14F10967   3.781   4.726   4.146
   8223SM  H14G10968   3.958   4.711   4.121
   8223SM  C15F10969   3.884   4.597   4.288
   8223SM  H15F10970   3.928   4.677   4.352
   8223SM  H15G10971   3.958   4.514   4.285
   8223SM  C16F10972   3.754   4.548   4.354
   8223SM  H16F10973   3.712   4.466   4.292
   8223SM  H16G10974   3.680   4.631   4.354
   8223SM  C17F10975   3.774   4.496   4.498
   8223SM  H17F10976   3.855   4.419   4.496
   8223SM  H17G10977   3.681   4.445   4.532
   8223SM  C18F10978   3.812   4.603   4.602
   8223SM  H18F10979   3.896   4.664   4.562
   8223SM  H18G10980   3.849   4.553   4.694
   8223SM  C19F10981   3.696   4.697   4.641
   8223SM  H19F10982   3.624   4.641   4.704
   8223SM  H19G10983   3.643   4.728   4.549
   8223SM  C20F10984   3.741   4.825   4.714
   8223SM  H20F10985   3.652   4.888   4.736
   8223SM  H20G10986   3.806   4.883   4.644
   8223SM  C21F10987   3.819   4.802   4.844
   8223SM  H21F10988   3.905   4.735   4.824
   8223SM  H21G10989   3.754   4.752   4.918
   8223SM  C22F10990   3.874   4.933   4.902
   8223SM  H22F10991   3.789   5.001   4.926
   8223SM  H22G10992   3.935   4.984   4.824
   8223SM  C23F10993   3.960   4.914   5.027
   8223SM  H23F10994   3.900   4.868   5.109
   8223SM  H23G10995   3.999   5.012   5.063
   8223SM  H23H10996   4.046   4.847   5.005
   8323SM     N10997   4.818   4.569   2.269
   8323SM   C1510998   4.934   4.665   2.271
   8323SM  H15A10999   4.906   4.761   2.230
   8323SM  H15B11000   5.017   4.627   2.214
   8323SM  H15C11001   4.969   4.682   2.372
   8323SM   C1411002   4.779   4.543   2.127
   8323SM  H14A11003   4.751   4.635   2.077
   8323SM  H14B11004   4.696   4.475   2.119
   8323SM  H14C11005   4.862   4.500   2.072
   8323SM   C1311006   4.862   4.440   2.332
   8323SM  H13A11007   4.954   4.404   2.290
   8323SM  H13B11008   4.786   4.364   2.321
   8323SM  H13C11009   4.875   4.455   2.438
   8323SM   C1211010   4.700   4.627   2.345
   8323SM  H12A11011   4.614   4.563   2.334
   8323SM  H12B11012   4.673   4.721   2.300
   8323SM   C1111013   4.717   4.651   2.498
   8323SM  H11A11014   4.633   4.714   2.534
   8323SM  H11B11015   4.810   4.708   2.517
   8323SM     P11016   4.592   4.447   2.605
   8323SM   O1311017   4.497   4.453   2.491
   8323SM   O1411018   4.630   4.311   2.650
   8323SM   O1111019   4.528   4.525   2.725
   8323SM   O1211020   4.723   4.527   2.569
   8323SM   C1S11021   4.598   4.610   2.816
   8323SM   H1S11022   4.530   4.693   2.844
   8323SM   H1T11023   4.687   4.659   2.770
   8323SM    NF11024   4.774   4.485   2.938
   8323SM   HNF11025   4.783   4.388   2.918
   8323SM   C2S11026   4.639   4.539   2.949
   8323SM   H2S11027   4.640   4.616   3.029
   8323SM   C3S11028   4.534   4.431   2.987
   8323SM   H3S11029   4.539   4.347   2.915
   8323SM    O311030   4.400   4.480   2.982
   8323SM   HO311031   4.402   4.543   2.910
   8323SM   C4S11032   4.558   4.379   3.126
   8323SM   H4S11033   4.532   4.448   3.207
   8323SM   C5S11034   4.606   4.256   3.155
   8323SM   H5S11035   4.632   4.189   3.072
   8323SM   C6S11036   4.630   4.198   3.292
   8323SM   H6S11037   4.736   4.164   3.299
   8323SM   H6T11038   4.568   4.107   3.301
   8323SM   C7S11039   4.602   4.284   3.418
   8323SM   H7S11040   4.502   4.332   3.410
   8323SM   H7T11041   4.679   4.364   3.426
   8323SM   C8S11042   4.604   4.195   3.543
   8323SM   H8S11043   4.698   4.136   3.541
   8323SM   H8T11044   4.520   4.123   3.535
   8323SM   C9S11045   4.595   4.267   3.679
   8323SM   H9S11046   4.501   4.325   3.685
   8323SM   H9T11047   4.680   4.338   3.688
   8323SM  C10S11048   4.602   4.164   3.793
   8323SM  H10S11049   4.687   4.095   3.771
   8323SM  H10T11050   4.509   4.103   3.793
   8323SM  C11S11051   4.625   4.222   3.933
   8323SM  H11S11052   4.542   4.290   3.962
   8323SM  H11T11053   4.719   4.281   3.932
   8323SM  C12S11054   4.641   4.109   4.036
   8323SM  H12S11055   4.714   4.036   3.996
   8323SM  H12T11056   4.543   4.057   4.048
   8323SM  C13S11057   4.692   4.155   4.174
   8323SM  H13S11058   4.624   4.233   4.215
   8323SM  H13T11059   4.792   4.200   4.161
   8323SM  C14S11060   4.701   4.037   4.272
   8323SM  H14S11061   4.765   3.958   4.228
   8323SM  H14T11062   4.599   3.995   4.285
   8323SM  C15S11063   4.757   4.073   4.411
   8323SM  H15S11064   4.737   3.987   4.479
   8323SM  H15T11065   4.704   4.161   4.452
   8323SM  C16S11066   4.908   4.098   4.411
   8323SM  H16S11067   4.931   4.192   4.357
   8323SM  H16T11068   4.959   4.015   4.356
   8323SM  C17S11069   4.966   4.105   4.553
   8323SM  H17S11070   4.945   4.009   4.605
   8323SM  H17T11071   4.914   4.185   4.609
   8323SM  C18S11072   5.117   4.131   4.554
   8323SM  H18S11073   5.140   4.227   4.505
   8323SM  H18T11074   5.171   4.050   4.500
   8323SM  H18U11075   5.155   4.135   4.659
   8323SM   C1F11076   4.880   4.565   2.929
   8323SM    OF11077   4.870   4.685   2.952
   8323SM   C2F11078   5.010   4.502   2.884
   8323SM   H2F11079   5.070   4.581   2.834
   8323SM   H2G11080   4.987   4.424   2.809
   8323SM   C3F11081   5.093   4.441   2.999
   8323SM   H3F11082   5.110   4.517   3.079
   8323SM   H3G11083   5.193   4.416   2.958
   8323SM   C4F11084   5.034   4.312   3.060
   8323SM   H4F11085   5.008   4.244   2.976
   8323SM   H4G11086   4.940   4.335   3.114
   8323SM   C5F11087   5.131   4.238   3.154
   8323SM   H5F11088   5.229   4.231   3.102
   8323SM   H5G11089   5.095   4.134   3.171
   8323SM   C6F11090   5.151   4.306   3.290
   8323SM   H6F11091   5.149   4.417   3.276
   8323SM   H6G11092   5.251   4.279   3.329
   8323SM   C7F11093   5.046   4.266   3.394
   8323SM   H7F11094   5.046   4.155   3.405
   8323SM   H7G11095   4.945   4.296   3.359
   8323SM   C8F11096   5.072   4.327   3.533
   8323SM   H8F11097   5.058   4.438   3.526
   8323SM   H8G11098   5.177   4.308   3.563
   8323SM   C9F11099   4.978   4.270   3.640
   8323SM   H9F11100   4.997   4.161   3.650
   8323SM   H9G11101   4.873   4.282   3.604
   8323SM  C10F11102   4.990   4.335   3.779
   8323SM  H10F11103   5.093   4.322   3.818
   8323SM  H10G11104   4.922   4.280   3.847
   8323SM  C11F11105   4.953   4.485   3.782
   8323SM  H11F11106   4.904   4.512   3.686
   8323SM  H11G11107   5.046   4.545   3.789
   8323SM  C12F11108   4.857   4.527   3.895
   8323SM  H12F11109   4.758   4.482   3.876
   8323SM  H12G11110   4.844   4.637   3.890
   8323SM  C13F11111   4.903   4.490   4.038
   8323SM  H13F11112   5.004   4.532   4.056
   8323SM  H13G11113   4.910   4.379   4.047
   8323SM  C14F11114   4.804   4.542   4.144
   8323SM  H14F11115   4.702   4.512   4.114
   8323SM  H14G11116   4.808   4.653   4.144
   8323SM  C15F11117   4.829   4.491   4.287
   8323SM  H15F11118   4.813   4.382   4.293
   8323SM  H15G11119   4.753   4.539   4.353
   8323SM  C16F11120   4.969   4.523   4.342
   8323SM  H16F11121   5.018   4.596   4.274
   8323SM  H16G11122   5.032   4.432   4.342
   8323SM  C17F11123   4.967   4.586   4.483
   8323SM  H17F11124   4.890   4.666   4.486
   8323SM  H17G11125   5.066   4.635   4.500
   8323SM  C18F11126   4.944   4.485   4.596
   8323SM  H18F11127   5.015   4.401   4.581
   8323SM  H18G11128   4.841   4.444   4.589
   8323SM  C19F11129   4.969   4.544   4.736
   8323SM  H19F11130   5.072   4.585   4.740
   8323SM  H19G11131   4.963   4.460   4.809
   8323SM  C20F11132   4.869   4.653   4.777
   8323SM  H20F11133   4.767   4.609   4.777
   8323SM  H20G11134   4.870   4.734   4.701
   8323SM  C21F11135   4.896   4.715   4.915
   8323SM  H21F11136   4.817   4.791   4.935
   8323SM  H21G11137   4.993   4.768   4.914
   8323SM  C22F11138   4.896   4.613   5.029
   8323SM  H22F11139   4.987   4.550   5.022
   8323SM  H22G11140   4.808   4.546   5.015
   8323SM  C23F11141   4.888   4.675   5.169
   8323SM  H23F11142   4.980   4.731   5.192
   8323SM  H23G11143   4.875   4.595   5.246
   8323SM  H23H11144   4.801   4.744   5.176
   8423SM     N11145   4.253   2.289   2.269
   8423SM   C1511146   4.165   2.169   2.249
   8423SM  H15A11147   4.098   2.182   2.166
   8423SM  H15B11148   4.105   2.155   2.338
   8423SM  H15C11149   4.224   2.080   2.233
   8423SM   C1411150   4.344   2.260   2.384
   8423SM  H14A11151   4.287   2.247   2.475
   8423SM  H14B11152   4.415   2.340   2.400
   8423SM  H14C11153   4.399   2.168   2.368
   8423SM   C1311154   4.336   2.310   2.146
   8423SM  H13A11155   4.397   2.223   2.126
   8423SM  H13B11156   4.401   2.395   2.158
   8423SM  H13C11157   4.273   2.327   2.060
   8423SM   C1211158   4.167   2.412   2.295
   8423SM  H12A11159   4.143   2.458   2.201
   8423SM  H12B11160   4.224   2.486   2.350
   8423SM   C1111161   4.030   2.393   2.368
   8423SM  H11A11162   3.963   2.340   2.298
   8423SM  H11B11163   3.984   2.493   2.385
   8423SM     P11164   4.109   2.383   2.615
   8423SM   O1311165   4.208   2.286   2.667
   8423SM   O1411166   4.162   2.516   2.578
   8423SM   O1111167   3.990   2.399   2.718
   8423SM   O1211168   4.037   2.318   2.489
   8423SM   C1S11169   3.986   2.510   2.809
   8423SM   H1S11170   3.882   2.550   2.810
   8423SM   H1T11171   4.051   2.595   2.778
   8423SM    NF11172   4.169   2.457   2.967
   8423SM   HNF11173   4.206   2.366   2.952
   8423SM   C2S11174   4.025   2.472   2.955
   8423SM   H2S11175   3.992   2.556   3.019
   8423SM   C3S11176   3.950   2.344   3.003
   8423SM   H3S11177   3.990   2.254   2.953
   8423SM    O311178   3.810   2.346   2.973
   8423SM   HO311179   3.804   2.401   2.895
   8423SM   C4S11180   3.968   2.336   3.152
   8423SM   H4S11181   3.908   2.410   3.207
   8423SM   C5S11182   4.047   2.251   3.220
   8423SM   H5S11183   4.107   2.177   3.166
   8423SM   C6S11184   4.062   2.251   3.371
   8423SM   H6S11185   4.167   2.223   3.396
   8423SM   H6T11186   3.997   2.173   3.417
   8423SM   C7S11187   4.034   2.388   3.438
   8423SM   H7S11188   3.925   2.408   3.436
   8423SM   H7T11189   4.085   2.468   3.380
   8423SM   C8S11190   4.084   2.398   3.583
   8423SM   H8S11191   4.061   2.500   3.621
   8423SM   H8T11192   4.195   2.387   3.584
   8423SM   C9S11193   4.022   2.296   3.678
   8423SM   H9S11194   4.045   2.193   3.643
   8423SM   H9T11195   3.912   2.308   3.677
   8423SM  C10S11196   4.073   2.310   3.823
   8423SM  H10S11197   4.057   2.415   3.857
   8423SM  H10T11198   4.182   2.289   3.826
   8423SM  C11S11199   3.999   2.216   3.918
   8423SM  H11S11200   4.009   2.111   3.881
   8423SM  H11T11201   3.891   2.241   3.915
   8423SM  C12S11202   4.048   2.223   4.063
   8423SM  H12S11203   4.050   2.328   4.097
   8423SM  H12T11204   4.151   2.182   4.069
   8423SM  C13S11205   3.955   2.143   4.155
   8423SM  H13S11206   3.945   2.039   4.115
   8423SM  H13T11207   3.854   2.189   4.152
   8423SM  C14S11208   4.001   2.135   4.301
   8423SM  H14S11209   4.017   2.238   4.341
   8423SM  H14T11210   4.097   2.080   4.306
   8423SM  C15S11211   3.895   2.064   4.386
   8423SM  H15S11212   3.866   1.970   4.334
   8423SM  H15T11213   3.805   2.128   4.393
   8423SM  C16S11214   3.940   2.027   4.528
   8423SM  H16S11215   4.032   1.965   4.520
   8423SM  H16T11216   3.861   1.964   4.575
   8423SM  C17S11217   3.965   2.148   4.618
   8423SM  H17S11218   3.874   2.211   4.621
   8423SM  H17T11219   4.047   2.209   4.575
   8423SM  C18S11220   4.003   2.106   4.760
   8423SM  H18S11221   4.096   2.046   4.759
   8423SM  H18T11222   3.922   2.045   4.806
   8423SM  H18U11223   4.020   2.195   4.824
   8423SM   C1F11224   4.249   2.563   2.973
   8423SM    OF11225   4.202   2.675   2.995
   8423SM   C2F11226   4.396   2.542   2.954
   8423SM   H2F11227   4.432   2.617   2.881
   8423SM   H2G11228   4.414   2.441   2.912
   8423SM   C3F11229   4.473   2.558   3.088
   8423SM   H3F11230   4.448   2.657   3.132
   8423SM   H3G11231   4.582   2.556   3.066
   8423SM   C4F11232   4.441   2.447   3.190
   8423SM   H4F11233   4.473   2.349   3.149
   8423SM   H4G11234   4.331   2.442   3.204
   8423SM   C5F11235   4.504   2.468   3.328
   8423SM   H5F11236   4.470   2.566   3.369
   8423SM   H5G11237   4.615   2.471   3.320
   8423SM   C6F11238   4.463   2.356   3.424
   8423SM   H6F11239   4.505   2.260   3.388
   8423SM   H6G11240   4.353   2.347   3.422
   8423SM   C7F11241   4.507   2.378   3.570
   8423SM   H7F11242   4.463   2.472   3.609
   8423SM   H7G11243   4.618   2.386   3.574
   8423SM   C8F11244   4.463   2.260   3.659
   8423SM   H8F11245   4.505   2.167   3.616
   8423SM   H8G11246   4.352   2.251   3.657
   8423SM   C9F11247   4.510   2.272   3.805
   8423SM   H9F11248   4.464   2.362   3.852
   8423SM   H9G11249   4.620   2.287   3.806
   8423SM  C10F11250   4.474   2.147   3.887
   8423SM  H10F11251   4.496   2.057   3.826
   8423SM  H10G11252   4.365   2.147   3.908
   8423SM  C11F11253   4.553   2.135   4.019
   8423SM  H11F11254   4.661   2.123   3.995
   8423SM  H11G11255   4.520   2.042   4.071
   8423SM  C12F11256   4.535   2.254   4.113
   8423SM  H12F11257   4.427   2.267   4.135
   8423SM  H12G11258   4.571   2.347   4.063
   8423SM  C13F11259   4.613   2.236   4.244
   8423SM  H13F11260   4.719   2.214   4.220
   8423SM  H13G11261   4.572   2.149   4.299
   8423SM  C14F11262   4.609   2.360   4.335
   8423SM  H14F11263   4.652   2.447   4.282
   8423SM  H14G11264   4.673   2.339   4.423
   8423SM  C15F11265   4.468   2.396   4.385
   8423SM  H15F11266   4.422   2.305   4.429
   8423SM  H15G11267   4.405   2.426   4.298
   8423SM  C16F11268   4.467   2.509   4.488
   8423SM  H16F11269   4.528   2.593   4.449
   8423SM  H16G11270   4.514   2.474   4.582
   8423SM  C17F11271   4.325   2.562   4.519
   8423SM  H17F11272   4.283   2.603   4.425
   8423SM  H17G11273   4.333   2.646   4.591
   8423SM  C18F11274   4.227   2.457   4.574
   8423SM  H18F11275   4.228   2.368   4.508
   8423SM  H18G11276   4.125   2.499   4.571
   8423SM  C19F11277   4.256   2.412   4.719
   8423SM  H19F11278   4.361   2.379   4.730
   8423SM  H19G11279   4.192   2.324   4.739
   8423SM  C20F11280   4.222   2.520   4.823
   8423SM  H20F11281   4.129   2.572   4.789
   8423SM  H20G11282   4.302   2.596   4.826
   8423SM  C21F11283   4.195   2.464   4.963
   8423SM  H21F11284   4.124   2.379   4.956
   8423SM  H21G11285   4.145   2.543   5.024
   8423SM  C22F11286   4.321   2.418   5.037
   8423SM  H22F11287   4.394   2.502   5.039
   8423SM  H22G11288   4.367   2.334   4.981
   8423SM  C23F11289   4.292   2.374   5.181
   8423SM  H23F11290   4.384   2.335   5.230
   8423SM  H23G11291   4.216   2.294   5.183
   8423SM  H23H11292   4.255   2.460   5.242
   8523SM     N11293   5.950   3.534   2.357
   8523SM   C1511294   5.825   3.584   2.290
   8523SM  H15A11295   5.806   3.685   2.324
   8523SM  H15B11296   5.739   3.523   2.314
   8523SM  H15C11297   5.837   3.589   2.183
   8523SM   C1411298   5.921   3.518   2.504
   8523SM  H14A11299   5.839   3.450   2.520
   8523SM  H14B11300   5.894   3.614   2.547
   8523SM  H14C11301   6.007   3.481   2.558
   8523SM   C1311302   5.985   3.400   2.298
   8523SM  H13A11303   6.003   3.409   2.192
   8523SM  H13B11304   5.904   3.330   2.313
   8523SM  H13C11305   6.073   3.359   2.345
   8523SM   C1211306   6.063   3.633   2.334
   8523SM  H12A11307   6.074   3.648   2.228
   8523SM  H12B11308   6.156   3.591   2.369
   8523SM   C1111309   6.050   3.774   2.399
   8523SM  H11A11310   6.140   3.832   2.370
   8523SM  H11B11311   6.050   3.763   2.510
   8523SM     P11312   5.912   3.994   2.375
   8523SM   O1311313   6.003   4.064   2.282
   8523SM   O1411314   5.767   4.023   2.363
   8523SM   O1111315   5.959   4.016   2.525
   8523SM   O1211316   5.930   3.839   2.356
   8523SM   C1S11317   5.870   3.968   2.628
   8523SM   H1S11318   5.847   3.860   2.614
   8523SM   H1T11319   5.775   4.024   2.627
   8523SM    NF11320   5.832   3.937   2.868
   8523SM   HNF11321   5.777   4.004   2.917
   8523SM   C2S11322   5.929   3.985   2.771
   8523SM   H2S11323   6.021   3.923   2.779
   8523SM   C3S11324   5.969   4.134   2.794
   8523SM   H3S11325   5.879   4.196   2.776
   8523SM    O311326   6.069   4.181   2.704
   8523SM   HO311327   6.047   4.132   2.623
   8523SM   C4S11328   6.018   4.155   2.934
   8523SM   H4S11329   6.106   4.096   2.962
   8523SM   C5S11330   5.961   4.240   3.022
   8523SM   H5S11331   5.873   4.297   2.989
   8523SM   C6S11332   6.005   4.266   3.164
   8523SM   H6S11333   5.915   4.264   3.230
   8523SM   H6T11334   6.048   4.368   3.172
   8523SM   C7S11335   6.107   4.168   3.224
   8523SM   H7S11336   6.198   4.163   3.160
   8523SM   H7T11337   6.062   4.066   3.227
   8523SM   C8S11338   6.152   4.204   3.367
   8523SM   H8S11339   6.214   4.297   3.364
   8523SM   H8T11340   6.217   4.122   3.405
   8523SM   C9S11341   6.036   4.226   3.465
   8523SM   H9S11342   5.966   4.141   3.459
   8523SM   H9T11343   5.981   4.319   3.438
   8523SM  C10S11344   6.085   4.239   3.610
   8523SM  H10S11345   6.163   4.318   3.616
   8523SM  H10T11346   6.131   4.143   3.642
   8523SM  C11S11347   5.971   4.274   3.707
   8523SM  H11S11348   5.890   4.199   3.698
   8523SM  H11T11349   5.928   4.373   3.680
   8523SM  C12S11350   6.020   4.279   3.852
   8523SM  H12S11351   6.106   4.349   3.860
   8523SM  H12T11352   6.057   4.178   3.881
   8523SM  C13S11353   5.910   4.322   3.950
   8523SM  H13S11354   5.820   4.258   3.934
   8523SM  H13T11355   5.881   4.427   3.930
   8523SM  C14S11356   5.954   4.308   4.096
   8523SM  H14S11357   6.041   4.375   4.116
   8523SM  H14T11358   5.989   4.204   4.113
   8523SM  C15S11359   5.841   4.340   4.195
   8523SM  H15S11360   5.756   4.272   4.173
   8523SM  H15T11361   5.804   4.444   4.179
   8523SM  C16S11362   5.884   4.321   4.341
   8523SM  H16S11363   5.908   4.420   4.385
   8523SM  H16T11364   5.977   4.261   4.344
   8523SM  C17S11365   5.777   4.248   4.424
   8523SM  H17S11366   5.757   4.150   4.376
   8523SM  H17T11367   5.683   4.306   4.420
   8523SM  C18S11368   5.815   4.224   4.570
   8523SM  H18S11369   5.809   4.319   4.628
   8523SM  H18T11370   5.918   4.183   4.579
   8523SM  H18U11371   5.745   4.151   4.617
   8523SM   C1F11372   5.803   3.807   2.880
   8523SM    OF11373   5.879   3.722   2.833
   8523SM   C2F11374   5.672   3.773   2.944
   8523SM   H2F11375   5.619   3.702   2.876
   8523SM   H2G11376   5.609   3.865   2.951
   8523SM   C3F11377   5.685   3.707   3.083
   8523SM   H3F11378   5.747   3.616   3.076
   8523SM   H3G11379   5.582   3.674   3.110
   8523SM   C4F11380   5.735   3.799   3.196
   8523SM   H4F11381   5.695   3.757   3.291
   8523SM   H4G11382   5.692   3.901   3.186
   8523SM   C5F11383   5.888   3.805   3.209
   8523SM   H5F11384   5.927   3.885   3.142
   8523SM   H5G11385   5.932   3.709   3.174
   8523SM   C6F11386   5.938   3.830   3.353
   8523SM   H6F11387   5.885   3.917   3.397
   8523SM   H6G11388   6.047   3.854   3.349
   8523SM   C7F11389   5.919   3.707   3.443
   8523SM   H7F11390   5.969   3.619   3.396
   8523SM   H7G11391   5.811   3.683   3.450
   8523SM   C8F11392   5.970   3.721   3.588
   8523SM   H8F11393   5.943   3.627   3.640
   8523SM   H8G11394   5.916   3.804   3.639
   8523SM   C9F11395   6.122   3.742   3.601
   8523SM   H9F11396   6.144   3.851   3.597
   8523SM   H9G11397   6.173   3.694   3.515
   8523SM  C10F11398   6.181   3.681   3.730
   8523SM  H10F11399   6.289   3.706   3.737
   8523SM  H10G11400   6.174   3.570   3.723
   8523SM  C11F11401   6.108   3.722   3.859
   8523SM  H11F11402   6.000   3.698   3.846
   8523SM  H11G11403   6.116   3.831   3.874
   8523SM  C12F11404   6.157   3.647   3.985
   8523SM  H12F11405   6.246   3.700   4.025
   8523SM  H12G11406   6.188   3.544   3.957
   8523SM  C13F11407   6.048   3.636   4.093
   8523SM  H13F11408   5.995   3.733   4.101
   8523SM  H13G11409   6.096   3.616   4.192
   8523SM  C14F11410   5.946   3.525   4.064
   8523SM  H14F11411   5.998   3.428   4.073
   8523SM  H14G11412   5.913   3.536   3.958
   8523SM  C15F11413   5.820   3.524   4.152
   8523SM  H15F11414   5.760   3.434   4.125
   8523SM  H15G11415   5.757   3.613   4.128
   8523SM  C16F11416   5.849   3.520   4.303
   8523SM  H16F11417   5.907   3.609   4.333
   8523SM  H16G11418   5.913   3.431   4.321
   8523SM  C17F11419   5.723   3.507   4.390
   8523SM  H17F11420   5.751   3.456   4.485
   8523SM  H17G11421   5.647   3.444   4.340
   8523SM  C18F11422   5.662   3.643   4.429
   8523SM  H18F11423   5.614   3.689   4.340
   8523SM  H18G11424   5.744   3.711   4.462
   8523SM  C19F11425   5.561   3.633   4.544
   8523SM  H19F11426   5.612   3.587   4.631
   8523SM  H19G11427   5.477   3.566   4.514
   8523SM  C20F11428   5.505   3.770   4.587
   8523SM  H20F11429   5.447   3.812   4.502
   8523SM  H20G11430   5.589   3.839   4.608
   8523SM  C21F11431   5.416   3.759   4.711
   8523SM  H21F11432   5.477   3.724   4.797
   8523SM  H21G11433   5.336   3.684   4.692
   8523SM  C22F11434   5.349   3.892   4.749
   8523SM  H22F11435   5.290   3.928   4.662
   8523SM  H22G11436   5.428   3.968   4.768
   8523SM  C23F11437   5.258   3.881   4.872
   8523SM  H23F11438   5.177   3.808   4.853
   8523SM  H23G11439   5.213   3.980   4.896
   8523SM  H23H11440   5.316   3.846   4.960
   8623SM     N11441   3.676   1.558   2.241
   8623SM   C1511442   3.527   1.567   2.240
   8623SM  H15A11443   3.483   1.479   2.285
   8623SM  H15B11444   3.487   1.579   2.141
   8623SM  H15C11445   3.496   1.652   2.301
   8623SM   C1411446   3.718   1.434   2.168
   8623SM  H14A11447   3.683   1.345   2.219
   8623SM  H14B11448   3.826   1.427   2.161
   8623SM  H14C11449   3.680   1.431   2.067
   8623SM   C1311450   3.734   1.676   2.169
   8623SM  H13A11451   3.707   1.767   2.221
   8623SM  H13B11452   3.698   1.682   2.068
   8623SM  H13C11453   3.842   1.669   2.166
   8623SM   C1211454   3.725   1.553   2.385
   8623SM  H12A11455   3.828   1.520   2.385
   8623SM  H12B11456   3.668   1.479   2.438
   8623SM   C1111457   3.719   1.685   2.467
   8623SM  H11A11458   3.790   1.758   2.422
   8623SM  H11B11459   3.759   1.663   2.569
   8623SM     P11460   3.488   1.711   2.589
   8623SM   O1311461   3.374   1.805   2.575
   8623SM   O1411462   3.458   1.567   2.594
   8623SM   O1111463   3.571   1.753   2.716
   8623SM   O1211464   3.588   1.742   2.470
   8623SM   C1S11465   3.641   1.878   2.721
   8623SM   H1S11466   3.574   1.962   2.694
   8623SM   H1T11467   3.727   1.880   2.651
   8623SM    NF11468   3.816   1.827   2.887
   8623SM   HNF11469   3.806   1.734   2.922
   8623SM   C2S11470   3.693   1.901   2.865
   8623SM   H2S11471   3.717   2.009   2.876
   8623SM   C3S11472   3.581   1.864   2.965
   8623SM   H3S11473   3.556   1.756   2.959
   8623SM    O311474   3.461   1.936   2.937
   8623SM   HO311475   3.432   1.897   2.854
   8623SM   C4S11476   3.627   1.896   3.104
   8623SM   H4S11477   3.622   2.003   3.131
   8623SM   C5S11478   3.673   1.809   3.195
   8623SM   H5S11479   3.680   1.702   3.171
   8623SM   C6S11480   3.719   1.849   3.333
   8623SM   H6S11481   3.678   1.948   3.362
   8623SM   H6T11482   3.829   1.858   3.334
   8623SM   C7S11483   3.679   1.746   3.439
   8623SM   H7S11484   3.727   1.649   3.415
   8623SM   H7T11485   3.569   1.729   3.439
   8623SM   C8S11486   3.724   1.789   3.579
   8623SM   H8S11487   3.825   1.834   3.572
   8623SM   H8T11488   3.731   1.699   3.644
   8623SM   C9S11489   3.628   1.889   3.645
   8623SM   H9S11490   3.534   1.835   3.669
   8623SM   H9T11491   3.603   1.971   3.575
   8623SM  C10S11492   3.687   1.949   3.774
   8623SM  H10S11493   3.764   2.025   3.748
   8623SM  H10T11494   3.737   1.868   3.831
   8623SM  C11S11495   3.578   2.010   3.863
   8623SM  H11S11496   3.506   1.929   3.885
   8623SM  H11T11497   3.524   2.091   3.809
   8623SM  C12S11498   3.632   2.061   3.996
   8623SM  H12S11499   3.689   2.156   3.982
   8623SM  H12T11500   3.703   1.985   4.036
   8623SM  C13S11501   3.521   2.081   4.100
   8623SM  H13S11502   3.455   1.992   4.097
   8623SM  H13T11503   3.459   2.170   4.075
   8623SM  C14S11504   3.577   2.092   4.242
   8623SM  H14S11505   3.623   2.192   4.258
   8623SM  H14T11506   3.658   2.016   4.251
   8623SM  C15S11507   3.474   2.062   4.351
   8623SM  H15S11508   3.418   1.971   4.320
   8623SM  H15T11509   3.400   2.145   4.359
   8623SM  C16S11510   3.537   2.034   4.488
   8623SM  H16S11511   3.636   1.985   4.474
   8623SM  H16T11512   3.473   1.960   4.541
   8623SM  C17S11513   3.552   2.158   4.576
   8623SM  H17S11514   3.456   2.215   4.574
   8623SM  H17T11515   3.630   2.224   4.532
   8623SM  C18S11516   3.587   2.124   4.721
   8623SM  H18S11517   3.685   2.073   4.726
   8623SM  H18T11518   3.509   2.058   4.765
   8623SM  H18U11519   3.592   2.217   4.782
   8623SM   C1F11520   3.932   1.861   2.833
   8623SM    OF11521   3.945   1.969   2.776
   8623SM   C2F11522   4.046   1.765   2.849
   8623SM   H2F11523   4.061   1.746   2.958
   8623SM   H2G11524   4.138   1.814   2.810
   8623SM   C3F11525   4.027   1.630   2.774
   8623SM   H3F11526   4.121   1.572   2.788
   8623SM   H3G11527   4.018   1.650   2.665
   8623SM   C4F11528   3.910   1.540   2.819
   8623SM   H4F11529   3.922   1.442   2.767
   8623SM   H4G11530   3.814   1.582   2.784
   8623SM   C5F11531   3.904   1.513   2.970
   8623SM   H5F11532   3.883   1.606   3.027
   8623SM   H5G11533   4.004   1.476   3.003
   8623SM   C6F11534   3.802   1.405   3.010
   8623SM   H6F11535   3.813   1.385   3.119
   8623SM   H6G11536   3.827   1.311   2.958
   8623SM   C7F11537   3.656   1.443   2.979
   8623SM   H7F11538   3.645   1.447   2.868
   8623SM   H7G11539   3.633   1.544   3.018
   8623SM   C8F11540   3.554   1.342   3.034
   8623SM   H8F11541   3.601   1.241   3.040
   8623SM   H8G11542   3.472   1.335   2.959
   8623SM   C9F11543   3.493   1.380   3.169
   8623SM   H9F11544   3.409   1.311   3.192
   8623SM   H9G11545   3.451   1.483   3.163
   8623SM  C10F11546   3.591   1.374   3.288
   8623SM  H10F11547   3.674   1.445   3.272
   8623SM  H10G11548   3.635   1.272   3.293
   8623SM  C11F11549   3.523   1.407   3.421
   8623SM  H11F11550   3.433   1.343   3.434
   8623SM  H11G11551   3.489   1.513   3.418
   8623SM  C12F11552   3.615   1.388   3.543
   8623SM  H12F11553   3.711   1.440   3.525
   8623SM  H12G11554   3.638   1.280   3.554
   8623SM  C13F11555   3.552   1.440   3.673
   8623SM  H13F11556   3.453   1.391   3.688
   8623SM  H13G11557   3.535   1.549   3.664
   8623SM  C14F11558   3.641   1.411   3.795
   8623SM  H14F11559   3.742   1.455   3.778
   8623SM  H14G11560   3.654   1.301   3.802
   8623SM  C15F11561   3.585   1.463   3.928
   8623SM  H15F11562   3.647   1.419   4.010
   8623SM  H15G11563   3.481   1.426   3.942
   8623SM  C16F11564   3.587   1.616   3.941
   8623SM  H16F11565   3.517   1.658   3.866
   8623SM  H16G11566   3.689   1.654   3.916
   8623SM  C17F11567   3.547   1.667   4.080
   8623SM  H17F11568   3.451   1.619   4.110
   8623SM  H17G11569   3.530   1.777   4.075
   8623SM  C18F11570   3.653   1.641   4.189
   8623SM  H18F11571   3.747   1.693   4.162
   8623SM  H18G11572   3.675   1.532   4.193
   8623SM  C19F11573   3.606   1.686   4.328
   8623SM  H19F11574   3.507   1.642   4.347
   8623SM  H19G11575   3.595   1.797   4.329
   8623SM  C20F11576   3.703   1.643   4.440
   8623SM  H20F11577   3.804   1.682   4.416
   8623SM  H20G11578   3.708   1.532   4.441
   8623SM  C21F11579   3.664   1.692   4.581
   8623SM  H21F11580   3.672   1.803   4.584
   8623SM  H21G11581   3.737   1.651   4.654
   8623SM  C22F11582   3.522   1.652   4.624
   8623SM  H22F11583   3.514   1.541   4.620
   8623SM  H22G11584   3.448   1.695   4.553
   8623SM  C23F11585   3.486   1.699   4.765
   8623SM  H23F11586   3.556   1.657   4.840
   8623SM  H23G11587   3.383   1.667   4.792
   8623SM  H23H11588   3.491   1.810   4.771
   8723SM     N11589   4.529   1.643   2.148
   8723SM   C1511590   4.554   1.790   2.137
   8723SM  H15A11591   4.659   1.811   2.120
   8723SM  H15B11592   4.526   1.841   2.229
   8723SM  H15C11593   4.498   1.834   2.056
   8723SM   C1411594   4.382   1.621   2.167
   8723SM  H14A11595   4.358   1.515   2.165
   8723SM  H14B11596   4.324   1.671   2.090
   8723SM  H14C11597   4.354   1.658   2.264
   8723SM   C1311598   4.573   1.576   2.021
   8723SM  H13A11599   4.678   1.593   2.004
   8723SM  H13B11600   4.519   1.615   1.936
   8723SM  H13C11601   4.557   1.470   2.026
   8723SM   C1211602   4.607   1.585   2.266
   8723SM  H12A11603   4.713   1.597   2.247
   8723SM  H12B11604   4.590   1.479   2.271
   8723SM   C1111605   4.580   1.643   2.407
   8723SM  H11A11606   4.606   1.751   2.407
   8723SM  H11B11607   4.650   1.595   2.479
   8723SM     P11608   4.398   1.495   2.519
   8723SM   O1311609   4.252   1.504   2.545
   8723SM   O1411610   4.443   1.376   2.443
   8723SM   O1111611   4.476   1.504   2.655
   8723SM   O1211612   4.443   1.627   2.445
   8723SM   C1S11613   4.460   1.621   2.736
   8723SM   H1S11614   4.352   1.641   2.759
   8723SM   H1T11615   4.499   1.710   2.681
   8723SM    NF11616   4.442   1.569   2.976
   8723SM   HNF11617   4.405   1.638   3.038
   8723SM   C2S11618   4.535   1.612   2.872
   8723SM   H2S11619   4.617   1.537   2.864
   8723SM   C3S11620   4.600   1.751   2.900
   8723SM   H3S11621   4.523   1.829   2.885
   8723SM    O311622   4.709   1.782   2.813
   8723SM   HO311623   4.716   1.708   2.753
   8723SM   C4S11624   4.651   1.758   3.041
   8723SM   H4S11625   4.737   1.692   3.063
   8723SM   C5S11626   4.601   1.838   3.138
   8723SM   H5S11627   4.517   1.905   3.114
   8723SM   C6S11628   4.652   1.845   3.279
   8723SM   H6S11629   4.660   1.951   3.311
   8723SM   H6T11630   4.754   1.802   3.288
   8723SM   C7S11631   4.559   1.770   3.376
   8723SM   H7S11632   4.560   1.662   3.350
   8723SM   H7T11633   4.455   1.807   3.367
   8723SM   C8S11634   4.604   1.786   3.522
   8723SM   H8S11635   4.593   1.892   3.552
   8723SM   H8T11636   4.712   1.761   3.527
   8723SM   C9S11637   4.527   1.695   3.619
   8723SM   H9S11638   4.526   1.591   3.580
   8723SM   H9T11639   4.422   1.731   3.626
   8723SM  C10S11640   4.591   1.695   3.759
   8723SM  H10S11641   4.597   1.800   3.794
   8723SM  H10T11642   4.694   1.655   3.750
   8723SM  C11S11643   4.515   1.609   3.862
   8723SM  H11S11644   4.496   1.508   3.819
   8723SM  H11T11645   4.417   1.656   3.881
   8723SM  C12S11646   4.592   1.594   3.995
   8723SM  H12S11647   4.680   1.529   3.978
   8723SM  H12T11648   4.526   1.543   4.068
   8723SM  C13S11649   4.639   1.728   4.053
   8723SM  H13S11650   4.552   1.796   4.063
   8723SM  H13T11651   4.711   1.775   3.982
   8723SM  C14S11652   4.710   1.715   4.188
   8723SM  H14S11653   4.797   1.647   4.177
   8723SM  H14T11654   4.641   1.671   4.263
   8723SM  C15S11655   4.759   1.852   4.237
   8723SM  H15S11656   4.672   1.917   4.261
   8723SM  H15T11657   4.815   1.901   4.155
   8723SM  C16S11658   4.851   1.842   4.359
   8723SM  H16S11659   4.936   1.775   4.334
   8723SM  H16T11660   4.796   1.797   4.444
   8723SM  C17S11661   4.908   1.978   4.401
   8723SM  H17S11662   4.823   2.046   4.424
   8723SM  H17T11663   4.963   2.023   4.316
   8723SM  C18S11664   5.001   1.969   4.522
   8723SM  H18S11665   4.952   1.913   4.605
   8723SM  H18T11666   5.026   2.070   4.560
   8723SM  H18U11667   5.095   1.917   4.495
   8723SM   C1F11668   4.394   1.444   2.980
   8723SM    OF11669   4.458   1.351   2.934
   8723SM   C2F11670   4.257   1.426   3.038
   8723SM   H2F11671   4.195   1.379   2.959
   8723SM   H2G11672   4.214   1.525   3.062
   8723SM   C3F11673   4.254   1.334   3.163
   8723SM   H3F11674   4.294   1.234   3.135
   8723SM   H3G11675   4.147   1.319   3.191
   8723SM   C4F11676   4.331   1.386   3.285
   8723SM   H4F11677   4.439   1.387   3.262
   8723SM   H4G11678   4.315   1.314   3.368
   8723SM   C5F11679   4.290   1.526   3.336
   8723SM   H5F11680   4.321   1.603   3.261
   8723SM   H5G11681   4.349   1.546   3.428
   8723SM   C6F11682   4.141   1.544   3.367
   8723SM   H6F11683   4.103   1.456   3.423
   8723SM   H6G11684   4.085   1.547   3.271
   8723SM   C7F11685   4.110   1.672   3.447
   8723SM   H7F11686   4.001   1.694   3.441
   8723SM   H7G11687   4.164   1.756   3.398
   8723SM   C8F11688   4.150   1.665   3.596
   8723SM   H8F11689   4.187   1.765   3.626
   8723SM   H8G11690   4.233   1.593   3.609
   8723SM   C9F11691   4.034   1.627   3.689
   8723SM   H9F11692   3.987   1.534   3.651
   8723SM   H9G11693   3.958   1.707   3.687
   8723SM  C10F11694   4.076   1.604   3.836
   8723SM  H10F11695   4.153   1.524   3.838
   8723SM  H10G11696   3.988   1.567   3.893
   8723SM  C11F11697   4.132   1.729   3.906
   8723SM  H11F11698   4.055   1.809   3.907
   8723SM  H11G11699   4.219   1.766   3.849
   8723SM  C12F11700   4.177   1.699   4.050
   8723SM  H12F11701   4.242   1.608   4.048
   8723SM  H12G11702   4.089   1.675   4.114
   8723SM  C13F11703   4.259   1.813   4.113
   8723SM  H13F11704   4.195   1.903   4.128
   8723SM  H13G11705   4.339   1.841   4.042
   8723SM  C14F11706   4.325   1.773   4.247
   8723SM  H14F11707   4.411   1.841   4.266
   8723SM  H14G11708   4.365   1.670   4.238
   8723SM  C15F11709   4.229   1.783   4.367
   8723SM  H15F11710   4.137   1.724   4.347
   8723SM  H15G11711   4.199   1.890   4.376
   8723SM  C16F11712   4.292   1.737   4.500
   8723SM  H16F11713   4.395   1.778   4.507
   8723SM  H16G11714   4.299   1.627   4.502
   8723SM  C17F11715   4.210   1.788   4.619
   8723SM  H17F11716   4.105   1.754   4.611
   8723SM  H17G11717   4.211   1.899   4.614
   8723SM  C18F11718   4.265   1.750   4.758
   8723SM  H18F11719   4.221   1.822   4.830
   8723SM  H18G11720   4.375   1.763   4.761
   8723SM  C19F11721   4.228   1.609   4.806
   8723SM  H19F11722   4.287   1.534   4.749
   8723SM  H19G11723   4.120   1.590   4.785
   8723SM  C20F11724   4.253   1.594   4.956
   8723SM  H20F11725   4.183   1.661   5.012
   8723SM  H20G11726   4.356   1.628   4.978
   8723SM  C21F11727   4.235   1.450   5.007
   8723SM  H21F11728   4.310   1.386   4.955
   8723SM  H21G11729   4.134   1.414   4.978
   8723SM  C22F11730   4.251   1.435   5.159
   8723SM  H22F11731   4.241   1.327   5.184
   8723SM  H22G11732   4.168   1.488   5.209
   8723SM  C23F11733   4.385   1.487   5.215
   8723SM  H23F11734   4.470   1.439   5.162
   8723SM  H23G11735   4.393   1.464   5.323
   8723SM  H23H11736   4.393   1.597   5.202
   8823SM     N11737   1.765   2.355   2.189
   8823SM   C1511738   1.841   2.284   2.081
   8823SM  H15A11739   1.781   2.268   1.993
   8823SM  H15B11740   1.876   2.188   2.116
   8823SM  H15C11741   1.928   2.340   2.053
   8823SM   C1411742   1.857   2.372   2.305
   8823SM  H14A11743   1.884   2.276   2.347
   8823SM  H14B11744   1.809   2.428   2.384
   8823SM  H14C11745   1.948   2.424   2.277
   8823SM   C1311746   1.724   2.491   2.140
   8823SM  H13A11747   1.668   2.541   2.218
   8823SM  H13B11748   1.660   2.485   2.054
   8823SM  H13C11749   1.810   2.553   2.117
   8823SM   C1211750   1.643   2.274   2.231
   8823SM  H12A11751   1.676   2.174   2.252
   8823SM  H12B11752   1.573   2.271   2.149
   8823SM   C1111753   1.564   2.319   2.357
   8823SM  H11A11754   1.624   2.284   2.445
   8823SM  H11B11755   1.469   2.263   2.361
   8823SM     P11756   1.553   2.540   2.495
   8823SM   O1311757   1.683   2.505   2.556
   8823SM   O1411758   1.527   2.683   2.468
   8823SM   O1111759   1.431   2.483   2.579
   8823SM   O1211760   1.537   2.460   2.359
   8823SM   C1S11761   1.448   2.382   2.680
   8823SM   H1S11762   1.532   2.314   2.658
   8823SM   H1T11763   1.357   2.319   2.685
   8823SM    NF11764   1.490   2.333   2.917
   8823SM   HNF11765   1.411   2.297   2.966
   8823SM   C2S11766   1.468   2.442   2.823
   8823SM   H2S11767   1.559   2.506   2.821
   8823SM   C3S11768   1.346   2.531   2.866
   8823SM   H3S11769   1.257   2.467   2.879
   8823SM    O311770   1.308   2.628   2.767
   8823SM   HO311771   1.354   2.597   2.688
   8823SM   C4S11772   1.379   2.601   2.995
   8823SM   H4S11773   1.429   2.699   2.985
   8823SM   C5S11774   1.351   2.554   3.118
   8823SM   H5S11775   1.299   2.458   3.128
   8823SM   C6S11776   1.383   2.621   3.250
   8823SM   H6S11777   1.290   2.631   3.310
   8823SM   H6T11778   1.421   2.725   3.236
   8823SM   C7S11779   1.487   2.542   3.333
   8823SM   H7S11780   1.588   2.567   3.293
   8823SM   H7T11781   1.472   2.433   3.321
   8823SM   C8S11782   1.482   2.574   3.484
   8823SM   H8S11783   1.465   2.683   3.497
   8823SM   H8T11784   1.580   2.548   3.530
   8823SM   C9S11785   1.372   2.494   3.556
   8823SM   H9S11786   1.399   2.386   3.556
   8823SM   H9T11787   1.279   2.504   3.496
   8823SM  C10S11788   1.340   2.540   3.699
   8823SM  H10S11789   1.244   2.493   3.728
   8823SM  H10T11790   1.325   2.650   3.699
   8823SM  C11S11791   1.444   2.502   3.805
   8823SM  H11S11792   1.541   2.550   3.781
   8823SM  H11T11793   1.458   2.392   3.802
   8823SM  C12S11794   1.400   2.542   3.947
   8823SM  H12S11795   1.296   2.507   3.963
   8823SM  H12T11796   1.399   2.653   3.956
   8823SM  C13S11797   1.490   2.482   4.055
   8823SM  H13S11798   1.594   2.516   4.040
   8823SM  H13T11799   1.489   2.371   4.044
   8823SM  C14S11800   1.445   2.516   4.198
   8823SM  H14S11801   1.338   2.491   4.210
   8823SM  H14T11802   1.457   2.625   4.216
   8823SM  C15S11803   1.526   2.437   4.303
   8823SM  H15S11804   1.634   2.460   4.290
   8823SM  H15T11805   1.513   2.329   4.283
   8823SM  C16S11806   1.485   2.465   4.448
   8823SM  H16S11807   1.377   2.444   4.461
   8823SM  H16T11808   1.501   2.573   4.471
   8823SM  C17S11809   1.566   2.380   4.547
   8823SM  H17S11810   1.674   2.401   4.533
   8823SM  H17T11811   1.550   2.273   4.523
   8823SM  C18S11812   1.529   2.403   4.694
   8823SM  H18S11813   1.422   2.379   4.712
   8823SM  H18T11814   1.546   2.510   4.722
   8823SM  H18U11815   1.591   2.339   4.761
   8823SM   C1F11816   1.605   2.266   2.925
   8823SM    OF11817   1.699   2.292   2.851
   8823SM   C2F11818   1.614   2.158   3.027
   8823SM   H2F11819   1.655   2.066   2.979
   8823SM   H2G11820   1.513   2.134   3.067
   8823SM   C3F11821   1.706   2.201   3.143
   8823SM   H3F11822   1.665   2.293   3.190
   8823SM   H3G11823   1.807   2.225   3.104
   8823SM   C4F11824   1.720   2.092   3.250
   8823SM   H4F11825   1.764   2.002   3.202
   8823SM   H4G11826   1.620   2.063   3.289
   8823SM   C5F11827   1.810   2.135   3.367
   8823SM   H5F11828   1.902   2.182   3.326
   8823SM   H5G11829   1.840   2.044   3.423
   8823SM   C6F11830   1.743   2.230   3.466
   8823SM   H6F11831   1.658   2.177   3.513
   8823SM   H6G11832   1.701   2.319   3.414
   8823SM   C7F11833   1.841   2.278   3.574
   8823SM   H7F11834   1.904   2.359   3.532
   8823SM   H7G11835   1.909   2.194   3.600
   8823SM   C8F11836   1.774   2.324   3.705
   8823SM   H8F11837   1.704   2.408   3.685
   8823SM   H8G11838   1.854   2.363   3.772
   8823SM   C9F11839   1.701   2.210   3.778
   8823SM   H9F11840   1.736   2.113   3.736
   8823SM   H9G11841   1.592   2.217   3.758
   8823SM  C10F11842   1.729   2.207   3.929
   8823SM  H10F11843   1.706   2.306   3.974
   8823SM  H10G11844   1.837   2.188   3.943
   8823SM  C11F11845   1.649   2.098   4.001
   8823SM  H11F11846   1.631   2.015   3.928
   8823SM  H11G11847   1.549   2.136   4.032
   8823SM  C12F11848   1.723   2.037   4.121
   8823SM  H12F11849   1.823   2.003   4.085
   8823SM  H12G11850   1.669   1.947   4.156
   8823SM  C13F11851   1.742   2.132   4.240
   8823SM  H13F11852   1.645   2.144   4.291
   8823SM  H13G11853   1.775   2.232   4.205
   8823SM  C14F11854   1.846   2.077   4.338
   8823SM  H14F11855   1.947   2.087   4.293
   8823SM  H14G11856   1.827   1.968   4.352
   8823SM  C15F11857   1.847   2.143   4.476
   8823SM  H15F11858   1.748   2.128   4.524
   8823SM  H15G11859   1.864   2.253   4.466
   8823SM  C16F11860   1.957   2.082   4.564
   8823SM  H16F11861   2.055   2.105   4.518
   8823SM  H16G11862   1.944   1.971   4.561
   8823SM  C17F11863   1.958   2.126   4.711
   8823SM  H17F11864   1.959   2.237   4.718
   8823SM  H17G11865   2.053   2.089   4.755
   8823SM  C18F11866   1.842   2.068   4.793
   8823SM  H18F11867   1.822   1.965   4.758
   8823SM  H18G11868   1.750   2.127   4.775
   8823SM  C19F11869   1.872   2.060   4.944
   8823SM  H19F11870   1.962   1.998   4.961
   8823SM  H19G11871   1.787   2.008   4.994
   8823SM  C20F11872   1.891   2.197   5.012
   8823SM  H20F11873   1.803   2.261   4.988
   8823SM  H20G11874   1.981   2.247   4.970
   8823SM  C21F11875   1.904   2.185   5.165
   8823SM  H21F11876   1.991   2.121   5.189
   8823SM  H21G11877   1.813   2.135   5.204
   8823SM  C22F11878   1.920   2.321   5.234
   8823SM  H22F11879   1.843   2.390   5.195
   8823SM  H22G11880   2.020   2.363   5.208
   8823SM  C23F11881   1.907   2.314   5.387
   8823SM  H23F11882   1.924   2.414   5.432
   8823SM  H23G11883   1.982   2.243   5.429
   8823SM  H23H11884   1.806   2.278   5.415
   8923SM     N11885   6.051   2.590   2.161
   8923SM   C1511886   5.953   2.680   2.094
   8923SM  H15A11887   5.851   2.654   2.120
   8923SM  H15B11888   5.958   2.671   1.986
   8923SM  H15C11889   5.968   2.784   2.119
   8923SM   C1411890   6.024   2.450   2.115
   8923SM  H14A11891   5.921   2.423   2.132
   8923SM  H14B11892   6.084   2.379   2.170
   8923SM  H14C11893   6.045   2.438   2.010
   8923SM   C1311894   6.191   2.626   2.120
   8923SM  H13A11895   6.262   2.562   2.169
   8923SM  H13B11896   6.215   2.728   2.145
   8923SM  H13C11897   6.203   2.613   2.013
   8923SM   C1211898   6.035   2.599   2.312
   8923SM  H12A11899   5.933   2.571   2.337
   8923SM  H12B11900   6.047   2.701   2.343
   8923SM   C1111901   6.127   2.510   2.400
   8923SM  H11A11902   6.132   2.556   2.501
   8923SM  H11B11903   6.231   2.512   2.362
   8923SM     P11904   5.950   2.341   2.490
   8923SM   O1311905   5.833   2.396   2.418
   8923SM   O1411906   5.947   2.197   2.521
   8923SM   O1111907   5.964   2.426   2.622
   8923SM   O1211908   6.081   2.375   2.406
   8923SM   C1S11909   6.064   2.403   2.721
   8923SM   H1S11910   6.163   2.440   2.685
   8923SM   H1T11911   6.075   2.295   2.746
   8923SM    NF11912   6.141   2.469   2.946
   8923SM   HNF11913   6.139   2.396   3.014
   8923SM   C2S11914   6.029   2.478   2.853
   8923SM   H2S11915   6.011   2.585   2.829
   8923SM   C3S11916   5.896   2.420   2.911
   8923SM   H3S11917   5.909   2.310   2.925
   8923SM    O311918   5.786   2.438   2.822
   8923SM   HO311919   5.830   2.447   2.737
   8923SM   C4S11920   5.860   2.483   3.043
   8923SM   H4S11921   5.867   2.593   3.044
   8923SM   C5S11922   5.823   2.417   3.154
   8923SM   H5S11923   5.814   2.307   3.150
   8923SM   C6S11924   5.786   2.479   3.287
   8923SM   H6S11925   5.803   2.589   3.288
   8923SM   H6T11926   5.849   2.435   3.367
   8923SM   C7S11927   5.637   2.453   3.319
   8923SM   H7S11928   5.616   2.344   3.312
   8923SM   H7T11929   5.574   2.503   3.243
   8923SM   C8S11930   5.592   2.500   3.459
   8923SM   H8S11931   5.482   2.483   3.465
   8923SM   H8T11932   5.610   2.609   3.470
   8923SM   C9S11933   5.658   2.423   3.574
   8923SM   H9S11934   5.762   2.460   3.588
   8923SM   H9T11935   5.664   2.316   3.546
   8923SM  C10S11936   5.582   2.432   3.708
   8923SM  H10S11937   5.635   2.369   3.782
   8923SM  H10T11938   5.481   2.388   3.694
   8923SM  C11S11939   5.568   2.574   3.764
   8923SM  H11S11940   5.514   2.637   3.690
   8923SM  H11T11941   5.670   2.618   3.775
   8923SM  C12S11942   5.495   2.582   3.899
   8923SM  H12S11943   5.391   2.546   3.888
   8923SM  H12T11944   5.491   2.689   3.929
   8923SM  C13S11945   5.565   2.503   4.011
   8923SM  H13S11946   5.674   2.521   4.003
   8923SM  H13T11947   5.549   2.394   3.996
   8923SM  C14S11948   5.519   2.543   4.152
   8923SM  H14S11949   5.414   2.512   4.169
   8923SM  H14T11950   5.523   2.654   4.160
   8923SM  C15S11951   5.610   2.485   4.261
   8923SM  H15S11952   5.716   2.499   4.230
   8923SM  H15T11953   5.593   2.375   4.269
   8923SM  C16S11954   5.592   2.551   4.398
   8923SM  H16S11955   5.489   2.534   4.435
   8923SM  H16T11956   5.607   2.661   4.387
   8923SM  C17S11957   5.692   2.498   4.502
   8923SM  H17S11958   5.795   2.506   4.460
   8923SM  H17T11959   5.672   2.390   4.519
   8923SM  C18S11960   5.687   2.572   4.636
   8923SM  H18S11961   5.759   2.528   4.708
   8923SM  H18T11962   5.585   2.566   4.680
   8923SM  H18U11963   5.713   2.679   4.621
   8923SM   C1F11964   6.254   2.539   2.927
   8923SM    OF11965   6.255   2.635   2.850
   8923SM   C2F11966   6.374   2.493   3.005
   8923SM   H2F11967   6.405   2.395   2.965
   8923SM   H2G11968   6.344   2.477   3.111
   8923SM   C3F11969   6.496   2.588   3.001
   8923SM   H3F11970   6.532   2.595   2.896
   8923SM   H3G11971   6.578   2.542   3.060
   8923SM   C4F11972   6.476   2.732   3.053
   8923SM   H4F11973   6.408   2.789   2.986
   8923SM   H4G11974   6.575   2.782   3.047
   8923SM   C5F11975   6.427   2.744   3.198
   8923SM   H5F11976   6.464   2.840   3.239
   8923SM   H5G11977   6.469   2.662   3.261
   8923SM   C6F11978   6.274   2.748   3.209
   8923SM   H6F11979   6.229   2.649   3.184
   8923SM   H6G11980   6.237   2.822   3.134
   8923SM   C7F11981   6.223   2.795   3.346
   8923SM   H7F11982   6.113   2.813   3.336
   8923SM   H7G11983   6.270   2.892   3.370
   8923SM   C8F11984   6.245   2.696   3.461
   8923SM   H8F11985   6.211   2.747   3.554
   8923SM   H8G11986   6.354   2.676   3.475
   8923SM   C9F11987   6.168   2.564   3.446
   8923SM   H9F11988   6.235   2.490   3.397
   8923SM   H9G11989   6.081   2.581   3.380
   8923SM  C10F11990   6.116   2.506   3.579
   8923SM  H10F11991   6.075   2.405   3.560
   8923SM  H10G11992   6.032   2.569   3.615
   8923SM  C11F11993   6.221   2.498   3.690
   8923SM  H11F11994   6.256   2.600   3.718
   8923SM  H11G11995   6.309   2.442   3.652
   8923SM  C12F11996   6.169   2.427   3.817
   8923SM  H12F11997   6.137   2.325   3.788
   8923SM  H12G11998   6.080   2.481   3.856
   8923SM  C13F11999   6.276   2.418   3.926
   8923SM  H13F12000   6.293   2.518   3.972
   8923SM  H13G12001   6.372   2.388   3.877
   8923SM  C14F12002   6.246   2.313   4.034
   8923SM  H14F12003   6.340   2.293   4.090
   8923SM  H14G12004   6.216   2.219   3.982
   8923SM  C15F12005   6.135   2.350   4.134
   8923SM  H15F12006   6.042   2.367   4.077
   8923SM  H15G12007   6.162   2.445   4.185
   8923SM  C16F12008   6.110   2.241   4.239
   8923SM  H16F12009   6.098   2.144   4.185
   8923SM  H16G12010   6.015   2.262   4.292
   8923SM  C17F12011   6.222   2.225   4.344
   8923SM  H17F12012   6.321   2.231   4.293
   8923SM  H17G12013   6.216   2.125   4.390
   8923SM  C18F12014   6.217   2.330   4.456
   8923SM  H18F12015   6.134   2.305   4.526
   8923SM  H18G12016   6.192   2.429   4.411
   8923SM  C19F12017   6.350   2.342   4.532
   8923SM  H19F12018   6.429   2.364   4.457
   8923SM  H19G12019   6.376   2.245   4.579
   8923SM  C20F12020   6.351   2.454   4.637
   8923SM  H20F12021   6.298   2.542   4.594
   8923SM  H20G12022   6.456   2.485   4.656
   8923SM  C21F12023   6.286   2.418   4.771
   8923SM  H21F12024   6.187   2.371   4.753
   8923SM  H21G12025   6.268   2.512   4.828
   8923SM  C22F12026   6.373   2.326   4.858
   8923SM  H22F12027   6.472   2.374   4.873
   8923SM  H22G12028   6.391   2.230   4.803
   8923SM  C23F12029   6.311   2.294   4.994
   8923SM  H23F12030   6.299   2.387   5.054
   8923SM  H23G12031   6.375   2.224   5.051
   8923SM  H23H12032   6.210   2.249   4.981
   9023SM     N12033   5.714   1.988   2.234
   9023SM   C1512034   5.770   1.851   2.213
   9023SM  H15A12035   5.873   1.847   2.244
   9023SM  H15B12036   5.762   1.822   2.110
   9023SM  H15C12037   5.714   1.780   2.273
   9023SM   C1412038   5.781   2.083   2.140
   9023SM  H14A12039   5.888   2.082   2.152
   9023SM  H14B12040   5.747   2.185   2.155
   9023SM  H14C12041   5.759   2.057   2.038
   9023SM   C1312042   5.567   1.984   2.202
   9023SM  H13A12043   5.519   1.918   2.272
   9023SM  H13B12044   5.551   1.948   2.101
   9023SM  H13C12045   5.523   2.082   2.213
   9023SM   C1212046   5.731   2.032   2.379
   9023SM  H12A12047   5.673   2.121   2.397
   9023SM  H12B12048   5.834   2.058   2.399
   9023SM   C1112049   5.686   1.929   2.487
   9023SM  H11A12050   5.710   1.972   2.587
   9023SM  H11B12051   5.749   1.838   2.479
   9023SM     P12052   5.439   1.974   2.555
   9023SM   O1312053   5.460   2.118   2.525
   9023SM   O1412054   5.305   1.918   2.526
   9023SM   O1112055   5.476   1.940   2.706
   9023SM   O1212056   5.548   1.893   2.473
   9023SM   C1S12057   5.520   1.807   2.738
   9023SM   H1S12058   5.603   1.774   2.672
   9023SM   H1T12059   5.438   1.733   2.726
   9023SM    NF12060   5.683   1.702   2.895
   9023SM   HNF12061   5.668   1.622   2.952
   9023SM   C2S12062   5.573   1.798   2.885
   9023SM   H2S12063   5.612   1.899   2.913
   9023SM   C3S12064   5.453   1.763   2.978
   9023SM   H3S12065   5.426   1.657   2.961
   9023SM    O312066   5.335   1.839   2.951
   9023SM   HO312067   5.363   1.906   2.890
   9023SM   C4S12068   5.497   1.775   3.123
   9023SM   H4S12069   5.539   1.682   3.165
   9023SM   C5S12070   5.488   1.883   3.204
   9023SM   H5S12071   5.442   1.974   3.163
   9023SM   C6S12072   5.532   1.894   3.348
   9023SM   H6S12073   5.455   1.952   3.404
   9023SM   H6T12074   5.624   1.955   3.352
   9023SM   C7S12075   5.560   1.766   3.432
   9023SM   H7S12076   5.608   1.798   3.527
   9023SM   H7T12077   5.632   1.700   3.379
   9023SM   C8S12078   5.433   1.686   3.468
   9023SM   H8S12079   5.390   1.645   3.375
   9023SM   H8T12080   5.357   1.756   3.511
   9023SM   C9S12081   5.457   1.571   3.568
   9023SM   H9S12082   5.547   1.514   3.539
   9023SM   H9T12083   5.370   1.502   3.561
   9023SM  C10S12084   5.469   1.615   3.716
   9023SM  H10S12085   5.382   1.680   3.739
   9023SM  H10T12086   5.561   1.675   3.731
   9023SM  C11S12087   5.467   1.495   3.812
   9023SM  H11S12088   5.562   1.438   3.805
   9023SM  H11T12089   5.385   1.427   3.778
   9023SM  C12S12090   5.437   1.529   3.960
   9023SM  H12S12091   5.409   1.436   4.012
   9023SM  H12T12092   5.350   1.598   3.965
   9023SM  C13S12093   5.554   1.593   4.036
   9023SM  H13S12094   5.583   1.687   3.984
   9023SM  H13T12095   5.641   1.523   4.032
   9023SM  C14S12096   5.520   1.626   4.182
   9023SM  H14S12097   5.416   1.666   4.185
   9023SM  H14T12098   5.587   1.707   4.218
   9023SM  C15S12099   5.531   1.507   4.280
   9023SM  H15S12100   5.474   1.421   4.239
   9023SM  H15T12101   5.482   1.536   4.376
   9023SM  C16S12102   5.676   1.465   4.310
   9023SM  H16S12103   5.732   1.551   4.352
   9023SM  H16T12104   5.725   1.436   4.215
   9023SM  C17S12105   5.687   1.347   4.408
   9023SM  H17S12106   5.791   1.308   4.403
   9023SM  H17T12107   5.619   1.265   4.374
   9023SM  C18S12108   5.657   1.381   4.554
   9023SM  H18S12109   5.663   1.290   4.617
   9023SM  H18T12110   5.555   1.424   4.565
   9023SM  H18U12111   5.730   1.455   4.592
   9023SM   C1F12112   5.802   1.720   2.834
   9023SM    OF12113   5.830   1.824   2.778
   9023SM   C2F12114   5.897   1.603   2.832
   9023SM   H2F12115   5.942   1.600   2.731
   9023SM   H2G12116   5.841   1.508   2.848
   9023SM   C3F12117   6.010   1.618   2.936
   9023SM   H3F12118   6.051   1.721   2.933
   9023SM   H3G12119   6.093   1.550   2.910
   9023SM   C4F12120   5.964   1.584   3.079
   9023SM   H4F12121   5.943   1.475   3.085
   9023SM   H4G12122   5.871   1.639   3.103
   9023SM   C5F12123   6.069   1.620   3.185
   9023SM   H5F12124   6.078   1.731   3.188
   9023SM   H5G12125   6.169   1.580   3.157
   9023SM   C6F12126   6.030   1.568   3.324
   9023SM   H6F12127   6.064   1.463   3.335
   9023SM   H6G12128   5.919   1.568   3.331
   9023SM   C7F12129   6.083   1.654   3.439
   9023SM   H7F12130   6.043   1.757   3.426
   9023SM   H7G12131   6.194   1.660   3.435
   9023SM   C8F12132   6.039   1.599   3.575
   9023SM   H8F12133   6.105   1.515   3.605
   9023SM   H8G12134   5.936   1.559   3.565
   9023SM   C9F12135   6.036   1.706   3.686
   9023SM   H9F12136   5.967   1.787   3.654
   9023SM   H9G12137   6.137   1.750   3.699
   9023SM  C10F12138   5.987   1.647   3.819
   9023SM  H10F12139   6.065   1.580   3.860
   9023SM  H10G12140   5.896   1.586   3.800
   9023SM  C11F12141   5.950   1.754   3.923
   9023SM  H11F12142   5.866   1.816   3.884
   9023SM  H11G12143   6.037   1.822   3.939
   9023SM  C12F12144   5.908   1.689   4.056
   9023SM  H12F12145   5.992   1.628   4.095
   9023SM  H12G12146   5.825   1.618   4.033
   9023SM  C13F12147   5.861   1.787   4.164
   9023SM  H13F12148   5.808   1.728   4.241
   9023SM  H13G12149   5.788   1.860   4.121
   9023SM  C14F12150   5.977   1.861   4.231
   9023SM  H14F12151   6.024   1.929   4.158
   9023SM  H14G12152   6.053   1.785   4.261
   9023SM  C15F12153   5.940   1.938   4.359
   9023SM  H15F12154   5.863   2.015   4.337
   9023SM  H15G12155   6.031   1.991   4.392
   9023SM  C16F12156   5.894   1.847   4.475
   9023SM  H16F12157   5.949   1.880   4.566
   9023SM  H16G12158   5.924   1.742   4.455
   9023SM  C17F12159   5.743   1.855   4.503
   9023SM  H17F12160   5.687   1.815   4.415
   9023SM  H17G12161   5.716   1.962   4.515
   9023SM  C18F12162   5.699   1.780   4.630
   9023SM  H18F12163   5.719   1.671   4.618
   9023SM  H18G12164   5.590   1.793   4.642
   9023SM  C19F12165   5.770   1.832   4.756
   9023SM  H19F12166   5.767   1.943   4.754
   9023SM  H19G12167   5.877   1.801   4.753
   9023SM  C20F12168   5.709   1.783   4.888
   9023SM  H20F12169   5.721   1.673   4.896
   9023SM  H20G12170   5.601   1.807   4.888
   9023SM  C21F12171   5.776   1.852   5.008
   9023SM  H21F12172   5.767   1.962   4.993
   9023SM  H21G12173   5.885   1.828   5.009
   9023SM  C22F12174   5.714   1.816   5.143
   9023SM  H22F12175   5.604   1.825   5.135
   9023SM  H22G12176   5.749   1.889   5.218
   9023SM  C23F12177   5.749   1.675   5.191
   9023SM  H23F12178   5.860   1.661   5.192
   9023SM  H23G12179   5.705   1.599   5.124
   9023SM  H23H12180   5.712   1.659   5.294
   9123SM     N12181   6.549   4.508   2.311
   9123SM   C1512182   6.611   4.372   2.293
   9123SM  H15A12183   6.718   4.378   2.295
   9123SM  H15B12184   6.583   4.327   2.199
   9123SM  H15C12185   6.581   4.306   2.373
   9123SM   C1412186   6.592   4.560   2.444
   9123SM  H14A12187   6.553   4.660   2.457
   9123SM  H14B12188   6.700   4.565   2.450
   9123SM  H14C12189   6.557   4.496   2.524
   9123SM   C1312190   6.603   4.603   2.208
   9123SM  H13A12191   6.569   4.703   2.231
   9123SM  H13B12192   6.571   4.577   2.109
   9123SM  H13C12193   6.711   4.606   2.211
   9123SM   C1212194   6.397   4.501   2.301
   9123SM  H12A12195   6.359   4.444   2.385
   9123SM  H12B12196   6.370   4.444   2.212
   9123SM   C1112197   6.314   4.633   2.294
   9123SM  H11A12198   6.210   4.605   2.267
   9123SM  H11B12199   6.351   4.696   2.211
   9123SM     P12200   6.358   4.847   2.439
   9123SM   O1312201   6.498   4.856   2.395
   9123SM   O1412202   6.261   4.943   2.379
   9123SM   O1112203   6.352   4.860   2.598
   9123SM   O1212204   6.310   4.699   2.420
   9123SM   C1S12205   6.437   4.766   2.666
   9123SM   H1S12206   6.543   4.785   2.638
   9123SM   H1T12207   6.413   4.661   2.639
   9123SM    NF12208   6.542   4.706   2.879
   9123SM   HNF12209   6.529   4.616   2.919
   9123SM   C2S12210   6.425   4.773   2.821
   9123SM   H2S12211   6.428   4.880   2.852
   9123SM   C3S12212   6.289   4.712   2.866
   9123SM   H3S12213   6.286   4.606   2.832
   9123SM    O312214   6.174   4.775   2.810
   9123SM   HO312215   6.210   4.824   2.735
   9123SM   C4S12216   6.278   4.717   3.016
   9123SM   H4S12217   6.263   4.818   3.057
   9123SM   C5S12218   6.284   4.610   3.098
   9123SM   H5S12219   6.300   4.510   3.054
   9123SM   C6S12220   6.273   4.612   3.249
   9123SM   H6S12221   6.373   4.590   3.292
   9123SM   H6T12222   6.206   4.530   3.282
   9123SM   C7S12223   6.224   4.743   3.313
   9123SM   H7S12224   6.118   4.762   3.284
   9123SM   H7T12225   6.284   4.829   3.278
   9123SM   C8S12226   6.233   4.742   3.467
   9123SM   H8S12227   6.186   4.835   3.505
   9123SM   H8T12228   6.340   4.745   3.497
   9123SM   C9S12229   6.165   4.621   3.534
   9123SM   H9S12230   6.227   4.530   3.519
   9123SM   H9T12231   6.067   4.604   3.485
   9123SM  C10S12232   6.140   4.642   3.684
   9123SM  H10S12233   6.076   4.559   3.723
   9123SM  H10T12234   6.084   4.737   3.697
   9123SM  C11S12235   6.267   4.649   3.770
   9123SM  H11S12236   6.337   4.722   3.724
   9123SM  H11T12237   6.319   4.550   3.771
   9123SM  C12S12238   6.240   4.695   3.914
   9123SM  H12S12239   6.178   4.787   3.909
   9123SM  H12T12240   6.337   4.722   3.962
   9123SM  C13S12241   6.168   4.593   4.003
   9123SM  H13S12242   6.226   4.498   4.004
   9123SM  H13T12243   6.069   4.572   3.958
   9123SM  C14S12244   6.146   4.641   4.148
   9123SM  H14S12245   6.078   4.569   4.198
   9123SM  H14T12246   6.096   4.739   4.149
   9123SM  C15S12247   6.275   4.650   4.230
   9123SM  H15S12248   6.337   4.736   4.194
   9123SM  H15T12249   6.333   4.557   4.215
   9123SM  C16S12250   6.247   4.665   4.380
   9123SM  H16S12251   6.195   4.573   4.413
   9123SM  H16T12252   6.180   4.751   4.399
   9123SM  C17S12253   6.375   4.682   4.463
   9123SM  H17S12254   6.416   4.783   4.446
   9123SM  H17T12255   6.449   4.609   4.424
   9123SM  C18S12256   6.357   4.657   4.613
   9123SM  H18S12257   6.331   4.550   4.631
   9123SM  H18T12258   6.276   4.720   4.655
   9123SM  H18U12259   6.451   4.680   4.668
   9123SM   C1F12260   6.665   4.756   2.866
   9123SM    OF12261   6.683   4.869   2.822
   9123SM   C2F12262   6.779   4.667   2.904
   9123SM   H2F12263   6.841   4.648   2.814
   9123SM   H2G12264   6.739   4.570   2.940
   9123SM   C3F12265   6.865   4.732   3.014
   9123SM   H3F12266   6.917   4.821   2.973
   9123SM   H3G12267   6.942   4.657   3.043
   9123SM   C4F12268   6.785   4.771   3.139
   9123SM   H4F12269   6.722   4.685   3.168
   9123SM   H4G12270   6.718   4.856   3.116
   9123SM   C5F12271   6.875   4.807   3.258
   9123SM   H5F12272   6.944   4.891   3.232
   9123SM   H5G12273   6.937   4.718   3.281
   9123SM   C6F12274   6.792   4.844   3.382
   9123SM   H6F12275   6.695   4.790   3.377
   9123SM   H6G12276   6.770   4.953   3.383
   9123SM   C7F12277   6.863   4.802   3.511
   9123SM   H7F12278   6.962   4.852   3.516
   9123SM   H7G12279   6.883   4.692   3.506
   9123SM   C8F12280   6.784   4.833   3.639
   9123SM   H8F12281   6.777   4.944   3.650
   9123SM   H8G12282   6.844   4.796   3.725
   9123SM   C9F12283   6.642   4.775   3.648
   9123SM   H9F12284   6.576   4.832   3.578
   9123SM   H9G12285   6.603   4.796   3.750
   9123SM  C10F12286   6.626   4.625   3.617
   9123SM  H10F12287   6.641   4.609   3.508
   9123SM  H10G12288   6.522   4.596   3.640
   9123SM  C11F12289   6.721   4.529   3.692
   9123SM  H11F12290   6.823   4.538   3.649
   9123SM  H11G12291   6.688   4.425   3.672
   9123SM  C12F12292   6.732   4.549   3.844
   9123SM  H12F12293   6.785   4.644   3.865
   9123SM  H12G12294   6.795   4.466   3.884
   9123SM  C13F12295   6.599   4.547   3.920
   9123SM  H13F12296   6.538   4.461   3.886
   9123SM  H13G12297   6.543   4.640   3.896
   9123SM  C14F12298   6.618   4.538   4.072
   9123SM  H14F12299   6.651   4.435   4.098
   9123SM  H14G12300   6.519   4.554   4.120
   9123SM  C15F12301   6.718   4.639   4.131
   9123SM  H15F12302   6.700   4.739   4.085
   9123SM  H15G12303   6.821   4.607   4.103
   9123SM  C16F12304   6.711   4.654   4.284
   9123SM  H16F12305   6.621   4.714   4.309
   9123SM  H16G12306   6.800   4.711   4.319
   9123SM  C17F12307   6.702   4.520   4.359
   9123SM  H17F12308   6.786   4.455   4.325
   9123SM  H17G12309   6.608   4.470   4.330
   9123SM  C18F12310   6.704   4.533   4.512
   9123SM  H18F12311   6.645   4.623   4.541
   9123SM  H18G12312   6.809   4.550   4.547
   9123SM  C19F12313   6.643   4.410   4.581
   9123SM  H19F12314   6.704   4.321   4.557
   9123SM  H19G12315   6.542   4.393   4.538
   9123SM  C20F12316   6.630   4.421   4.733
   9123SM  H20F12317   6.560   4.504   4.758
   9123SM  H20G12318   6.729   4.447   4.777
   9123SM  C21F12319   6.580   4.290   4.795
   9123SM  H21F12320   6.660   4.214   4.784
   9123SM  H21G12321   6.492   4.254   4.738
   9123SM  C22F12322   6.541   4.302   4.943
   9123SM  H22F12323   6.617   4.363   4.996
   9123SM  H22G12324   6.542   4.200   4.987
   9123SM  C23F12325   6.401   4.362   4.964
   9123SM  H23F12326   6.395   4.464   4.919
   9123SM  H23G12327   6.378   4.369   5.072
   9123SM  H23H12328   6.324   4.299   4.916
   9223SM     N12329   5.328   1.133   2.209
   9223SM   C1512330   5.199   1.056   2.209
   9223SM  H15A12331   5.146   1.066   2.116
   9223SM  H15B12332   5.134   1.094   2.287
   9223SM  H15C12333   5.214   0.951   2.229
   9223SM   C1412334   5.392   1.113   2.344
   9223SM  H14A12335   5.490   1.157   2.347
   9223SM  H14B12336   5.397   1.008   2.370
   9223SM  H14C12337   5.331   1.162   2.418
   9223SM   C1312338   5.418   1.080   2.102
   9223SM  H13A12339   5.508   1.140   2.094
   9223SM  H13B12340   5.369   1.082   2.005
   9223SM  H13C12341   5.446   0.978   2.122
   9223SM   C1212342   5.302   1.282   2.190
   9223SM  H12A12343   5.281   1.301   2.085
   9223SM  H12B12344   5.394   1.335   2.212
   9223SM   C1112345   5.189   1.347   2.274
   9223SM  H11A12346   5.093   1.311   2.231
   9223SM  H11B12347   5.192   1.457   2.258
   9223SM     P12348   5.073   1.283   2.497
   9223SM   O1312349   4.980   1.397   2.492
   9223SM   O1412350   5.024   1.152   2.447
   9223SM   O1112351   5.129   1.264   2.644
   9223SM   O1212352   5.203   1.320   2.414
   9223SM   C1S12353   5.047   1.306   2.755
   9223SM   H1S12354   4.941   1.275   2.741
   9223SM   H1T12355   5.049   1.417   2.764
   9223SM    NF12356   5.006   1.286   2.997
   9223SM   HNF12357   5.039   1.355   3.060
   9223SM   C2S12358   5.094   1.244   2.890
   9223SM   H2S12359   5.089   1.134   2.880
   9223SM   C3S12360   5.242   1.283   2.920
   9223SM   H3S12361   5.247   1.392   2.939
   9223SM    O312362   5.333   1.258   2.813
   9223SM   HO312363   5.275   1.246   2.738
   9223SM   C4S12364   5.291   1.209   3.042
   9223SM   H4S12365   5.298   1.100   3.028
   9223SM   C5S12366   5.327   1.263   3.160
   9223SM   H5S12367   5.319   1.372   3.174
   9223SM   C6S12368   5.378   1.187   3.280
   9223SM   H6S12369   5.477   1.226   3.309
   9223SM   H6T12370   5.393   1.079   3.256
   9223SM   C7S12371   5.286   1.194   3.404
   9223SM   H7S12372   5.194   1.135   3.386
   9223SM   H7T12373   5.255   1.299   3.423
   9223SM   C8S12374   5.357   1.141   3.530
   9223SM   H8S12375   5.442   1.209   3.553
   9223SM   H8T12376   5.399   1.041   3.509
   9223SM   C9S12377   5.267   1.132   3.654
   9223SM   H9S12378   5.195   1.048   3.640
   9223SM   H9T12379   5.208   1.225   3.664
   9223SM  C10S12380   5.349   1.110   3.782
   9223SM  H10S12381   5.410   1.201   3.800
   9223SM  H10T12382   5.421   1.026   3.765
   9223SM  C11S12383   5.266   1.080   3.908
   9223SM  H11S12384   5.223   0.978   3.900
   9223SM  H11T12385   5.181   1.152   3.913
   9223SM  C12S12386   5.351   1.093   4.035
   9223SM  H12S12387   5.388   1.198   4.040
   9223SM  H12T12388   5.440   1.027   4.026
   9223SM  C13S12389   5.278   1.060   4.166
   9223SM  H13S12390   5.258   0.951   4.172
   9223SM  H13T12391   5.180   1.113   4.167
   9223SM  C14S12392   5.361   1.106   4.287
   9223SM  H14S12393   5.386   1.213   4.273
   9223SM  H14T12394   5.457   1.050   4.290
   9223SM  C15S12395   5.290   1.092   4.422
   9223SM  H15S12396   5.278   0.984   4.447
   9223SM  H15T12397   5.189   1.137   4.415
   9223SM  C16S12398   5.369   1.163   4.534
   9223SM  H16S12399   5.375   1.271   4.509
   9223SM  H16T12400   5.472   1.122   4.537
   9223SM  C17S12401   5.305   1.148   4.672
   9223SM  H17S12402   5.302   1.040   4.698
   9223SM  H17T12403   5.200   1.184   4.667
   9223SM  C18S12404   5.378   1.224   4.782
   9223SM  H18S12405   5.483   1.188   4.791
   9223SM  H18T12406   5.328   1.210   4.880
   9223SM  H18U12407   5.380   1.333   4.760
   9223SM   C1F12408   4.881   1.241   3.009
   9223SM    OF12409   4.841   1.146   2.944
   9223SM   C2F12410   4.795   1.314   3.108
   9223SM   H2F12411   4.689   1.313   3.073
   9223SM   H2G12412   4.829   1.420   3.113
   9223SM   C3F12413   4.805   1.248   3.247
   9223SM   H3F12414   4.909   1.211   3.265
   9223SM   H3G12415   4.738   1.160   3.249
   9223SM   C4F12416   4.773   1.341   3.364
   9223SM   H4F12417   4.769   1.279   3.457
   9223SM   H4G12418   4.673   1.388   3.351
   9223SM   C5F12419   4.880   1.449   3.385
   9223SM   H5F12420   4.869   1.528   3.308
   9223SM   H5G12421   4.981   1.403   3.372
   9223SM   C6F12422   4.875   1.511   3.525
   9223SM   H6F12423   4.893   1.431   3.600
   9223SM   H6G12424   4.774   1.552   3.543
   9223SM   C7F12425   4.980   1.622   3.543
   9223SM   H7F12426   4.968   1.697   3.462
   9223SM   H7G12427   5.081   1.578   3.532
   9223SM   C8F12428   4.970   1.695   3.679
   9223SM   H8F12429   4.877   1.755   3.680
   9223SM   H8G12430   5.055   1.767   3.686
   9223SM   C9F12431   4.972   1.603   3.802
   9223SM   H9F12432   4.886   1.532   3.798
   9223SM   H9G12433   4.957   1.666   3.893
   9223SM  C10F12434   5.103   1.525   3.816
   9223SM  H10F12435   5.185   1.599   3.827
   9223SM  H10G12436   5.122   1.468   3.723
   9223SM  C11F12437   5.104   1.426   3.933
   9223SM  H11F12438   5.203   1.376   3.934
   9223SM  H11G12439   5.028   1.348   3.915
   9223SM  C12F12440   5.080   1.490   4.071
   9223SM  H12F12441   4.974   1.522   4.077
   9223SM  H12G12442   5.144   1.580   4.083
   9223SM  C13F12443   5.110   1.390   4.184
   9223SM  H13F12444   5.220   1.372   4.189
   9223SM  H13G12445   5.061   1.294   4.158
   9223SM  C14F12446   5.058   1.433   4.321
   9223SM  H14F12447   5.069   1.347   4.391
   9223SM  H14G12448   4.949   1.456   4.313
   9223SM  C15F12449   5.131   1.554   4.381
   9223SM  H15F12450   5.123   1.639   4.309
   9223SM  H15G12451   5.239   1.531   4.394
   9223SM  C16F12452   5.071   1.598   4.515
   9223SM  H16F12453   4.961   1.610   4.504
   9223SM  H16G12454   5.113   1.697   4.542
   9223SM  C17F12455   5.100   1.502   4.631
   9223SM  H17F12456   5.209   1.498   4.648
   9223SM  H17G12457   5.067   1.399   4.605
   9223SM  C18F12458   5.029   1.545   4.760
   9223SM  H18F12459   4.919   1.534   4.747
   9223SM  H18G12460   5.051   1.652   4.779
   9223SM  C19F12461   5.075   1.464   4.882
   9223SM  H19F12462   5.184   1.478   4.894
   9223SM  H19G12463   5.057   1.356   4.863
   9223SM  C20F12464   5.002   1.505   5.010
   9223SM  H20F12465   4.893   1.486   4.996
   9223SM  H20G12466   5.013   1.615   5.026
   9223SM  C21F12467   5.051   1.428   5.134
   9223SM  H21F12468   5.048   1.320   5.111
   9223SM  H21G12469   4.980   1.445   5.218
   9223SM  C22F12470   5.192   1.467   5.180
   9223SM  H22F12471   5.263   1.447   5.097
   9223SM  H22G12472   5.220   1.399   5.264
   9223SM  C23F12473   5.210   1.612   5.227
   9223SM  H23F12474   5.148   1.632   5.317
   9223SM  H23G12475   5.180   1.683   5.147
   9223SM  H23H12476   5.316   1.632   5.252
   9323SM     N12477   6.894   3.751   2.257
   9323SM   C1512478   6.808   3.668   2.346
   9323SM  H15A12479   6.857   3.576   2.373
   9323SM  H15B12480   6.715   3.644   2.298
   9323SM  H15C12481   6.784   3.723   2.436
   9323SM   C1412482   6.926   3.671   2.134
   9323SM  H14A12483   6.980   3.582   2.160
   9323SM  H14B12484   6.986   3.729   2.065
   9323SM  H14C12485   6.835   3.642   2.083
   9323SM   C1312486   6.818   3.874   2.218
   9323SM  H13A12487   6.798   3.934   2.305
   9323SM  H13B12488   6.724   3.849   2.171
   9323SM  H13C12489   6.876   3.936   2.151
   9323SM   C1212490   7.024   3.790   2.326
   9323SM  H12A12491   7.082   3.851   2.259
   9323SM  H12B12492   7.082   3.700   2.344
   9323SM   C1112493   7.016   3.866   2.461
   9323SM  H11A12494   7.117   3.865   2.507
   9323SM  H11B12495   6.950   3.809   2.530
   9323SM     P12496   6.863   4.067   2.530
   9323SM   O1312497   6.890   4.211   2.546
   9323SM   O1412498   6.729   4.030   2.478
   9323SM   O1112499   6.885   3.995   2.668
   9323SM   O1212500   6.976   4.002   2.440
   9323SM   C1S12501   6.937   4.067   2.780
   9323SM   H1S12502   6.853   4.122   2.829
   9323SM   H1T12503   7.014   4.141   2.750
   9323SM    NF12504   6.916   3.862   2.922
   9323SM   HNF12505   6.856   3.872   3.001
   9323SM   C2S12506   7.001   3.976   2.890
   9323SM   H2S12507   7.098   3.937   2.851
   9323SM   C3S12508   7.029   4.065   3.014
   9323SM   H3S12509   6.934   4.114   3.044
   9323SM    O312510   7.122   4.170   2.989
   9323SM   HO312511   7.158   4.155   2.901
   9323SM   C4S12512   7.078   3.977   3.125
   9323SM   H4S12513   7.179   3.935   3.110
   9323SM   C5S12514   7.009   3.946   3.236
   9323SM   H5S12515   6.909   3.989   3.252
   9323SM   C6S12516   7.058   3.854   3.344
   9323SM   H6S12517   7.164   3.826   3.327
   9323SM   H6T12518   7.000   3.760   3.338
   9323SM   C7S12519   7.045   3.906   3.488
   9323SM   H7S12520   6.949   3.959   3.503
   9323SM   H7T12521   7.126   3.980   3.509
   9323SM   C8S12522   7.053   3.789   3.587
   9323SM   H8S12523   7.149   3.734   3.572
   9323SM   H8T12524   6.970   3.719   3.563
   9323SM   C9S12525   7.041   3.828   3.735
   9323SM   H9S12526   7.026   3.735   3.793
   9323SM   H9T12527   6.952   3.892   3.750
   9323SM  C10S12528   7.166   3.898   3.789
   9323SM  H10S12529   7.173   4.000   3.745
   9323SM  H10T12530   7.257   3.842   3.758
   9323SM  C11S12531   7.164   3.906   3.942
   9323SM  H11S12532   7.162   3.804   3.985
   9323SM  H11T12533   7.070   3.957   3.974
   9323SM  C12S12534   7.284   3.982   4.000
   9323SM  H12S12535   7.287   4.084   3.955
   9323SM  H12T12536   7.378   3.931   3.972
   9323SM  C13S12537   7.275   3.995   4.153
   9323SM  H13S12538   7.284   3.894   4.198
   9323SM  H13T12539   7.175   4.036   4.180
   9323SM  C14S12540   7.382   4.088   4.210
   9323SM  H14S12541   7.376   4.186   4.158
   9323SM  H14T12542   7.482   4.045   4.188
   9323SM  C15S12543   7.370   4.113   4.362
   9323SM  H15S12544   7.445   4.190   4.388
   9323SM  H15T12545   7.271   4.156   4.386
   9323SM  C16S12546   7.395   3.988   4.448
   9323SM  H16S12547   7.452   4.019   4.539
   9323SM  H16T12548   7.458   3.916   4.393
   9323SM  C17S12549   7.266   3.921   4.496
   9323SM  H17S12550   7.205   3.890   4.408
   9323SM  H17T12551   7.208   3.997   4.552
   9323SM  C18S12552   7.290   3.799   4.586
   9323SM  H18S12553   7.193   3.756   4.620
   9323SM  H18T12554   7.348   3.829   4.676
   9323SM  H18U12555   7.347   3.721   4.532
   9323SM   C1F12556   6.910   3.751   2.850
   9323SM    OF12557   7.000   3.721   2.772
   9323SM   C2F12558   6.793   3.660   2.874
   9323SM   H2F12559   6.829   3.555   2.871
   9323SM   H2G12560   6.719   3.675   2.793
   9323SM   C3F12561   6.726   3.687   3.012
   9323SM   H3F12562   6.686   3.790   3.016
   9323SM   H3G12563   6.802   3.674   3.092
   9323SM   C4F12564   6.609   3.592   3.041
   9323SM   H4F12565   6.646   3.487   3.045
   9323SM   H4G12566   6.535   3.600   2.958
   9323SM   C5F12567   6.535   3.623   3.173
   9323SM   H5F12568   6.448   3.554   3.179
   9323SM   H5G12569   6.495   3.726   3.173
   9323SM   C6F12570   6.619   3.599   3.300
   9323SM   H6F12571   6.695   3.521   3.278
   9323SM   H6G12572   6.553   3.557   3.379
   9323SM   C7F12573   6.688   3.724   3.358
   9323SM   H7F12574   6.746   3.776   3.280
   9323SM   H7G12575   6.760   3.690   3.436
   9323SM   C8F12576   6.591   3.823   3.425
   9323SM   H8F12577   6.530   3.768   3.500
   9323SM   H8G12578   6.522   3.865   3.349
   9323SM   C9F12579   6.666   3.937   3.495
   9323SM   H9F12580   6.728   3.990   3.420
   9323SM   H9G12581   6.736   3.893   3.570
   9323SM  C10F12582   6.576   4.040   3.566
   9323SM  H10F12583   6.512   4.091   3.490
   9323SM  H10G12584   6.642   4.117   3.611
   9323SM  C11F12585   6.486   3.984   3.677
   9323SM  H11F12586   6.405   3.922   3.632
   9323SM  H11G12587   6.437   4.069   3.729
   9323SM  C12F12588   6.561   3.899   3.781
   9323SM  H12F12589   6.655   3.950   3.810
   9323SM  H12G12590   6.590   3.803   3.733
   9323SM  C13F12591   6.477   3.867   3.906
   9323SM  H13F12592   6.513   3.772   3.951
   9323SM  H13G12593   6.372   3.851   3.874
   9323SM  C14F12594   6.480   3.978   4.013
   9323SM  H14F12595   6.398   3.960   4.086
   9323SM  H14G12596   6.461   4.075   3.964
   9323SM  C15F12597   6.613   3.985   4.091
   9323SM  H15F12598   6.614   4.082   4.147
   9323SM  H15G12599   6.698   3.987   4.020
   9323SM  C16F12600   6.632   3.872   4.193
   9323SM  H16F12601   6.621   3.773   4.143
   9323SM  H16G12602   6.552   3.880   4.269
   9323SM  C17F12603   6.770   3.878   4.260
   9323SM  H17F12604   6.790   3.983   4.289
   9323SM  H17G12605   6.847   3.849   4.185
   9323SM  C18F12606   6.784   3.791   4.385
   9323SM  H18F12607   6.891   3.793   4.417
   9323SM  H18G12608   6.758   3.685   4.362
   9323SM  C19F12609   6.698   3.842   4.502
   9323SM  H19F12610   6.592   3.815   4.483
   9323SM  H19G12611   6.704   3.952   4.505
   9323SM  C20F12612   6.743   3.788   4.639
   9323SM  H20F12613   6.849   3.819   4.653
   9323SM  H20G12614   6.740   3.677   4.640
   9323SM  C21F12615   6.660   3.845   4.755
   9323SM  H21F12616   6.618   3.943   4.725
   9323SM  H21G12617   6.729   3.864   4.841
   9323SM  C22F12618   6.548   3.753   4.805
   9323SM  H22F12619   6.494   3.804   4.887
   9323SM  H22G12620   6.594   3.661   4.848
   9323SM  C23F12621   6.447   3.710   4.698
   9323SM  H23F12622   6.363   3.654   4.743
   9323SM  H23G12623   6.496   3.646   4.622
   9323SM  H23H12624   6.406   3.800   4.646
   9423SM     N12625   5.168   6.722   2.208
   9423SM   C1512626   5.053   6.728   2.304
   9423SM  H15A12627   5.081   6.677   2.395
   9423SM  H15B12628   4.965   6.682   2.262
   9423SM  H15C12629   5.028   6.830   2.330
   9423SM   C1412630   5.196   6.579   2.175
   9423SM  H14A12631   5.109   6.529   2.135
   9423SM  H14B12632   5.230   6.529   2.264
   9423SM  H14C12633   5.276   6.573   2.102
   9423SM   C1312634   5.130   6.793   2.081
   9423SM  H13A12635   5.092   6.892   2.102
   9423SM  H13B12636   5.052   6.740   2.029
   9423SM  H13C12637   5.214   6.801   2.014
   9423SM   C1212638   5.293   6.784   2.269
   9423SM  H12A12639   5.285   6.892   2.267
   9423SM  H12B12640   5.377   6.759   2.206
   9423SM   C1112641   5.328   6.742   2.415
   9423SM  H11A12642   5.256   6.792   2.483
   9423SM  H11B12643   5.428   6.784   2.439
   9423SM     P12644   5.430   6.518   2.512
   9423SM   O1312645   5.387   6.376   2.512
   9423SM   O1412646   5.563   6.548   2.456
   9423SM   O1112647   5.423   6.573   2.660
   9423SM   O1212648   5.321   6.601   2.434
   9423SM   C1S12649   5.302   6.622   2.717
   9423SM   H1S12650   5.214   6.566   2.682
   9423SM   H1T12651   5.287   6.729   2.690
   9423SM    NF12652   5.384   6.721   2.927
   9423SM   HNF12653   5.483   6.706   2.936
   9423SM   C2S12654   5.305   6.612   2.873
   9423SM   H2S12655   5.200   6.623   2.907
   9423SM   C3S12656   5.354   6.471   2.916
   9423SM   H3S12657   5.465   6.467   2.904
   9423SM    O312658   5.304   6.363   2.838
   9423SM   HO312659   5.304   6.398   2.749
   9423SM   C4S12660   5.320   6.449   3.061
   9423SM   H4S12661   5.215   6.474   3.086
   9423SM   C5S12662   5.400   6.403   3.159
   9423SM   H5S12663   5.503   6.373   3.137
   9423SM   C6S12664   5.352   6.386   3.301
   9423SM   H6S12665   5.289   6.471   3.331
   9423SM   H6T12666   5.440   6.385   3.370
   9423SM   C7S12667   5.270   6.257   3.321
   9423SM   H7S12668   5.333   6.168   3.303
   9423SM   H7T12669   5.187   6.255   3.247
   9423SM   C8S12670   5.207   6.247   3.461
   9423SM   H8S12671   5.140   6.158   3.464
   9423SM   H8T12672   5.144   6.337   3.479
   9423SM   C9S12673   5.308   6.235   3.576
   9423SM   H9S12674   5.377   6.322   3.573
   9423SM   H9T12675   5.368   6.143   3.562
   9423SM  C10S12676   5.240   6.231   3.713
   9423SM  H10S12677   5.178   6.138   3.720
   9423SM  H10T12678   5.171   6.317   3.722
   9423SM  C11S12679   5.341   6.235   3.828
   9423SM  H11S12680   5.401   6.328   3.818
   9423SM  H11T12681   5.411   6.149   3.819
   9423SM  C12S12682   5.276   6.233   3.967
   9423SM  H12S12683   5.225   6.135   3.982
   9423SM  H12T12684   5.198   6.313   3.972
   9423SM  C13S12685   5.379   6.257   4.077
   9423SM  H13S12686   5.419   6.360   4.066
   9423SM  H13T12687   5.464   6.186   4.063
   9423SM  C14S12688   5.325   6.240   4.220
   9423SM  H14S12689   5.284   6.137   4.231
   9423SM  H14T12690   5.242   6.312   4.237
   9423SM  C15S12691   5.435   6.262   4.324
   9423SM  H15S12692   5.473   6.366   4.311
   9423SM  H15T12693   5.519   6.192   4.302
   9423SM  C16S12694   5.391   6.244   4.469
   9423SM  H16S12695   5.344   6.144   4.482
   9423SM  H16T12696   5.315   6.321   4.494
   9423SM  C17S12697   5.508   6.258   4.568
   9423SM  H17S12698   5.562   6.353   4.547
   9423SM  H17T12699   5.580   6.175   4.550
   9423SM  C18S12700   5.464   6.258   4.714
   9423SM  H18S12701   5.552   6.268   4.782
   9423SM  H18T12702   5.411   6.164   4.739
   9423SM  H18U12703   5.396   6.343   4.734
   9423SM   C1F12704   5.335   6.845   2.929
   9423SM    OF12705   5.214   6.862   2.925
   9423SM   C2F12706   5.432   6.959   2.932
   9423SM   H2F12707   5.420   7.017   2.838
   9423SM   H2G12708   5.536   6.921   2.936
   9423SM   C3F12709   5.407   7.052   3.053
   9423SM   H3F12710   5.302   7.088   3.050
   9423SM   H3G12711   5.473   7.141   3.044
   9423SM   C4F12712   5.434   6.983   3.188
   9423SM   H4F12713   5.542   6.957   3.194
   9423SM   H4G12714   5.377   6.888   3.193
   9423SM   C5F12715   5.394   7.068   3.309
   9423SM   H5F12716   5.287   7.094   3.300
   9423SM   H5G12717   5.453   7.162   3.310
   9423SM   C6F12718   5.416   6.992   3.440
   9423SM   H6F12719   5.525   6.979   3.458
   9423SM   H6G12720   5.373   6.890   3.428
   9423SM   C7F12721   5.351   7.060   3.561
   9423SM   H7F12722   5.240   7.057   3.547
   9423SM   H7G12723   5.381   7.167   3.563
   9423SM   C8F12724   5.384   6.998   3.698
   9423SM   H8F12725   5.304   7.028   3.769
   9423SM   H8G12726   5.479   7.041   3.736
   9423SM   C9F12727   5.400   6.845   3.699
   9423SM   H9F12728   5.506   6.820   3.678
   9423SM   H9G12729   5.339   6.799   3.618
   9423SM  C10F12730   5.357   6.778   3.831
   9423SM  H10F12731   5.390   6.671   3.828
   9423SM  H10G12732   5.246   6.777   3.837
   9423SM  C11F12733   5.412   6.844   3.958
   9423SM  H11F12734   5.370   6.946   3.970
   9423SM  H11G12735   5.522   6.853   3.948
   9423SM  C12F12736   5.378   6.761   4.083
   9423SM  H12F12737   5.418   6.658   4.068
   9423SM  H12G12738   5.268   6.752   4.094
   9423SM  C13F12739   5.438   6.818   4.212
   9423SM  H13F12740   5.383   6.910   4.241
   9423SM  H13G12741   5.544   6.847   4.193
   9423SM  C14F12742   5.435   6.716   4.326
   9423SM  H14F12743   5.498   6.630   4.295
   9423SM  H14G12744   5.331   6.678   4.340
   9423SM  C15F12745   5.488   6.770   4.459
   9423SM  H15F12746   5.407   6.823   4.513
   9423SM  H15G12747   5.568   6.845   4.438
   9423SM  C16F12748   5.549   6.659   4.546
   9423SM  H16F12749   5.641   6.625   4.495
   9423SM  H16G12750   5.479   6.572   4.551
   9423SM  C17F12751   5.585   6.705   4.687
   9423SM  H17F12752   5.622   6.810   4.682
   9423SM  H17G12753   5.668   6.643   4.726
   9423SM  C18F12754   5.467   6.693   4.785
   9423SM  H18F12755   5.451   6.586   4.807
   9423SM  H18G12756   5.374   6.732   4.737
   9423SM  C19F12757   5.491   6.770   4.915
   9423SM  H19F12758   5.597   6.755   4.948
   9423SM  H19G12759   5.425   6.730   4.995
   9423SM  C20F12760   5.463   6.920   4.899
   9423SM  H20F12761   5.354   6.936   4.885
   9423SM  H20G12762   5.513   6.957   4.807
   9423SM  C21F12763   5.513   7.004   5.018
   9423SM  H21F12764   5.622   6.988   5.029
   9423SM  H21G12765   5.463   6.970   5.111
   9423SM  C22F12766   5.486   7.154   4.997
   9423SM  H22F12767   5.376   7.171   4.996
   9423SM  H22G12768   5.525   7.183   4.897
   9423SM  C23F12769   5.551   7.242   5.104
   9423SM  H23F12770   5.525   7.348   5.087
   9423SM  H23G12771   5.662   7.231   5.099
   9423SM  H23H12772   5.517   7.212   5.205
   9523SM     N12773   1.170   1.770   2.161
   9523SM   C1512774   1.029   1.785   2.113
   9523SM  H15A12775   0.999   1.889   2.108
   9523SM  H15B12776   0.959   1.733   2.177
   9523SM  H15C12777   1.018   1.741   2.015
   9523SM   C1412778   1.205   1.624   2.161
   9523SM  H14A12779   1.305   1.608   2.199
   9523SM  H14B12780   1.200   1.583   2.061
   9523SM  H14C12781   1.137   1.568   2.223
   9523SM   C1312782   1.261   1.842   2.067
   9523SM  H13A12783   1.364   1.828   2.095
   9523SM  H13B12784   1.240   1.948   2.066
   9523SM  H13C12785   1.250   1.805   1.966
   9523SM   C1212786   1.188   1.828   2.299
   9523SM  H12A12787   1.158   1.932   2.299
   9523SM  H12B12788   1.292   1.829   2.326
   9523SM   C1112789   1.113   1.757   2.413
   9523SM  H11A12790   1.153   1.655   2.431
   9523SM  H11B12791   1.006   1.747   2.388
   9523SM     P12792   1.258   1.841   2.613
   9523SM   O1312793   1.373   1.871   2.525
   9523SM   O1412794   1.231   1.931   2.728
   9523SM   O1112795   1.262   1.690   2.659
   9523SM   O1212796   1.126   1.841   2.527
   9523SM   C1S12797   1.348   1.647   2.766
   9523SM   H1S12798   1.436   1.713   2.777
   9523SM   H1T12799   1.387   1.546   2.742
   9523SM    NF12800   1.368   1.611   3.009
   9523SM   HNF12801   1.370   1.521   3.051
   9523SM   C2S12802   1.272   1.637   2.902
   9523SM   H2S12803   1.224   1.736   2.921
   9523SM   C3S12804   1.160   1.530   2.894
   9523SM   H3S12805   1.206   1.429   2.883
   9523SM    O312806   1.073   1.544   2.782
   9523SM   HO312807   1.123   1.602   2.723
   9523SM   C4S12808   1.076   1.536   3.017
   9523SM   H4S12809   1.006   1.620   3.020
   9523SM   C5S12810   1.079   1.451   3.122
   9523SM   H5S12811   1.151   1.368   3.126
   9523SM   C6S12812   0.990   1.467   3.242
   9523SM   H6S12813   0.967   1.367   3.286
   9523SM   H6T12814   0.893   1.515   3.216
   9523SM   C7S12815   1.059   1.552   3.349
   9523SM   H7S12816   1.088   1.652   3.309
   9523SM   H7T12817   1.152   1.500   3.381
   9523SM   C8S12818   0.970   1.571   3.473
   9523SM   H8S12819   0.929   1.472   3.499
   9523SM   H8T12820   0.885   1.639   3.450
   9523SM   C9S12821   1.049   1.623   3.594
   9523SM   H9S12822   1.078   1.729   3.581
   9523SM   H9T12823   1.142   1.563   3.598
   9523SM  C10S12824   0.974   1.602   3.726
   9523SM  H10S12825   0.910   1.512   3.716
   9523SM  H10T12826   0.909   1.689   3.747
   9523SM  C11S12827   1.070   1.576   3.843
   9523SM  H11S12828   1.140   1.661   3.854
   9523SM  H11T12829   1.130   1.485   3.819
   9523SM  C12S12830   0.997   1.551   3.976
   9523SM  H12S12831   0.918   1.474   3.960
   9523SM  H12T12832   0.948   1.645   4.009
   9523SM  C13S12833   1.094   1.501   4.083
   9523SM  H13S12834   1.180   1.572   4.089
   9523SM  H13T12835   1.135   1.402   4.052
   9523SM  C14S12836   1.030   1.489   4.222
   9523SM  H14S12837   0.949   1.413   4.220
   9523SM  H14T12838   0.985   1.587   4.247
   9523SM  C15S12839   1.133   1.452   4.329
   9523SM  H15S12840   1.092   1.477   4.429
   9523SM  H15T12841   1.223   1.516   4.314
   9523SM  C16S12842   1.174   1.304   4.328
   9523SM  H16S12843   1.187   1.269   4.223
   9523SM  H16T12844   1.092   1.245   4.373
   9523SM  C17S12845   1.305   1.277   4.403
   9523SM  H17S12846   1.390   1.312   4.341
   9523SM  H17T12847   1.316   1.167   4.415
   9523SM  C18S12848   1.314   1.345   4.540
   9523SM  H18S12849   1.223   1.321   4.600
   9523SM  H18T12850   1.320   1.455   4.529
   9523SM  H18U12851   1.404   1.311   4.596
   9523SM   C1F12852   1.456   1.705   3.045
   9523SM    OF12853   1.439   1.821   3.013
   9523SM   C2F12854   1.576   1.663   3.124
   9523SM   H2F12855   1.620   1.755   3.168
   9523SM   H2G12856   1.651   1.619   3.055
   9523SM   C3F12857   1.546   1.563   3.238
   9523SM   H3F12858   1.515   1.465   3.198
   9523SM   H3G12859   1.464   1.602   3.302
   9523SM   C4F12860   1.671   1.544   3.326
   9523SM   H4F12861   1.708   1.644   3.356
   9523SM   H4G12862   1.751   1.495   3.266
   9523SM   C5F12863   1.646   1.463   3.453
   9523SM   H5F12864   1.629   1.356   3.427
   9523SM   H5G12865   1.555   1.500   3.504
   9523SM   C6F12866   1.765   1.476   3.549
   9523SM   H6F12867   1.780   1.584   3.571
   9523SM   H6G12868   1.857   1.440   3.497
   9523SM   C7F12869   1.749   1.401   3.682
   9523SM   H7F12870   1.747   1.292   3.663
   9523SM   H7G12871   1.652   1.430   3.728
   9523SM   C8F12872   1.864   1.436   3.777
   9523SM   H8F12873   1.863   1.546   3.795
   9523SM   H8G12874   1.960   1.412   3.727
   9523SM   C9F12875   1.860   1.364   3.913
   9523SM   H9F12876   1.951   1.390   3.970
   9523SM   H9G12877   1.860   1.254   3.896
   9523SM  C10F12878   1.737   1.401   3.998
   9523SM  H10F12879   1.647   1.361   3.947
   9523SM  H10G12880   1.726   1.512   4.003
   9523SM  C11F12881   1.745   1.343   4.139
   9523SM  H11F12882   1.800   1.246   4.133
   9523SM  H11G12883   1.642   1.319   4.176
   9523SM  C12F12884   1.812   1.436   4.241
   9523SM  H12F12885   1.900   1.485   4.194
   9523SM  H12G12886   1.849   1.375   4.327
   9523SM  C13F12887   1.715   1.541   4.297
   9523SM  H13F12888   1.628   1.489   4.341
   9523SM  H13G12889   1.678   1.604   4.213
   9523SM  C14F12890   1.780   1.631   4.403
   9523SM  H14F12891   1.870   1.679   4.357
   9523SM  H14G12892   1.815   1.569   4.488
   9523SM  C15F12893   1.687   1.743   4.453
   9523SM  H15F12894   1.649   1.799   4.365
   9523SM  H15G12895   1.746   1.814   4.515
   9523SM  C16F12896   1.567   1.695   4.537
   9523SM  H16F12897   1.510   1.617   4.482
   9523SM  H16G12898   1.499   1.783   4.548
   9523SM  C17F12899   1.606   1.644   4.676
   9523SM  H17F12900   1.667   1.722   4.726
   9523SM  H17G12901   1.670   1.554   4.666
   9523SM  C18F12902   1.486   1.610   4.768
   9523SM  H18F12903   1.527   1.582   4.867
   9523SM  H18G12904   1.432   1.522   4.727
   9523SM  C19F12905   1.387   1.727   4.783
   9523SM  H19F12906   1.334   1.742   4.687
   9523SM  H19G12907   1.444   1.819   4.805
   9523SM  C20F12908   1.281   1.707   4.893
   9523SM  H20F12909   1.223   1.614   4.872
   9523SM  H20G12910   1.210   1.792   4.888
   9523SM  C21F12911   1.339   1.701   5.035
   9523SM  H21F12912   1.405   1.789   5.051
   9523SM  H21G12913   1.402   1.610   5.046
   9523SM  C22F12914   1.230   1.700   5.143
   9523SM  H22F12915   1.160   1.616   5.121
   9523SM  H22G12916   1.171   1.794   5.136
   9523SM  C23F12917   1.284   1.683   5.285
   9523SM  H23F12918   1.200   1.678   5.358
   9523SM  H23G12919   1.349   1.769   5.312
   9523SM  H23H12920   1.343   1.590   5.294
   9623SM     N12921   2.694   0.396   2.297
   9623SM   C1512922   2.820   0.469   2.263
   9623SM  H15A12923   2.823   0.499   2.160
   9623SM  H15B12924   2.905   0.405   2.281
   9623SM  H15C12925   2.834   0.556   2.326
   9623SM   C1412926   2.576   0.483   2.267
   9623SM  H14A12927   2.484   0.428   2.282
   9623SM  H14B12928   2.578   0.519   2.166
   9623SM  H14C12929   2.573   0.568   2.334
   9623SM   C1312930   2.687   0.271   2.215
   9623SM  H13A12931   2.767   0.205   2.245
   9623SM  H13B12932   2.696   0.291   2.109
   9623SM  H13C12933   2.596   0.217   2.232
   9623SM   C1212934   2.694   0.360   2.444
   9623SM  H12A12935   2.604   0.305   2.468
   9623SM  H12B12936   2.689   0.451   2.503
   9623SM   C1112937   2.814   0.278   2.498
   9623SM  H11A12938   2.789   0.266   2.606
   9623SM  H11B12939   2.907   0.337   2.490
   9623SM     P12940   2.915   0.037   2.493
   9623SM   O1312941   2.839  -0.089   2.483
   9623SM   O1412942   3.050   0.042   2.431
   9623SM   O1112943   2.929   0.077   2.647
   9623SM   O1212944   2.827   0.152   2.433
   9623SM   C1S12945   2.825   0.030   2.734
   9623SM   H1S12946   2.823  -0.081   2.731
   9623SM   H1T12947   2.725   0.067   2.703
   9623SM    NF12948   2.753   0.007   2.973
   9623SM   HNF12949   2.689   0.065   3.024
   9623SM   C2S12950   2.845   0.077   2.882
   9623SM   H2S12951   2.949   0.050   2.913
   9623SM   C3S12952   2.829   0.232   2.888
   9623SM   H3S12953   2.728   0.259   2.850
   9623SM    O312954   2.922   0.304   2.806
   9623SM   HO312955   2.957   0.235   2.749
   9623SM   C4S12956   2.845   0.280   3.030
   9623SM   H4S12957   2.948   0.278   3.068
   9623SM   C5S12958   2.743   0.323   3.108
   9623SM   H5S12959   2.641   0.324   3.068
   9623SM   C6S12960   2.759   0.369   3.250
   9623SM   H6S12961   2.695   0.458   3.269
   9623SM   H6T12962   2.864   0.400   3.272
   9623SM   C7S12963   2.720   0.256   3.346
   9623SM   H7S12964   2.786   0.169   3.328
   9623SM   H7T12965   2.615   0.223   3.328
   9623SM   C8S12966   2.734   0.296   3.494
   9623SM   H8S12967   2.823   0.362   3.505
   9623SM   H8T12968   2.752   0.205   3.555
   9623SM   C9S12969   2.611   0.369   3.550
   9623SM   H9S12970   2.529   0.296   3.567
   9623SM   H9T12971   2.576   0.442   3.474
   9623SM  C10S12972   2.643   0.446   3.679
   9623SM  H10S12973   2.550   0.500   3.708
   9623SM  H10T12974   2.722   0.521   3.658
   9623SM  C11S12975   2.685   0.360   3.798
   9623SM  H11S12976   2.768   0.292   3.768
   9623SM  H11T12977   2.597   0.297   3.826
   9623SM  C12S12978   2.730   0.442   3.920
   9623SM  H12S12979   2.664   0.531   3.930
   9623SM  H12T12980   2.833   0.478   3.904
   9623SM  C13S12981   2.720   0.358   4.048
   9623SM  H13S12982   2.790   0.273   4.041
   9623SM  H13T12983   2.616   0.317   4.051
   9623SM  C14S12984   2.742   0.432   4.180
   9623SM  H14S12985   2.682   0.526   4.180
   9623SM  H14T12986   2.849   0.459   4.191
   9623SM  C15S12987   2.697   0.343   4.296
   9623SM  H15S12988   2.751   0.246   4.291
   9623SM  H15T12989   2.589   0.321   4.282
   9623SM  C16S12990   2.715   0.404   4.435
   9623SM  H16S12991   2.684   0.511   4.431
   9623SM  H16T12992   2.823   0.401   4.462
   9623SM  C17S12993   2.632   0.333   4.542
   9623SM  H17S12994   2.524   0.347   4.518
   9623SM  H17T12995   2.650   0.381   4.641
   9623SM  C18S12996   2.660   0.182   4.553
   9623SM  H18S12997   2.593   0.136   4.630
   9623SM  H18T12998   2.765   0.164   4.582
   9623SM  H18U12999   2.640   0.131   4.457
   9623SM   C1F13000   2.753  -0.125   2.995
   9623SM    OF13001   2.806  -0.204   2.918
   9623SM   C2F13002   2.676  -0.176   3.112
   9623SM   H2F13003   2.591  -0.236   3.074
   9623SM   H2G13004   2.636  -0.092   3.172
   9623SM   C3F13005   2.766  -0.267   3.200
   9623SM   H3F13006   2.831  -0.201   3.262
   9623SM   H3G13007   2.833  -0.331   3.140
   9623SM   C4F13008   2.684  -0.358   3.293
   9623SM   H4F13009   2.651  -0.448   3.237
   9623SM   H4G13010   2.592  -0.302   3.323
   9623SM   C5F13011   2.760  -0.398   3.419
   9623SM   H5F13012   2.804  -0.306   3.463
   9623SM   H5G13013   2.844  -0.466   3.394
   9623SM   C6F13014   2.668  -0.462   3.525
   9623SM   H6F13015   2.643  -0.566   3.496
   9623SM   H6G13016   2.574  -0.404   3.527
   9623SM   C7F13017   2.730  -0.457   3.666
   9623SM   H7F13018   2.782  -0.360   3.676
   9623SM   H7G13019   2.806  -0.537   3.677
   9623SM   C8F13020   2.625  -0.465   3.778
   9623SM   H8F13021   2.589  -0.569   3.789
   9623SM   H8G13022   2.538  -0.402   3.750
   9623SM   C9F13023   2.681  -0.412   3.910
   9623SM   H9F13024   2.720  -0.310   3.894
   9623SM   H9G13025   2.766  -0.476   3.940
   9623SM  C10F13026   2.578  -0.408   4.024
   9623SM  H10F13027   2.554  -0.512   4.053
   9623SM  H10G13028   2.484  -0.360   3.987
   9623SM  C11F13029   2.627  -0.330   4.147
   9623SM  H11F13030   2.607  -0.222   4.133
   9623SM  H11G13031   2.737  -0.342   4.156
   9623SM  C12F13032   2.562  -0.378   4.277
   9623SM  H12F13033   2.582  -0.487   4.288
   9623SM  H12G13034   2.452  -0.365   4.270
   9623SM  C13F13035   2.612  -0.307   4.403
   9623SM  H13F13036   2.589  -0.198   4.397
   9623SM  H13G13037   2.723  -0.316   4.409
   9623SM  C14F13038   2.550  -0.367   4.530
   9623SM  H14F13039   2.576  -0.475   4.533
   9623SM  H14G13040   2.439  -0.360   4.524
   9623SM  C15F13041   2.598  -0.302   4.661
   9623SM  H15F13042   2.708  -0.288   4.657
   9623SM  H15G13043   2.575  -0.371   4.745
   9623SM  C16F13044   2.528  -0.168   4.689
   9623SM  H16F13045   2.419  -0.183   4.680
   9623SM  H16G13046   2.557  -0.094   4.611
   9623SM  C17F13047   2.558  -0.111   4.829
   9623SM  H17F13048   2.529  -0.185   4.906
   9623SM  H17G13049   2.493  -0.021   4.843
   9623SM  C18F13050   2.704  -0.070   4.849
   9623SM  H18F13051   2.733   0.004   4.771
   9623SM  H18G13052   2.769  -0.160   4.834
   9623SM  C19F13053   2.736  -0.012   4.989
   9623SM  H19F13054   2.842   0.020   4.990
   9623SM  H19G13055   2.724  -0.093   5.064
   9623SM  C20F13056   2.648   0.108   5.032
   9623SM  H20F13057   2.679   0.138   5.134
   9623SM  H20G13058   2.542   0.076   5.037
   9623SM  C21F13059   2.659   0.230   4.939
   9623SM  H21F13060   2.640   0.197   4.835
   9623SM  H21G13061   2.762   0.271   4.943
   9623SM  C22F13062   2.558   0.342   4.971
   9623SM  H22F13063   2.456   0.302   4.955
   9623SM  H22G13064   2.572   0.424   4.898
   9623SM  C23F13065   2.567   0.399   5.113
   9623SM  H23F13066   2.667   0.444   5.131
   9623SM  H23G13067   2.550   0.320   5.189
   9623SM  H23H13068   2.491   0.479   5.127
   9723SM     N13069   4.301   7.578   2.208
   9723SM   C1513070   4.154   7.586   2.180
   9723SM  H15A13071   4.136   7.618   2.078
   9723SM  H15B13072   4.108   7.657   2.247
   9723SM  H15C13073   4.106   7.491   2.194
   9723SM   C1413074   4.365   7.481   2.114
   9723SM  H14A13075   4.321   7.383   2.120
   9723SM  H14B13076   4.471   7.471   2.133
   9723SM  H14C13077   4.357   7.515   2.012
   9723SM   C1313078   4.361   7.714   2.183
   9723SM  H13A13079   4.344   7.746   2.082
   9723SM  H13B13080   4.467   7.714   2.202
   9723SM  H13C13081   4.316   7.786   2.250
   9723SM   C1213082   4.326   7.538   2.353
   9723SM  H12A13083   4.429   7.561   2.377
   9723SM  H12B13084   4.316   7.431   2.362
   9723SM   C1113085   4.238   7.604   2.462
   9723SM  H11A13086   4.269   7.563   2.561
   9723SM  H11B13087   4.132   7.572   2.448
   9723SM     P13088   4.353   7.826   2.539
   9723SM   O1313089   4.487   7.781   2.496
   9723SM   O1413090   4.325   7.971   2.529
   9723SM   O1113091   4.333   7.781   2.690
   9723SM   O1213092   4.243   7.747   2.459
   9723SM   C1S13093   4.198   7.773   2.742
   9723SM   H1S13094   4.157   7.672   2.724
   9723SM   H1T13095   4.129   7.846   2.694
   9723SM    NF13096   4.228   7.939   2.920
   9723SM   HNF13097   4.326   7.959   2.928
   9723SM   C2S13098   4.193   7.800   2.895
   9723SM   H2S13099   4.089   7.784   2.930
   9723SM   C3S13100   4.285   7.701   2.973
   9723SM   H3S13101   4.389   7.705   2.933
   9723SM    O313102   4.244   7.564   2.966
   9723SM   HO313103   4.159   7.564   2.920
   9723SM   C4S13104   4.286   7.738   3.119
   9723SM   H4S13105   4.189   7.722   3.169
   9723SM   C5S13106   4.390   7.786   3.190
   9723SM   H5S13107   4.488   7.798   3.142
   9723SM   C6S13108   4.383   7.821   3.337
   9723SM   H6S13109   4.280   7.804   3.377
   9723SM   H6T13110   4.405   7.929   3.352
   9723SM   C7S13111   4.481   7.738   3.423
   9723SM   H7S13112   4.585   7.763   3.395
   9723SM   H7T13113   4.465   7.630   3.402
   9723SM   C8S13114   4.462   7.759   3.575
   9723SM   H8S13115   4.526   7.685   3.628
   9723SM   H8T13116   4.357   7.737   3.602
   9723SM   C9S13117   4.498   7.900   3.625
   9723SM   H9S13118   4.427   7.973   3.582
   9723SM   H9T13119   4.600   7.927   3.590
   9723SM  C10S13120   4.493   7.910   3.779
   9723SM  H10S13121   4.571   7.843   3.823
   9723SM  H10T13122   4.394   7.872   3.813
   9723SM  C11S13123   4.512   8.053   3.832
   9723SM  H11S13124   4.448   8.120   3.772
   9723SM  H11T13125   4.618   8.085   3.817
   9723SM  C12S13126   4.473   8.068   3.980
   9723SM  H12S13127   4.371   8.027   3.994
   9723SM  H12T13128   4.469   8.176   4.004
   9723SM  C13S13129   4.569   8.000   4.079
   9723SM  H13S13130   4.668   8.050   4.072
   9723SM  H13T13131   4.582   7.894   4.052
   9723SM  C14S13132   4.517   8.009   4.223
   9723SM  H14S13133   4.423   7.950   4.231
   9723SM  H14T13134   4.493   8.114   4.248
   9723SM  C15S13135   4.617   7.956   4.327
   9723SM  H15S13136   4.709   8.019   4.323
   9723SM  H15T13137   4.647   7.852   4.300
   9723SM  C16S13138   4.561   7.958   4.470
   9723SM  H16S13139   4.475   7.888   4.475
   9723SM  H16T13140   4.523   8.060   4.493
   9723SM  C17S13141   4.665   7.918   4.575
   9723SM  H17S13142   4.749   7.991   4.570
   9723SM  H17T13143   4.706   7.818   4.551
   9723SM  C18S13144   4.609   7.916   4.718
   9723SM  H18S13145   4.552   8.010   4.738
   9723SM  H18T13146   4.691   7.909   4.792
   9723SM  H18U13147   4.540   7.830   4.732
   9723SM   C1F13148   4.141   8.038   2.908
   9723SM    OF13149   4.033   8.022   2.852
   9723SM   C2F13150   4.179   8.168   2.972
   9723SM   H2F13151   4.107   8.246   2.939
   9723SM   H2G13152   4.281   8.197   2.941
   9723SM   C3F13153   4.170   8.149   3.125
   9723SM   H3F13154   4.243   8.072   3.158
   9723SM   H3G13155   4.069   8.112   3.150
   9723SM   C4F13156   4.195   8.277   3.206
   9723SM   H4F13157   4.116   8.352   3.184
   9723SM   H4G13158   4.292   8.322   3.176
   9723SM   C5F13159   4.197   8.249   3.357
   9723SM   H5F13160   4.234   8.338   3.411
   9723SM   H5G13161   4.268   8.166   3.377
   9723SM   C6F13162   4.059   8.212   3.415
   9723SM   H6F13163   3.993   8.172   3.334
   9723SM   H6G13164   4.009   8.304   3.452
   9723SM   C7F13165   4.064   8.106   3.526
   9723SM   H7F13166   4.111   8.014   3.487
   9723SM   H7G13167   3.960   8.082   3.556
   9723SM   C8F13168   4.142   8.153   3.650
   9723SM   H8F13169   4.090   8.244   3.689
   9723SM   H8G13170   4.245   8.183   3.621
   9723SM   C9F13171   4.151   8.049   3.764
   9723SM   H9F13172   4.210   8.093   3.847
   9723SM   H9G13173   4.206   7.961   3.726
   9723SM  C10F13174   4.015   8.004   3.819
   9723SM  H10F13175   3.959   7.955   3.736
   9723SM  H10G13176   3.956   8.092   3.852
   9723SM  C11F13177   4.027   7.902   3.934
   9723SM  H11F13178   4.114   7.835   3.916
   9723SM  H11G13179   3.935   7.839   3.934
   9723SM  C12F13180   4.037   7.967   4.073
   9723SM  H12F13181   3.948   8.032   4.089
   9723SM  H12G13182   4.127   8.031   4.079
   9723SM  C13F13183   4.041   7.862   4.186
   9723SM  H13F13184   4.139   7.810   4.182
   9723SM  H13G13185   3.963   7.786   4.167
   9723SM  C14F13186   4.018   7.921   4.325
   9723SM  H14F13187   3.916   7.966   4.327
   9723SM  H14G13188   4.091   8.003   4.344
   9723SM  C15F13189   4.027   7.817   4.438
   9723SM  H15F13190   3.967   7.728   4.411
   9723SM  H15G13191   3.983   7.860   4.531
   9723SM  C16F13192   4.172   7.775   4.468
   9723SM  H16F13193   4.232   7.865   4.492
   9723SM  H16G13194   4.216   7.728   4.378
   9723SM  C17F13195   4.184   7.676   4.586
   9723SM  H17F13196   4.121   7.587   4.566
   9723SM  H17G13197   4.147   7.726   4.678
   9723SM  C18F13198   4.330   7.630   4.606
   9723SM  H18F13199   4.394   7.720   4.622
   9723SM  H18G13200   4.363   7.583   4.511
   9723SM  C19F13201   4.353   7.530   4.721
   9723SM  H19F13202   4.450   7.481   4.700
   9723SM  H19G13203   4.276   7.450   4.719
   9723SM  C20F13204   4.363   7.593   4.861
   9723SM  H20F13205   4.406   7.695   4.850
   9723SM  H20G13206   4.433   7.534   4.922
   9723SM  C21F13207   4.229   7.599   4.936
   9723SM  H21F13208   4.208   7.499   4.980
   9723SM  H21G13209   4.147   7.620   4.864
   9723SM  C22F13210   4.226   7.705   5.047
   9723SM  H22F13211   4.316   7.694   5.110
   9723SM  H22G13212   4.137   7.687   5.111
   9723SM  C23F13213   4.218   7.849   4.993
   9723SM  H23F13214   4.308   7.874   4.933
   9723SM  H23G13215   4.210   7.921   5.076
   9723SM  H23H13216   4.128   7.860   4.928
   9823SM     N13217   6.522   7.492   2.290
   9823SM   C1513218   6.581   7.628   2.266
   9823SM  H15A13219   6.551   7.697   2.343
   9823SM  H15B13220   6.549   7.669   2.171
   9823SM  H15C13221   6.689   7.624   2.266
   9823SM   C1413222   6.372   7.502   2.290
   9823SM  H14A13223   6.336   7.536   2.193
   9823SM  H14B13224   6.339   7.573   2.364
   9823SM  H14C13225   6.328   7.406   2.312
   9823SM   C1313226   6.565   7.400   2.181
   9823SM  H13A13227   6.536   7.434   2.082
   9823SM  H13B13228   6.524   7.301   2.196
   9823SM  H13C13229   6.672   7.388   2.182
   9823SM   C1213230   6.567   7.437   2.425
   9823SM  H12A13231   6.523   7.339   2.437
   9823SM  H12B13232   6.524   7.497   2.503
   9823SM   C1113233   6.719   7.423   2.452
   9823SM  H11A13234   6.733   7.394   2.559
   9823SM  H11B13235   6.767   7.523   2.441
   9823SM     P13236   6.758   7.175   2.379
   9823SM   O1313237   6.614   7.147   2.364
   9823SM   O1413238   6.846   7.105   2.283
   9823SM   O1113239   6.800   7.140   2.527
   9823SM   O1213240   6.784   7.330   2.364
   9823SM   C1S13241   6.924   7.181   2.584
   9823SM   H1S13242   6.967   7.269   2.530
   9823SM   H1T13243   6.998   7.099   2.578
   9823SM    NF13244   7.030   7.277   2.784
   9823SM   HNF13245   7.090   7.219   2.838
   9823SM   C2S13246   6.906   7.221   2.734
   9823SM   H2S13247   6.826   7.298   2.739
   9823SM   C3S13248   6.858   7.097   2.815
   9823SM   H3S13249   6.941   7.024   2.820
   9823SM    O313250   6.748   7.027   2.757
   9823SM   HO313251   6.745   7.062   2.668
   9823SM   C4S13252   6.819   7.138   2.955
   9823SM   H4S13253   6.746   7.220   2.959
   9823SM   C5S13254   6.862   7.084   3.071
   9823SM   H5S13255   6.931   6.998   3.070
   9823SM   C6S13256   6.817   7.131   3.207
   9823SM   H6S13257   6.742   7.060   3.247
   9823SM   H6T13258   6.766   7.230   3.199
   9823SM   C7S13259   6.928   7.143   3.314
   9823SM   H7S13260   6.884   7.200   3.399
   9823SM   H7T13261   7.013   7.202   3.275
   9823SM   C8S13262   6.976   7.007   3.368
   9823SM   H8S13263   7.019   6.948   3.285
   9823SM   H8T13264   6.888   6.950   3.405
   9823SM   C9S13265   7.079   7.019   3.481
   9823SM   H9S13266   7.165   7.080   3.447
   9823SM   H9T13267   7.118   6.917   3.503
   9823SM  C10S13268   7.020   7.077   3.610
   9823SM  H10S13269   6.932   7.015   3.637
   9823SM  H10T13270   6.984   7.180   3.592
   9823SM  C11S13271   7.117   7.078   3.729
   9823SM  H11S13272   7.203   7.144   3.707
   9823SM  H11T13273   7.155   6.975   3.745
   9823SM  C12S13274   7.046   7.125   3.857
   9823SM  H12S13275   6.965   7.052   3.880
   9823SM  H12T13276   6.998   7.224   3.837
   9823SM  C13S13277   7.135   7.140   3.980
   9823SM  H13S13278   7.223   7.203   3.955
   9823SM  H13T13279   7.172   7.039   4.009
   9823SM  C14S13280   7.060   7.205   4.098
   9823SM  H14S13281   6.969   7.145   4.122
   9823SM  H14T13282   7.026   7.305   4.066
   9823SM  C15S13283   7.144   7.220   4.226
   9823SM  H15S13284   7.093   7.290   4.295
   9823SM  H15T13285   7.242   7.266   4.198
   9823SM  C16S13286   7.168   7.087   4.299
   9823SM  H16S13287   7.205   7.014   4.224
   9823SM  H16T13288   7.073   7.048   4.340
   9823SM  C17S13289   7.273   7.096   4.410
   9823SM  H17S13290   7.361   7.152   4.370
   9823SM  H17T13291   7.309   6.994   4.434
   9823SM  C18S13292   7.225   7.162   4.539
   9823SM  H18S13293   7.310   7.180   4.609
   9823SM  H18T13294   7.151   7.098   4.591
   9823SM  H18U13295   7.177   7.260   4.518
   9823SM   C1F13296   7.073   7.396   2.740
   9823SM    OF13297   6.996   7.473   2.685
   9823SM   C2F13298   7.219   7.426   2.757
   9823SM   H2F13299   7.270   7.397   2.663
   9823SM   H2G13300   7.261   7.364   2.839
   9823SM   C3F13301   7.249   7.576   2.784
   9823SM   H3F13302   7.193   7.639   2.712
   9823SM   H3G13303   7.357   7.592   2.763
   9823SM   C4F13304   7.224   7.626   2.927
   9823SM   H4F13305   7.251   7.734   2.929
   9823SM   H4G13306   7.293   7.575   2.999
   9823SM   C5F13307   7.080   7.613   2.979
   9823SM   H5F13308   7.063   7.508   3.013
   9823SM   H5G13309   7.009   7.635   2.897
   9823SM   C6F13310   7.053   7.710   3.095
   9823SM   H6F13311   7.052   7.813   3.052
   9823SM   H6G13312   7.137   7.706   3.167
   9823SM   C7F13313   6.919   7.686   3.166
   9823SM   H7F13314   6.841   7.664   3.090
   9823SM   H7G13315   6.889   7.779   3.218
   9823SM   C8F13316   6.923   7.573   3.272
   9823SM   H8F13317   6.955   7.478   3.225
   9823SM   H8G13318   6.819   7.559   3.310
   9823SM   C9F13319   7.015   7.606   3.390
   9823SM   H9F13320   6.994   7.709   3.425
   9823SM   H9G13321   7.120   7.604   3.354
   9823SM  C10F13322   7.002   7.510   3.510
   9823SM  H10F13323   7.085   7.531   3.580
   9823SM  H10G13324   7.012   7.405   3.476
   9823SM  C11F13325   6.871   7.529   3.585
   9823SM  H11F13326   6.786   7.491   3.524
   9823SM  H11G13327   6.855   7.638   3.601
   9823SM  C12F13328   6.867   7.462   3.723
   9823SM  H12F13329   6.947   7.505   3.788
   9823SM  H12G13330   6.886   7.353   3.712
   9823SM  C13F13331   6.730   7.484   3.789
   9823SM  H13F13332   6.655   7.424   3.733
   9823SM  H13G13333   6.702   7.591   3.777
   9823SM  C14F13334   6.722   7.449   3.938
   9823SM  H14F13335   6.783   7.360   3.962
   9823SM  H14G13336   6.615   7.424   3.959
   9823SM  C15F13337   6.757   7.567   4.030
   9823SM  H15F13338   6.712   7.659   3.988
   9823SM  H15G13339   6.867   7.582   4.032
   9823SM  C16F13340   6.703   7.551   4.173
   9823SM  H16F13341   6.594   7.529   4.168
   9823SM  H16G13342   6.713   7.649   4.225
   9823SM  C17F13343   6.773   7.442   4.256
   9823SM  H17F13344   6.846   7.389   4.192
   9823SM  H17G13345   6.698   7.367   4.290
   9823SM  C18F13346   6.846   7.497   4.380
   9823SM  H18F13347   6.916   7.578   4.347
   9823SM  H18G13348   6.908   7.416   4.424
   9823SM  C19F13349   6.752   7.552   4.488
   9823SM  H19F13350   6.685   7.471   4.522
   9823SM  H19G13351   6.689   7.633   4.446
   9823SM  C20F13352   6.829   7.607   4.609
   9823SM  H20F13353   6.897   7.688   4.574
   9823SM  H20G13354   6.892   7.526   4.650
   9823SM  C21F13355   6.738   7.663   4.719
   9823SM  H21F13356   6.668   7.583   4.752
   9823SM  H21G13357   6.677   7.745   4.676
   9823SM  C22F13358   6.814   7.716   4.842
   9823SM  H22F13359   6.741   7.764   4.910
   9823SM  H22G13360   6.885   7.795   4.809
   9823SM  C23F13361   6.890   7.609   4.921
   9823SM  H23F13362   6.821   7.529   4.954
   9823SM  H23G13363   6.938   7.654   5.011
   9823SM  H23H13364   6.970   7.563   4.859
   9923SM     N13365   0.521   7.164   2.189
   9923SM   C1513366   0.499   7.031   2.252
   9923SM  H15A13367   0.564   7.019   2.337
   9923SM  H15B13368   0.519   6.951   2.183
   9923SM  H15C13369   0.397   7.022   2.288
   9923SM   C1413370   0.663   7.172   2.141
   9923SM  H14A13371   0.683   7.267   2.093
   9923SM  H14B13372   0.689   7.094   2.071
   9923SM  H14C13373   0.730   7.168   2.226
   9923SM   C1313374   0.430   7.179   2.071
   9923SM  H13A13375   0.452   7.270   2.017
   9923SM  H13B13376   0.327   7.182   2.103
   9923SM  H13C13377   0.441   7.097   2.002
   9923SM   C1213378   0.495   7.276   2.289
   9923SM  H12A13379   0.390   7.274   2.315
   9923SM  H12B13380   0.512   7.370   2.240
   9923SM   C1113381   0.578   7.276   2.420
   9923SM  H11A13382   0.561   7.181   2.474
   9923SM  H11B13383   0.540   7.357   2.486
   9923SM     P13384   0.802   7.417   2.424
   9923SM   O1313385   0.942   7.385   2.387
   9923SM   O1413386   0.739   7.535   2.360
   9923SM   O1113387   0.795   7.429   2.581
   9923SM   O1213388   0.717   7.289   2.392
   9923SM   C1S13389   0.820   7.311   2.659
   9923SM   H1S13390   0.930   7.300   2.675
   9923SM   H1T13391   0.787   7.217   2.610
   9923SM    NF13392   0.610   7.291   2.789
   9923SM   HNF13393   0.546   7.367   2.784
   9923SM   C2S13394   0.753   7.323   2.798
   9923SM   H2S13395   0.800   7.248   2.866
   9923SM   C3S13396   0.780   7.466   2.855
   9923SM   H3S13397   0.722   7.541   2.798
   9923SM    O313398   0.918   7.501   2.837
   9923SM   HO313399   0.934   7.473   2.747
   9923SM   C4S13400   0.738   7.474   3.001
   9923SM   H4S13401   0.643   7.421   3.020
   9923SM   C5S13402   0.800   7.536   3.104
   9923SM   H5S13403   0.892   7.593   3.083
   9923SM   C6S13404   0.753   7.543   3.247
   9923SM   H6S13405   0.755   7.648   3.282
   9923SM   H6T13406   0.823   7.486   3.312
   9923SM   C7S13407   0.610   7.490   3.273
   9923SM   H7S13408   0.604   7.385   3.237
   9923SM   H7T13409   0.539   7.552   3.214
   9923SM   C8S13410   0.568   7.493   3.421
   9923SM   H8S13411   0.457   7.492   3.426
   9923SM   H8T13412   0.605   7.585   3.470
   9923SM   C9S13413   0.616   7.369   3.498
   9923SM   H9S13414   0.725   7.377   3.514
   9923SM   H9T13415   0.596   7.280   3.435
   9923SM  C10S13416   0.545   7.347   3.633
   9923SM  H10S13417   0.559   7.240   3.661
   9923SM  H10T13418   0.436   7.365   3.623
   9923SM  C11S13419   0.604   7.432   3.746
   9923SM  H11S13420   0.592   7.540   3.723
   9923SM  H11T13421   0.713   7.412   3.752
   9923SM  C12S13422   0.541   7.399   3.882
   9923SM  H12S13423   0.546   7.289   3.899
   9923SM  H12T13424   0.434   7.430   3.883
   9923SM  C13S13425   0.617   7.469   3.995
   9923SM  H13S13426   0.618   7.578   3.975
   9923SM  H13T13427   0.722   7.433   3.993
   9923SM  C14S13428   0.560   7.446   4.135
   9923SM  H14S13429   0.558   7.337   4.157
   9923SM  H14T13430   0.456   7.484   4.141
   9923SM  C15S13431   0.647   7.518   4.238
   9923SM  H15S13432   0.654   7.625   4.209
   9923SM  H15T13433   0.750   7.475   4.233
   9923SM  C16S13434   0.600   7.511   4.384
   9923SM  H16S13435   0.602   7.405   4.418
   9923SM  H16T13436   0.496   7.548   4.392
   9923SM  C17S13437   0.691   7.593   4.475
   9923SM  H17S13438   0.688   7.700   4.445
   9923SM  H17T13439   0.795   7.558   4.458
   9923SM  C18S13440   0.659   7.580   4.624
   9923SM  H18S13441   0.733   7.636   4.685
   9923SM  H18T13442   0.661   7.474   4.655
   9923SM  H18U13443   0.558   7.621   4.645
   9923SM   C1F13444   0.566   7.168   2.761
   9923SM    OF13445   0.641   7.077   2.729
   9923SM   C2F13446   0.418   7.146   2.766
   9923SM   H2F13447   0.398   7.037   2.759
   9923SM   H2G13448   0.371   7.196   2.678
   9923SM   C3F13449   0.356   7.202   2.896
   9923SM   H3F13450   0.246   7.190   2.891
   9923SM   H3G13451   0.375   7.311   2.904
   9923SM   C4F13452   0.406   7.133   3.025
   9923SM   H4F13453   0.516   7.120   3.024
   9923SM   H4G13454   0.360   7.032   3.029
   9923SM   C5F13455   0.365   7.214   3.148
   9923SM   H5F13456   0.264   7.256   3.126
   9923SM   H5G13457   0.433   7.301   3.161
   9923SM   C6F13458   0.354   7.132   3.277
   9923SM   H6F13459   0.454   7.102   3.313
   9923SM   H6G13460   0.296   7.040   3.255
   9923SM   C7F13461   0.278   7.211   3.385
   9923SM   H7F13462   0.183   7.245   3.339
   9923SM   H7G13463   0.339   7.299   3.415
   9923SM   C8F13464   0.242   7.129   3.509
   9923SM   H8F13465   0.335   7.095   3.560
   9923SM   H8G13466   0.187   7.038   3.476
   9923SM   C9F13467   0.154   7.209   3.606
   9923SM   H9F13468   0.072   7.256   3.548
   9923SM   H9G13469   0.213   7.290   3.653
   9923SM  C10F13470   0.089   7.122   3.714
   9923SM  H10F13471   0.026   7.044   3.664
   9923SM  H10G13472   0.021   7.185   3.776
   9923SM  C11F13473   0.187   7.050   3.808
   9923SM  H11F13474   0.253   6.982   3.750
   9923SM  H11G13475   0.128   6.987   3.877
   9923SM  C12F13476   0.275   7.146   3.890
   9923SM  H12F13477   0.211   7.225   3.936
   9923SM  H12G13478   0.347   7.195   3.822
   9923SM  C13F13479   0.352   7.074   4.002
   9923SM  H13F13480   0.431   7.143   4.040
   9923SM  H13G13481   0.403   6.984   3.960
   9923SM  C14F13482   0.263   7.032   4.120
   9923SM  H14F13483   0.181   6.968   4.083
   9923SM  H14G13484   0.216   7.123   4.164
   9923SM  C15F13485   0.338   6.955   4.229
   9923SM  H15F13486   0.377   6.861   4.185
   9923SM  H15G13487   0.267   6.927   4.310
   9923SM  C16F13488   0.458   7.028   4.292
   9923SM  H16F13489   0.538   7.037   4.215
   9923SM  H16G13490   0.498   6.965   4.374
   9923SM  C17F13491   0.428   7.168   4.347
   9923SM  H17F13492   0.377   7.229   4.269
   9923SM  H17G13493   0.526   7.218   4.367
   9923SM  C18F13494   0.346   7.169   4.476
   9923SM  H18F13495   0.406   7.121   4.557
   9923SM  H18G13496   0.254   7.108   4.462
   9923SM  C19F13497   0.307   7.312   4.519
   9923SM  H19F13498   0.198   7.326   4.506
   9923SM  H19G13499   0.357   7.385   4.452
   9923SM  C20F13500   0.346   7.345   4.664
   9923SM  H20F13501   0.456   7.335   4.676
   9923SM  H20G13502   0.298   7.271   4.732
   9923SM  C21F13503   0.301   7.487   4.704
   9923SM  H21F13504   0.194   7.499   4.677
   9923SM  H21G13505   0.358   7.561   4.644
   9923SM  C22F13506   0.317   7.517   4.854
   9923SM  H22F13507   0.251   7.447   4.909
   9923SM  H22G13508   0.278   7.620   4.873
   9923SM  C23F13509   0.459   7.506   4.910
   9923SM  H23F13510   0.459   7.524   5.020
   9923SM  H23G13511   0.525   7.582   4.863
   9923SM  H23H13512   0.501   7.405   4.891
  10023SM     N13513   0.265   0.514   2.224
  10023SM   C1513514   0.323   0.453   2.101
  10023SM  H15A13515   0.421   0.494   2.079
  10023SM  H15B13516   0.258   0.467   2.016
  10023SM  H15C13517   0.335   0.347   2.117
  10023SM   C1413518   0.241   0.661   2.203
  10023SM  H14A13519   0.332   0.711   2.171
  10023SM  H14B13520   0.207   0.707   2.294
  10023SM  H14C13521   0.164   0.677   2.128
  10023SM   C1313522   0.134   0.448   2.252
  10023SM  H13A13523   0.150   0.343   2.268
  10023SM  H13B13524   0.064   0.462   2.171
  10023SM  H13C13525   0.089   0.487   2.342
  10023SM   C1213526   0.358   0.493   2.343
  10023SM  H12A13527   0.305   0.520   2.433
  10023SM  H12B13528   0.441   0.562   2.334
  10023SM   C1113529   0.419   0.352   2.361
  10023SM  H11A13530   0.486   0.353   2.450
  10023SM  H11B13531   0.485   0.329   2.275
  10023SM     P13532   0.252   0.210   2.506
  10023SM   O1313533   0.155   0.316   2.545
  10023SM   O1413534   0.200   0.072   2.495
  10023SM   O1113535   0.371   0.216   2.609
  10023SM   O1213536   0.319   0.250   2.370
  10023SM   C1S13537   0.470   0.113   2.615
  10023SM   H1S13538   0.563   0.149   2.566
  10023SM   H1T13539   0.441   0.019   2.564
  10023SM    NF13540   0.380   0.032   2.829
  10023SM   HNF13541   0.326   0.102   2.876
  10023SM   C2S13542   0.501   0.079   2.763
  10023SM   H2S13543   0.577  -0.002   2.767
  10023SM   C3S13544   0.564   0.205   2.829
  10023SM   H3S13545   0.504   0.295   2.804
  10023SM    O313546   0.697   0.228   2.783
  10023SM   HO313547   0.709   0.168   2.709
  10023SM   C4S13548   0.565   0.187   2.978
  10023SM   H4S13549   0.645   0.122   3.018
  10023SM   C5S13550   0.479   0.249   3.062
  10023SM   H5S13551   0.407   0.321   3.022
  10023SM   C6S13552   0.475   0.232   3.212
  10023SM   H6S13553   0.526   0.317   3.262
  10023SM   H6T13554   0.529   0.140   3.243
  10023SM   C7S13555   0.328   0.227   3.258
  10023SM   H7S13556   0.277   0.143   3.206
  10023SM   H7T13557   0.277   0.321   3.226
  10023SM   C8S13558   0.308   0.212   3.409
  10023SM   H8S13559   0.200   0.197   3.430
  10023SM   H8T13560   0.339   0.306   3.460
  10023SM   C9S13561   0.388   0.096   3.468
  10023SM   H9S13562   0.495   0.127   3.474
  10023SM   H9T13563   0.384   0.011   3.396
  10023SM  C10S13564   0.342   0.049   3.607
  10023SM  H10S13565   0.401  -0.042   3.633
  10023SM  H10T13566   0.235   0.021   3.606
  10023SM  C11S13567   0.367   0.153   3.717
  10023SM  H11S13568   0.295   0.236   3.708
  10023SM  H11T13569   0.469   0.195   3.703
  10023SM  C12S13570   0.360   0.091   3.858
  10023SM  H12S13571   0.435   0.009   3.864
  10023SM  H12T13572   0.260   0.046   3.874
  10023SM  C13S13573   0.388   0.192   3.969
  10023SM  H13S13574   0.309   0.271   3.967
  10023SM  H13T13575   0.485   0.243   3.950
  10023SM  C14S13576   0.392   0.128   4.108
  10023SM  H14S13577   0.470   0.049   4.109
  10023SM  H14T13578   0.295   0.079   4.129
  10023SM  C15S13579   0.422   0.229   4.220
  10023SM  H15S13580   0.348   0.311   4.215
  10023SM  H15T13581   0.523   0.274   4.203
  10023SM  C16S13582   0.417   0.168   4.360
  10023SM  H16S13583   0.492   0.087   4.368
  10023SM  H16T13584   0.316   0.124   4.377
  10023SM  C17S13585   0.444   0.273   4.469
  10023SM  H17S13586   0.375   0.358   4.453
  10023SM  H17T13587   0.548   0.311   4.455
  10023SM  C18S13588   0.428   0.221   4.612
  10023SM  H18S13589   0.327   0.177   4.627
  10023SM  H18T13590   0.441   0.304   4.685
  10023SM  H18U13591   0.505   0.144   4.635
  10023SM   C1F13592   0.327  -0.087   2.806
  10023SM    OF13593   0.390  -0.171   2.741
  10023SM   C2F13594   0.192  -0.117   2.866
  10023SM   H2F13595   0.193  -0.091   2.974
  10023SM   H2G13596   0.176  -0.226   2.857
  10023SM   C3F13597   0.074  -0.046   2.795
  10023SM   H3F13598  -0.020  -0.094   2.828
  10023SM   H3G13599   0.082  -0.064   2.686
  10023SM   C4F13600   0.060   0.106   2.819
  10023SM   H4F13601  -0.014   0.145   2.746
  10023SM   H4G13602   0.155   0.159   2.798
  10023SM   C5F13603   0.010   0.143   2.960
  10023SM   H5F13604   0.075   0.096   3.036
  10023SM   H5G13605  -0.093   0.103   2.972
  10023SM   C6F13606   0.008   0.296   2.983
  10023SM   H6F13607  -0.032   0.346   2.892
  10023SM   H6G13608   0.112   0.331   2.997
  10023SM   C7F13609  -0.078   0.341   3.103
  10023SM   H7F13610  -0.185   0.330   3.078
  10023SM   H7G13611  -0.059   0.450   3.118
  10023SM   C8F13612  -0.050   0.265   3.233
  10023SM   H8F13613   0.059   0.267   3.254
  10023SM   H8G13614  -0.081   0.159   3.218
  10023SM   C9F13615  -0.127   0.320   3.355
  10023SM   H9F13616  -0.109   0.252   3.441
  10023SM   H9G13617  -0.235   0.318   3.333
  10023SM  C10F13618  -0.088   0.462   3.399
  10023SM  H10F13619  -0.144   0.486   3.492
  10023SM  H10G13620  -0.118   0.536   3.322
  10023SM  C11F13621   0.063   0.478   3.426
  10023SM  H11F13622   0.118   0.485   3.330
  10023SM  H11G13623   0.098   0.387   3.479
  10023SM  C12F13624   0.098   0.599   3.514
  10023SM  H12F13625   0.008   0.662   3.530
  10023SM  H12G13626   0.173   0.662   3.462
  10023SM  C13F13627   0.155   0.556   3.650
  10023SM  H13F13628   0.244   0.491   3.632
  10023SM  H13G13629   0.077   0.495   3.700
  10023SM  C14F13630   0.197   0.673   3.740
  10023SM  H14F13631   0.110   0.740   3.754
  10023SM  H14G13632   0.276   0.732   3.689
  10023SM  C15F13633   0.247   0.630   3.880
  10023SM  H15F13634   0.258   0.720   3.943
  10023SM  H15G13635   0.348   0.584   3.870
  10023SM  C16F13636   0.154   0.529   3.949
  10023SM  H16F13637   0.160   0.433   3.892
  10023SM  H16G13638   0.049   0.564   3.944
  10023SM  C17F13639   0.192   0.498   4.094
  10023SM  H17F13640   0.302   0.499   4.107
  10023SM  H17G13641   0.156   0.395   4.116
  10023SM  C18F13642   0.126   0.591   4.198
  10023SM  H18F13643   0.021   0.609   4.169
  10023SM  H18G13644   0.178   0.689   4.199
  10023SM  C19F13645   0.127   0.527   4.338
  10023SM  H19F13646   0.232   0.508   4.369
  10023SM  H19G13647   0.077   0.428   4.330
  10023SM  C20F13648   0.055   0.610   4.445
  10023SM  H20F13649  -0.035   0.655   4.399
  10023SM  H20G13650   0.121   0.693   4.478
  10023SM  C21F13651   0.009   0.525   4.565
  10023SM  H21F13652  -0.064   0.449   4.529
  10023SM  H21G13653  -0.044   0.591   4.637
  10023SM  C22F13654   0.123   0.454   4.639
  10023SM  H22F13655   0.192   0.530   4.679
  10023SM  H22G13656   0.179   0.391   4.567
  10023SM  C23F13657   0.073   0.365   4.754
  10023SM  H23F13658   0.159   0.320   4.808
  10023SM  H23G13659   0.009   0.283   4.714
  10023SM  H23H13660   0.013   0.424   4.826
  101CHL1    C313661   4.018   4.599   6.747
  101CHL1    H313662   4.126   4.586   6.726
  101CHL1    O313663   4.000   4.623   6.886
  101CHL1   H3'13664   3.910   4.655   6.894
  101CHL1    C413665   3.965   4.720   6.667
  101CHL1   H4A13666   3.861   4.742   6.700
  101CHL1   H4B13667   4.025   4.809   6.696
  101CHL1    C513668   3.967   4.697   6.517
  101CHL1    C613669   4.032   4.780   6.434
  101CHL1    H613670   4.083   4.869   6.475
  101CHL1    C713671   4.033   4.765   6.284
  101CHL1   H7A13672   4.019   4.864   6.236
  101CHL1   H7B13673   4.131   4.725   6.251
  101CHL1    C813674   3.921   4.669   6.236
  101CHL1    H813675   3.824   4.721   6.251
  101CHL1   C1413676   3.936   4.638   6.087
  101CHL1   H1413677   4.034   4.587   6.076
  101CHL1   C1513678   3.942   4.758   5.991
  101CHL1  H15A13679   3.863   4.832   6.018
  101CHL1  H15B13680   4.040   4.809   5.992
  101CHL1   C1613681   3.910   4.696   5.854
  101CHL1  H16A13682   3.827   4.753   5.806
  101CHL1  H16B13683   3.997   4.698   5.786
  101CHL1   C1713684   3.866   4.548   5.879
  101CHL1   H1713685   3.957   4.485   5.866
  101CHL1   C1313686   3.832   4.542   6.030
  101CHL1   C1813687   3.690   4.601   6.049
  101CHL1  H18A13688   3.612   4.531   6.010
  101CHL1  H18B13689   3.666   4.619   6.156
  101CHL1  H18C13690   3.678   4.697   5.995
  101CHL1   C1213691   3.851   4.408   6.104
  101CHL1  H12A13692   3.778   4.332   6.068
  101CHL1  H12B13693   3.953   4.370   6.083
  101CHL1   C1113694   3.833   4.426   6.257
  101CHL1  H11A13695   3.725   4.447   6.274
  101CHL1  H11B13696   3.856   4.330   6.307
  101CHL1    C913697   3.921   4.539   6.319
  101CHL1    H913698   4.026   4.502   6.311
  101CHL1   C1013699   3.896   4.568   6.470
  101CHL1   C1913700   3.744   4.584   6.494
  101CHL1  H19A13701   3.690   4.488   6.476
  101CHL1  H19B13702   3.720   4.614   6.598
  101CHL1  H19C13703   3.701   4.661   6.426
  101CHL1    C113704   3.950   4.448   6.555
  101CHL1   H1A13705   3.891   4.357   6.529
  101CHL1   H1B13706   4.055   4.429   6.526
  101CHL1    C213707   3.943   4.471   6.707
  101CHL1   H2A13708   3.989   4.385   6.760
  101CHL1   H2B13709   3.837   4.478   6.739
  101CHL1   C2013710   3.762   4.501   5.775
  101CHL1   H2013711   3.676   4.572   5.778
  101CHL1   C2113712   3.710   4.360   5.806
  101CHL1  H21A13713   3.653   4.357   5.901
  101CHL1  H21B13714   3.794   4.287   5.811
  101CHL1  H21C13715   3.641   4.327   5.725
  101CHL1   C2213716   3.817   4.502   5.630
  101CHL1  H22A13717   3.887   4.587   5.614
  101CHL1  H22B13718   3.875   4.409   5.614
  101CHL1   C2313719   3.707   4.513   5.522
  101CHL1  H23A13720   3.619   4.452   5.553
  101CHL1  H23B13721   3.673   4.618   5.517
  101CHL1   C2413722   3.748   4.465   5.382
  101CHL1  H24A13723   3.762   4.355   5.385
  101CHL1  H24B13724   3.664   4.485   5.312
  101CHL1   C2513725   3.877   4.527   5.324
  101CHL1   H2513726   3.961   4.498   5.389
  101CHL1   C2613727   3.905   4.472   5.183
  101CHL1  H26A13728   4.001   4.513   5.144
  101CHL1  H26B13729   3.913   4.361   5.186
  101CHL1  H26C13730   3.824   4.500   5.113
  101CHL1   C2713731   3.871   4.681   5.319
  101CHL1  H27A13732   3.860   4.723   5.421
  101CHL1  H27B13733   3.964   4.721   5.275
  101CHL1  H27C13734   3.785   4.714   5.257
  102CHL1    C313735   2.735   4.601   6.767
  102CHL1    H313736   2.763   4.708   6.754
  102CHL1    O313737   2.740   4.570   6.905
  102CHL1   H3'13738   2.654   4.595   6.939
  102CHL1    C413739   2.593   4.579   6.716
  102CHL1   H4A13740   2.563   4.474   6.737
  102CHL1   H4B13741   2.523   4.643   6.774
  102CHL1    C513742   2.585   4.607   6.567
  102CHL1    C613743   2.503   4.702   6.520
  102CHL1    H613744   2.437   4.757   6.590
  102CHL1    C713745   2.486   4.732   6.375
  102CHL1   H7A13746   2.378   4.744   6.351
  102CHL1   H7B13747   2.537   4.827   6.349
  102CHL1    C813748   2.543   4.618   6.285
  102CHL1    H813749   2.474   4.532   6.293
  102CHL1   C1413750   2.548   4.666   6.141
  102CHL1   H1413751   2.622   4.749   6.138
  102CHL1   C1513752   2.418   4.723   6.084
  102CHL1  H15A13753   2.335   4.656   6.112
  102CHL1  H15B13754   2.397   4.826   6.121
  102CHL1   C1613755   2.440   4.720   5.933
  102CHL1  H16A13756   2.354   4.667   5.887
  102CHL1  H16B13757   2.447   4.822   5.890
  102CHL1   C1713758   2.572   4.640   5.908
  102CHL1   H1713759   2.654   4.716   5.899
  102CHL1   C1313760   2.598   4.563   6.040
  102CHL1   C1813761   2.508   4.436   6.040
  102CHL1  H18A13762   2.506   4.387   6.140
  102CHL1  H18B13763   2.403   4.460   6.012
  102CHL1  H18C13764   2.547   4.361   5.968
  102CHL1   C1213765   2.743   4.530   6.080
  102CHL1  H12A13766   2.785   4.452   6.013
  102CHL1  H12B13767   2.805   4.622   6.068
  102CHL1   C1113768   2.752   4.481   6.227
  102CHL1  H11A13769   2.704   4.381   6.229
  102CHL1  H11B13770   2.859   4.468   6.254
  102CHL1    C913771   2.683   4.576   6.330
  102CHL1    H913772   2.743   4.669   6.329
  102CHL1   C1013773   2.682   4.526   6.478
  102CHL1   C1913774   2.637   4.378   6.481
  102CHL1  H19A13775   2.711   4.313   6.429
  102CHL1  H19B13776   2.628   4.338   6.585
  102CHL1  H19C13777   2.538   4.365   6.431
  102CHL1    C113778   2.826   4.539   6.538
  102CHL1   H1A13779   2.893   4.469   6.485
  102CHL1   H1B13780   2.863   4.642   6.517
  102CHL1    C213781   2.835   4.514   6.690
  102CHL1   H2A13782   2.938   4.534   6.726
  102CHL1   H2B13783   2.812   4.407   6.710
  102CHL1   C2013784   2.566   4.565   5.773
  102CHL1   H2013785   2.491   4.484   5.781
  102CHL1   C2113786   2.703   4.501   5.741
  102CHL1  H21A13787   2.727   4.421   5.813
  102CHL1  H21B13788   2.783   4.578   5.743
  102CHL1  H21C13789   2.701   4.456   5.639
  102CHL1   C2213790   2.519   4.657   5.657
  102CHL1  H22A13791   2.429   4.714   5.688
  102CHL1  H22B13792   2.598   4.733   5.635
  102CHL1   C2313793   2.477   4.584   5.529
  102CHL1  H23A13794   2.564   4.570   5.462
  102CHL1  H23B13795   2.437   4.484   5.555
  102CHL1   C2413796   2.366   4.664   5.456
  102CHL1  H24A13797   2.276   4.666   5.522
  102CHL1  H24B13798   2.401   4.769   5.443
  102CHL1   C2513799   2.323   4.611   5.318
  102CHL1   H2513800   2.410   4.620   5.249
  102CHL1   C2613801   2.282   4.463   5.321
  102CHL1  H26A13802   2.251   4.431   5.219
  102CHL1  H26B13803   2.367   4.399   5.353
  102CHL1  H26C13804   2.196   4.448   5.390
  102CHL1   C2713805   2.207   4.696   5.263
  102CHL1  H27A13806   2.176   4.658   5.163
  102CHL1  H27B13807   2.120   4.690   5.331
  102CHL1  H27C13808   2.238   4.802   5.253
  103CHL1    C313809   2.692   2.876   6.742
  103CHL1    H313810   2.784   2.937   6.726
  103CHL1    O313811   2.669   2.865   6.881
  103CHL1   H3'13812   2.626   2.947   6.905
  103CHL1    C413813   2.572   2.946   6.676
  103CHL1   H4A13814   2.480   2.887   6.696
  103CHL1   H4B13815   2.557   3.045   6.723
  103CHL1    C513816   2.594   2.957   6.526
  103CHL1    C613817   2.593   3.076   6.466
  103CHL1    H613818   2.571   3.167   6.524
  103CHL1    C713819   2.612   3.095   6.318
  103CHL1   H7A13820   2.541   3.170   6.278
  103CHL1   H7B13821   2.714   3.133   6.298
  103CHL1    C813822   2.594   2.963   6.239
  103CHL1    H813823   2.485   2.938   6.240
  103CHL1   C1413824   2.642   2.982   6.096
  103CHL1   H1413825   2.750   3.004   6.103
  103CHL1   C1513826   2.582   3.099   6.016
  103CHL1  H15A13827   2.472   3.099   6.028
  103CHL1  H15B13828   2.622   3.197   6.048
  103CHL1   C1613829   2.619   3.065   5.871
  103CHL1  H16A13830   2.529   3.074   5.808
  103CHL1  H16B13831   2.698   3.133   5.832
  103CHL1   C1713832   2.673   2.918   5.871
  103CHL1   H1713833   2.784   2.925   5.875
  103CHL1   C1313834   2.630   2.858   6.008
  103CHL1   C1813835   2.483   2.812   5.997
  103CHL1  H18A13836   2.474   2.720   5.936
  103CHL1  H18B13837   2.439   2.789   6.097
  103CHL1  H18C13838   2.420   2.891   5.950
  103CHL1   C1213839   2.722   2.751   6.071
  103CHL1  H12A13840   2.719   2.656   6.014
  103CHL1  H12B13841   2.826   2.788   6.070
  103CHL1   C1113842   2.680   2.721   6.217
  103CHL1  H11A13843   2.581   2.671   6.213
  103CHL1  H11B13844   2.752   2.649   6.261
  103CHL1    C913845   2.672   2.849   6.306
  103CHL1    H913846   2.776   2.887   6.313
  103CHL1   C1013847   2.626   2.824   6.453
  103CHL1   C1913848   2.496   2.739   6.451
  103CHL1  H19A13849   2.419   2.786   6.387
  103CHL1  H19B13850   2.516   2.636   6.412
  103CHL1  H19C13851   2.453   2.726   6.552
  103CHL1    C113852   2.737   2.747   6.530
  103CHL1   H1A13853   2.747   2.646   6.487
  103CHL1   H1B13854   2.834   2.801   6.514
  103CHL1    C213855   2.713   2.737   6.682
  103CHL1   H2A13856   2.797   2.685   6.732
  103CHL1   H2B13857   2.621   2.677   6.700
  103CHL1   C2013858   2.637   2.844   5.741
  103CHL1   H2013859   2.526   2.840   5.731
  103CHL1   C2113860   2.689   2.700   5.745
  103CHL1  H21A13861   2.668   2.646   5.650
  103CHL1  H21B13862   2.639   2.642   5.825
  103CHL1  H21C13863   2.799   2.699   5.763
  103CHL1   C2213864   2.691   2.920   5.617
  103CHL1  H22A13865   2.643   3.020   5.611
  103CHL1  H22B13866   2.801   2.936   5.630
  103CHL1   C2313867   2.669   2.849   5.482
  103CHL1  H23A13868   2.729   2.756   5.480
  103CHL1  H23B13869   2.562   2.822   5.472
  103CHL1   C2413870   2.709   2.938   5.363
  103CHL1  H24A13871   2.644   3.027   5.362
  103CHL1  H24B13872   2.814   2.973   5.376
  103CHL1   C2513873   2.698   2.867   5.226
  103CHL1   H2513874   2.597   2.821   5.220
  103CHL1   C2613875   2.710   2.968   5.111
  103CHL1  H26A13876   2.633   3.047   5.120
  103CHL1  H26B13877   2.810   3.017   5.113
  103CHL1  H26C13878   2.698   2.918   5.013
  103CHL1   C2713879   2.801   2.754   5.210
  103CHL1  H27A13880   2.790   2.706   5.110
  103CHL1  H27B13881   2.904   2.795   5.219
  103CHL1  H27C13882   2.787   2.676   5.287
  104CHL1    C313883   6.181   4.104   6.831
  104CHL1    H313884   6.289   4.113   6.854
  104CHL1    O313885   6.109   4.094   6.953
  104CHL1   H3'13886   6.145   4.016   6.996
  104CHL1    C413887   6.132   4.227   6.755
  104CHL1   H4A13888   6.022   4.219   6.740
  104CHL1   H4B13889   6.148   4.317   6.819
  104CHL1    C513890   6.200   4.240   6.620
  104CHL1    C613891   6.269   4.351   6.587
  104CHL1    H613892   6.274   4.435   6.657
  104CHL1    C713893   6.337   4.370   6.455
  104CHL1   H7A13894   6.313   4.470   6.413
  104CHL1   H7B13895   6.447   4.366   6.470
  104CHL1    C813896   6.298   4.264   6.349
  104CHL1    H813897   6.199   4.292   6.308
  104CHL1   C1413898   6.402   4.262   6.238
  104CHL1   H1413899   6.495   4.225   6.286
  104CHL1   C1513900   6.441   4.395   6.173
  104CHL1  H15A13901   6.350   4.454   6.148
  104CHL1  H15B13902   6.506   4.456   6.240
  104CHL1   C1613903   6.515   4.351   6.046
  104CHL1  H16A13904   6.471   4.405   5.959
  104CHL1  H16B13905   6.623   4.375   6.050
  104CHL1   C1713906   6.494   4.197   6.031
  104CHL1   H1713907   6.582   4.150   6.080
  104CHL1   C1313908   6.374   4.165   6.123
  104CHL1   C1813909   6.243   4.202   6.050
  104CHL1  H18A13910   6.249   4.304   6.006
  104CHL1  H18B13911   6.222   4.130   5.968
  104CHL1  H18C13912   6.156   4.200   6.119
  104CHL1   C1213913   6.370   4.024   6.185
  104CHL1  H12A13914   6.344   3.948   6.108
  104CHL1  H12B13915   6.470   3.999   6.225
  104CHL1   C1113916   6.267   4.016   6.300
  104CHL1  H11A13917   6.166   4.026   6.255
  104CHL1  H11B13918   6.274   3.915   6.346
  104CHL1    C913919   6.289   4.124   6.410
  104CHL1    H913920   6.390   4.104   6.451
  104CHL1   C1013921   6.192   4.115   6.531
  104CHL1   C1913922   6.047   4.103   6.478
  104CHL1  H19A13923   6.022   4.188   6.411
  104CHL1  H19B13924   6.032   4.008   6.423
  104CHL1  H19C13925   5.973   4.103   6.561
  104CHL1    C113926   6.229   3.988   6.614
  104CHL1   H1A13927   6.208   3.897   6.554
  104CHL1   H1B13928   6.339   3.989   6.634
  104CHL1    C213929   6.158   3.977   6.749
  104CHL1   H2A13930   6.197   3.888   6.804
  104CHL1   H2B13931   6.049   3.962   6.733
  104CHL1   C2013932   6.496   4.153   5.884
  104CHL1   H2013933   6.416   4.206   5.829
  104CHL1   C2113934   6.469   4.002   5.873
  104CHL1  H21A13935   6.540   3.945   5.936
  104CHL1  H21B13936   6.478   3.967   5.768
  104CHL1  H21C13937   6.365   3.978   5.905
  104CHL1   C2213938   6.632   4.189   5.818
  104CHL1  H22A13939   6.646   4.300   5.824
  104CHL1  H22B13940   6.713   4.143   5.879
  104CHL1   C2313941   6.655   4.148   5.671
  104CHL1  H23A13942   6.759   4.177   5.646
  104CHL1  H23B13943   6.648   4.038   5.660
  104CHL1   C2413944   6.561   4.216   5.571
  104CHL1  H24A13945   6.456   4.189   5.596
  104CHL1  H24B13946   6.571   4.326   5.581
  104CHL1   C2513947   6.588   4.178   5.424
  104CHL1   H2513948   6.586   4.067   5.416
  104CHL1   C2613949   6.477   4.232   5.332
  104CHL1  H26A13950   6.378   4.195   5.364
  104CHL1  H26B13951   6.476   4.344   5.334
  104CHL1  H26C13952   6.495   4.200   5.227
  104CHL1   C2713953   6.725   4.228   5.375
  104CHL1  H27A13954   6.732   4.338   5.387
  104CHL1  H27B13955   6.807   4.181   5.432
  104CHL1  H27C13956   6.739   4.203   5.267
  105CHL1    C313957   6.120   3.264   6.779
  105CHL1    H313958   6.182   3.355   6.765
  105CHL1    O313959   6.099   3.243   6.918
  105CHL1   H3'13960   6.174   3.192   6.949
  105CHL1    C413961   5.985   3.283   6.708
  105CHL1   H4A13962   5.920   3.196   6.732
  105CHL1   H4B13963   5.936   3.372   6.752
  105CHL1    C513964   6.000   3.295   6.557
  105CHL1    C613965   5.951   3.401   6.490
  105CHL1    H613966   5.896   3.479   6.545
  105CHL1    C713967   5.958   3.416   6.341
  105CHL1   H7A13968   5.859   3.447   6.300
  105CHL1   H7B13969   6.031   3.496   6.315
  105CHL1    C813970   6.002   3.286   6.268
  105CHL1    H813971   5.914   3.218   6.267
  105CHL1   C1413972   6.044   3.317   6.125
  105CHL1   H1413973   6.133   3.383   6.133
  105CHL1   C1513974   5.945   3.394   6.036
  105CHL1  H15A13975   5.842   3.356   6.054
  105CHL1  H15B13976   5.947   3.503   6.058
  105CHL1   C1613977   5.990   3.362   5.893
  105CHL1  H16A13978   5.906   3.313   5.839
  105CHL1  H16B13979   6.018   3.455   5.839
  105CHL1   C1713980   6.111   3.264   5.905
  105CHL1   H1713981   6.200   3.330   5.915
  105CHL1   C1313982   6.090   3.197   6.043
  105CHL1   C1813983   5.977   3.091   6.031
  105CHL1  H18A13984   5.890   3.131   5.974
  105CHL1  H18B13985   6.014   3.001   5.978
  105CHL1  H18C13986   5.941   3.058   6.130
  105CHL1   C1213987   6.214   3.137   6.114
  105CHL1  H12A13988   6.247   3.045   6.062
  105CHL1  H12B13989   6.296   3.212   6.112
  105CHL1   C1113990   6.181   3.101   6.261
  105CHL1  H11A13991   6.111   3.015   6.258
  105CHL1  H11B13992   6.275   3.067   6.310
  105CHL1    C913993   6.118   3.218   6.342
  105CHL1    H913994   6.197   3.295   6.347
  105CHL1   C1013995   6.081   3.183   6.489
  105CHL1   C1913996   5.993   3.055   6.491
  105CHL1  H19A13997   6.050   2.968   6.454
  105CHL1  H19B13998   5.958   3.030   6.594
  105CHL1  H19C13999   5.903   3.068   6.427
  105CHL1    C114000   6.213   3.157   6.569
  105CHL1   H1A14001   6.262   3.065   6.530
  105CHL1   H1B14002   6.282   3.242   6.550
  105CHL1    C214003   6.194   3.142   6.721
  105CHL1   H2A14004   6.294   3.131   6.770
  105CHL1   H2B14005   6.135   3.051   6.742
  105CHL1   C2014006   6.136   3.174   5.783
  105CHL1   H2014007   6.073   3.083   5.792
  105CHL1   C2114008   6.284   3.131   5.779
  105CHL1  H21A14009   6.304   3.072   5.687
  105CHL1  H21B14010   6.310   3.067   5.867
  105CHL1  H21C14011   6.351   3.219   5.779
  105CHL1   C2214012   6.096   3.235   5.645
  105CHL1  H22A14013   6.115   3.157   5.568
  105CHL1  H22B14014   5.986   3.254   5.645
  105CHL1   C2314015   6.170   3.363   5.603
  105CHL1  H23A14016   6.145   3.446   5.672
  105CHL1  H23B14017   6.280   3.347   5.612
  105CHL1   C2414018   6.141   3.406   5.458
  105CHL1  H24A14019   6.198   3.499   5.435
  105CHL1  H24B14020   6.179   3.326   5.390
  105CHL1   C2514021   5.992   3.430   5.424
  105CHL1   H2514022   5.936   3.337   5.445
  105CHL1   C2614023   5.931   3.543   5.508
  105CHL1  H26A14024   5.938   3.521   5.617
  105CHL1  H26B14025   5.983   3.639   5.487
  105CHL1  H26C14026   5.823   3.556   5.483
  105CHL1   C2714027   5.976   3.461   5.274
  105CHL1  H27A14028   5.868   3.474   5.249
  105CHL1  H27B14029   6.030   3.555   5.248
  105CHL1  H27C14030   6.017   3.378   5.213
  106CHL1    C314031   1.964   2.416   6.790
  106CHL1    H314032   2.036   2.500   6.798
  106CHL1    O314033   1.944   2.358   6.918
  106CHL1   H3'14034   2.029   2.365   6.962
  106CHL1    C414035   1.830   2.469   6.737
  106CHL1   H4A14036   1.755   2.386   6.742
  106CHL1   H4B14037   1.794   2.547   6.806
  106CHL1    C514038   1.840   2.519   6.594
  106CHL1    C614039   1.805   2.645   6.562
  106CHL1    H614040   1.765   2.712   6.640
  106CHL1    C714041   1.808   2.699   6.423
  106CHL1   H7A14042   1.713   2.753   6.401
  106CHL1   H7B14043   1.892   2.771   6.412
  106CHL1    C814044   1.824   2.588   6.315
  106CHL1    H814045   1.727   2.536   6.306
  106CHL1   C1414046   1.861   2.651   6.182
  106CHL1   H1414047   1.961   2.697   6.196
  106CHL1   C1514048   1.772   2.767   6.133
  106CHL1  H15A14049   1.665   2.747   6.156
  106CHL1  H15B14050   1.802   2.863   6.179
  106CHL1   C1614051   1.793   2.768   5.981
  106CHL1  H16A14052   1.695   2.745   5.933
  106CHL1  H16B14053   1.828   2.866   5.945
  106CHL1   C1714054   1.896   2.655   5.949
  106CHL1   H1714055   1.996   2.701   5.965
  106CHL1   C1314056   1.876   2.554   6.065
  106CHL1   C1814057   1.746   2.475   6.039
  106CHL1  H18A14058   1.761   2.403   5.956
  106CHL1  H18B14059   1.715   2.416   6.128
  106CHL1  H18C14060   1.661   2.542   6.012
  106CHL1   C1214061   1.993   2.460   6.102
  106CHL1  H12A14062   2.006   2.382   6.023
  106CHL1  H12B14063   2.086   2.519   6.109
  106CHL1   C1114064   1.967   2.390   6.237
  106CHL1  H11A14065   1.883   2.319   6.221
  106CHL1  H11B14066   2.056   2.330   6.264
  106CHL1    C914067   1.932   2.487   6.355
  106CHL1    H914068   2.024   2.548   6.370
  106CHL1   C1014069   1.901   2.420   6.492
  106CHL1   C1914070   1.799   2.305   6.470
  106CHL1  H19A14071   1.771   2.257   6.565
  106CHL1  H19B14072   1.706   2.343   6.421
  106CHL1  H19C14073   1.842   2.226   6.405
  106CHL1    C114074   2.032   2.363   6.552
  106CHL1   H1A14075   2.066   2.281   6.485
  106CHL1   H1B14076   2.109   2.442   6.550
  106CHL1    C214077   2.021   2.309   6.696
  106CHL1   H2A14078   2.121   2.278   6.732
  106CHL1   H2B14079   1.954   2.220   6.697
  106CHL1   C2014080   1.890   2.610   5.802
  106CHL1   H2014081   1.808   2.536   5.788
  106CHL1   C2114082   2.024   2.543   5.765
  106CHL1  H21A14083   2.021   2.507   5.660
  106CHL1  H21B14084   2.045   2.456   5.830
  106CHL1  H21C14085   2.107   2.616   5.774
  106CHL1   C2214086   1.859   2.730   5.709
  106CHL1  H22A14087   1.756   2.766   5.728
  106CHL1  H22B14088   1.929   2.813   5.734
  106CHL1   C2314089   1.868   2.708   5.557
  106CHL1  H23A14090   1.973   2.686   5.529
  106CHL1  H23B14091   1.805   2.622   5.526
  106CHL1   C2414092   1.822   2.836   5.483
  106CHL1  H24A14093   1.711   2.845   5.489
  106CHL1  H24B14094   1.865   2.923   5.536
  106CHL1   C2514095   1.867   2.844   5.336
  106CHL1   H2514096   1.976   2.827   5.333
  106CHL1   C2614097   1.798   2.739   5.248
  106CHL1  H26A14098   1.822   2.636   5.283
  106CHL1  H26B14099   1.688   2.753   5.251
  106CHL1  H26C14100   1.832   2.749   5.143
  106CHL1   C2714101   1.841   2.984   5.279
  106CHL1  H27A14102   1.877   2.991   5.174
  106CHL1  H27B14103   1.732   3.006   5.280
  106CHL1  H27C14104   1.893   3.062   5.339
  107CHL1    C314105   3.986   6.212   6.771
  107CHL1    H314106   3.976   6.103   6.757
  107CHL1    O314107   3.984   6.243   6.910
  107CHL1   H3'14108   3.891   6.242   6.933
  107CHL1    C414109   4.121   6.258   6.711
  107CHL1   H4A14110   4.139   6.363   6.741
  107CHL1   H4B14111   4.201   6.198   6.759
  107CHL1    C514112   4.125   6.246   6.560
  107CHL1    C614113   4.220   6.176   6.497
  107CHL1    H614114   4.300   6.127   6.555
  107CHL1    C714115   4.232   6.168   6.347
  107CHL1   H7A14116   4.338   6.179   6.315
  107CHL1   H7B14117   4.198   6.068   6.312
  107CHL1    C814118   4.148   6.278   6.277
  107CHL1    H814119   4.197   6.375   6.300
  107CHL1   C1414120   4.146   6.260   6.126
  107CHL1   H1414121   4.098   6.162   6.106
  107CHL1   C1514122   4.282   6.254   6.055
  107CHL1  H15A14123   4.349   6.333   6.096
  107CHL1  H15B14124   4.330   6.155   6.066
  107CHL1   C1614125   4.248   6.287   5.909
  107CHL1  H16A14126   4.315   6.368   5.874
  107CHL1  H16B14127   4.261   6.198   5.843
  107CHL1   C1714128   4.099   6.335   5.904
  107CHL1   H1714129   4.038   6.246   5.876
  107CHL1   C1314130   4.062   6.365   6.052
  107CHL1   C1814131   4.112   6.508   6.084
  107CHL1  H18A14132   4.105   6.531   6.193
  107CHL1  H18B14133   4.217   6.522   6.053
  107CHL1  H18C14134   4.049   6.584   6.032
  107CHL1   C1214135   3.917   6.342   6.097
  107CHL1  H12A14136   3.847   6.412   6.046
  107CHL1  H12B14137   3.887   6.238   6.069
  107CHL1   C1114138   3.903   6.360   6.249
  107CHL1  H11A14139   3.912   6.469   6.268
  107CHL1  H11B14140   3.800   6.329   6.279
  107CHL1    C914141   4.006   6.279   6.335
  107CHL1    H914142   3.972   6.174   6.327
  107CHL1   C1014143   4.006   6.314   6.487
  107CHL1   C1914144   4.020   6.468   6.504
  107CHL1  H19A14145   3.929   6.520   6.468
  107CHL1  H19B14146   4.032   6.497   6.611
  107CHL1  H19C14147   4.108   6.507   6.448
  107CHL1    C114148   3.873   6.266   6.551
  107CHL1   H1A14149   3.789   6.323   6.506
  107CHL1   H1B14150   3.859   6.159   6.527
  107CHL1    C214151   3.868   6.283   6.704
  107CHL1   H2A14152   3.772   6.242   6.742
  107CHL1   H2B14153   3.870   6.391   6.729
  107CHL1   C2014154   4.074   6.443   5.797
  107CHL1   H2014155   4.127   6.536   5.827
  107CHL1   C2114156   3.924   6.474   5.786
  107CHL1  H21A14157   3.866   6.381   5.767
  107CHL1  H21B14158   3.903   6.545   5.703
  107CHL1  H21C14159   3.886   6.522   5.879
  107CHL1   C2214160   4.134   6.405   5.659
  107CHL1  H22A14161   4.243   6.386   5.669
  107CHL1  H22B14162   4.087   6.311   5.622
  107CHL1   C2314163   4.119   6.515   5.552
  107CHL1  H23A14164   4.012   6.521   5.519
  107CHL1  H23B14165   4.147   6.613   5.596
  107CHL1   C2414166   4.208   6.489   5.429
  107CHL1  H24A14167   4.313   6.482   5.464
  107CHL1  H24B14168   4.180   6.392   5.383
  107CHL1   C2514169   4.201   6.599   5.320
  107CHL1   H2514170   4.218   6.697   5.370
  107CHL1   C2614171   4.312   6.578   5.216
  107CHL1  H26A14172   4.310   6.659   5.140
  107CHL1  H26B14173   4.412   6.578   5.265
  107CHL1  H26C14174   4.299   6.481   5.164
  107CHL1   C2714175   4.064   6.603   5.251
  107CHL1  H27A14176   4.063   6.681   5.172
  107CHL1  H27B14177   4.042   6.505   5.202
  107CHL1  H27C14178   3.983   6.625   5.323
  108CHL1    C314179   6.078   2.510   6.789
  108CHL1    H314180   5.991   2.450   6.753
  108CHL1    O314181   6.080   2.508   6.931
  108CHL1   H3'14182   6.006   2.564   6.957
  108CHL1    C414183   6.208   2.448   6.735
  108CHL1   H4A14184   6.294   2.503   6.778
  108CHL1   H4B14185   6.214   2.344   6.772
  108CHL1    C514186   6.213   2.453   6.583
  108CHL1    C614187   6.229   2.341   6.511
  108CHL1    H614188   6.243   2.245   6.564
  108CHL1    C714189   6.240   2.338   6.362
  108CHL1   H7A14190   6.324   2.274   6.330
  108CHL1   H7B14191   6.147   2.294   6.319
  108CHL1    C814192   6.259   2.479   6.300
  108CHL1    H814193   6.365   2.509   6.316
  108CHL1   C1414194   6.229   2.475   6.151
  108CHL1   H1414195   6.121   2.448   6.143
  108CHL1   C1514196   6.303   2.370   6.067
  108CHL1  H15A14197   6.411   2.370   6.093
  108CHL1  H15B14198   6.262   2.268   6.081
  108CHL1   C1614199   6.284   2.420   5.923
  108CHL1  H16A14200   6.384   2.428   5.875
  108CHL1  H16B14201   6.220   2.352   5.863
  108CHL1   C1714202   6.218   2.561   5.932
  108CHL1   H1714203   6.108   2.545   5.925
  108CHL1   C1314204   6.243   2.608   6.078
  108CHL1   C1814205   6.388   2.662   6.088
  108CHL1  H18A14206   6.396   2.760   6.037
  108CHL1  H18B14207   6.418   2.677   6.194
  108CHL1  H18C14208   6.461   2.592   6.041
  108CHL1   C1214209   6.141   2.705   6.140
  108CHL1  H12A14210   6.149   2.806   6.095
  108CHL1  H12B14211   6.038   2.667   6.121
  108CHL1   C1114212   6.163   2.718   6.292
  108CHL1  H11A14213   6.258   2.774   6.308
  108CHL1  H11B14214   6.080   2.781   6.333
  108CHL1    C914215   6.167   2.582   6.367
  108CHL1    H914216   6.064   2.540   6.355
  108CHL1   C1014217   6.190   2.592   6.520
  108CHL1   C1914218   6.317   2.678   6.547
  108CHL1  H19A14219   6.405   2.637   6.493
  108CHL1  H19B14220   6.300   2.783   6.515
  108CHL1  H19C14221   6.341   2.681   6.656
  108CHL1    C114222   6.066   2.659   6.586
  108CHL1   H1A14223   6.060   2.765   6.553
  108CHL1   H1B14224   5.975   2.608   6.548
  108CHL1    C214225   6.064   2.654   6.739
  108CHL1   H2A14226   5.969   2.699   6.775
  108CHL1   H2B14227   6.148   2.715   6.780
  108CHL1   C2014228   6.258   2.653   5.816
  108CHL1   H2014229   6.366   2.679   5.826
  108CHL1   C2114230   6.178   2.785   5.820
  108CHL1  H21A14231   6.213   2.850   5.903
  108CHL1  H21B14232   6.070   2.764   5.833
  108CHL1  H21C14233   6.192   2.841   5.725
  108CHL1   C2214234   6.244   2.586   5.677
  108CHL1  H22A14235   6.285   2.656   5.601
  108CHL1  H22B14236   6.307   2.494   5.673
  108CHL1   C2314237   6.100   2.550   5.636
  108CHL1  H23A14238   6.049   2.498   5.719
  108CHL1  H23B14239   6.044   2.644   5.614
  108CHL1   C2414240   6.097   2.460   5.512
  108CHL1  H24A14241   6.166   2.501   5.436
  108CHL1  H24B14242   6.133   2.358   5.540
  108CHL1   C2514243   5.958   2.447   5.446
  108CHL1   H2514244   5.929   2.548   5.410
  108CHL1   C2614245   5.964   2.353   5.325
  108CHL1  H26A14246   5.995   2.251   5.357
  108CHL1  H26B14247   5.865   2.346   5.275
  108CHL1  H26C14248   6.038   2.390   5.251
  108CHL1   C2714249   5.849   2.400   5.544
  108CHL1  H27A14250   5.837   2.472   5.628
  108CHL1  H27B14251   5.751   2.390   5.492
  108CHL1  H27C14252   5.876   2.300   5.587
  109CHL1    C314253   2.786   6.360   6.700
  109CHL1    H314254   2.888   6.383   6.663
  109CHL1    O314255   2.781   6.384   6.840
  109CHL1   H3'14256   2.788   6.297   6.879
  109CHL1    C414257   2.683   6.449   6.629
  109CHL1   H4A14258   2.583   6.431   6.675
  109CHL1   H4B14259   2.708   6.555   6.651
  109CHL1    C514260   2.678   6.421   6.480
  109CHL1    C614261   2.700   6.518   6.391
  109CHL1    H614262   2.718   6.621   6.426
  109CHL1    C714263   2.697   6.498   6.242
  109CHL1   H7A14264   2.646   6.583   6.193
  109CHL1   H7B14265   2.800   6.494   6.202
  109CHL1    C814266   2.624   6.367   6.203
  109CHL1    H814267   2.516   6.383   6.222
  109CHL1   C1414268   2.647   6.336   6.056
  109CHL1   H1414269   2.755   6.314   6.045
  109CHL1   C1514270   2.620   6.450   5.955
  109CHL1  H15A14271   2.528   6.504   5.984
  109CHL1  H15B14272   2.705   6.521   5.951
  109CHL1   C1614273   2.598   6.377   5.823
  109CHL1  H16A14274   2.496   6.402   5.787
  109CHL1  H16B14275   2.671   6.407   5.745
  109CHL1   C1714276   2.604   6.224   5.852
  109CHL1   H1714277   2.710   6.194   5.839
  109CHL1   C1314278   2.573   6.213   6.004
  109CHL1   C1814279   2.420   6.227   6.024
  109CHL1  H18A14280   2.368   6.136   5.987
  109CHL1  H18B14281   2.393   6.239   6.131
  109CHL1  H18C14282   2.380   6.315   5.969
  109CHL1   C1214283   2.629   6.092   6.082
  109CHL1  H12A14284   2.574   6.000   6.054
  109CHL1  H12B14285   2.736   6.079   6.055
  109CHL1   C1114286   2.617   6.112   6.235
  109CHL1  H11A14287   2.509   6.103   6.258
  109CHL1  H11B14288   2.670   6.029   6.286
  109CHL1    C914289   2.673   6.249   6.288
  109CHL1    H914290   2.782   6.244   6.270
  109CHL1   C1014291   2.655   6.273   6.441
  109CHL1   C1914292   2.509   6.235   6.480
  109CHL1  H19A14293   2.493   6.126   6.470
  109CHL1  H19B14294   2.487   6.260   6.586
  109CHL1  H19C14295   2.436   6.289   6.416
  109CHL1    C114296   2.757   6.186   6.520
  109CHL1   H1A14297   2.735   6.079   6.501
  109CHL1   H1B14298   2.858   6.206   6.480
  109CHL1    C214299   2.758   6.211   6.672
  109CHL1   H2A14300   2.837   6.149   6.719
  109CHL1   H2B14301   2.660   6.182   6.716
  109CHL1   C2014302   2.520   6.142   5.753
  109CHL1   H2014303   2.412   6.151   5.779
  109CHL1   C2114304   2.558   5.993   5.761
  109CHL1  H21A14305   2.529   5.949   5.859
  109CHL1  H21B14306   2.667   5.981   5.746
  109CHL1  H21C14307   2.506   5.935   5.681
  109CHL1   C2214308   2.529   6.191   5.605
  109CHL1  H22A14309   2.466   6.125   5.542
  109CHL1  H22B14310   2.485   6.293   5.598
  109CHL1   C2314311   2.670   6.195   5.544
  109CHL1  H23A14312   2.740   6.250   5.612
  109CHL1  H23B14313   2.708   6.092   5.533
  109CHL1   C2414314   2.671   6.265   5.407
  109CHL1  H24A14315   2.607   6.208   5.337
  109CHL1  H24B14316   2.627   6.366   5.419
  109CHL1   C2514317   2.812   6.281   5.345
  109CHL1   H2514318   2.877   6.330   5.421
  109CHL1   C2614319   2.874   6.146   5.308
  109CHL1  H26A14320   2.809   6.093   5.235
  109CHL1  H26B14321   2.973   6.162   5.261
  109CHL1  H26C14322   2.887   6.082   5.398
  109CHL1   C2714323   2.807   6.373   5.222
  109CHL1  H27A14324   2.909   6.388   5.180
  109CHL1  H27B14325   2.743   6.327   5.142
  109CHL1  H27C14326   2.764   6.472   5.248
  110CHL1    C314327   1.236   5.361   6.706
  110CHL1    H314328   1.320   5.432   6.688
  110CHL1    O314329   1.211   5.356   6.846
  110CHL1   H3'14330   1.228   5.266   6.873
  110CHL1    C414331   1.111   5.409   6.632
  110CHL1   H4A14332   1.028   5.339   6.654
  110CHL1   H4B14333   1.081   5.508   6.673
  110CHL1    C514334   1.134   5.415   6.482
  110CHL1    C614335   1.120   5.529   6.415
  110CHL1    H614336   1.087   5.620   6.468
  110CHL1    C714337   1.140   5.541   6.267
  110CHL1   H7A14338   1.059   5.602   6.221
  110CHL1   H7B14339   1.236   5.594   6.249
  110CHL1    C814340   1.153   5.408   6.191
  110CHL1    H814341   1.052   5.367   6.176
  110CHL1   C1414342   1.221   5.436   6.058
  110CHL1   H1414343   1.325   5.467   6.082
  110CHL1   C1514344   1.165   5.551   5.972
  110CHL1  H15A14345   1.055   5.543   5.965
  110CHL1  H15B14346   1.192   5.651   6.013
  110CHL1   C1614347   1.230   5.527   5.836
  110CHL1  H16A14348   1.153   5.537   5.757
  110CHL1  H16B14349   1.310   5.602   5.816
  110CHL1   C1714350   1.292   5.384   5.839
  110CHL1   H1714351   1.401   5.397   5.857
  110CHL1   C1314352   1.235   5.315   5.966
  110CHL1   C1814353   1.097   5.254   5.933
  110CHL1  H18A14354   1.108   5.165   5.868
  110CHL1  H18B14355   1.044   5.221   6.025
  110CHL1  H18C14356   1.032   5.328   5.880
  110CHL1   C1214357   1.324   5.214   6.042
  110CHL1  H12A14358   1.331   5.120   5.984
  110CHL1  H12B14359   1.426   5.257   6.051
  110CHL1   C1114360   1.270   5.182   6.184
  110CHL1  H11A14361   1.176   5.123   6.170
  110CHL1  H11B14362   1.343   5.118   6.237
  110CHL1    C914363   1.239   5.309   6.269
  110CHL1    H914364   1.337   5.360   6.282
  110CHL1   C1014365   1.185   5.286   6.414
  110CHL1   C1914366   1.064   5.190   6.407
  110CHL1  H19A14367   1.023   5.169   6.508
  110CHL1  H19B14368   0.983   5.232   6.344
  110CHL1  H19C14369   1.096   5.093   6.363
  110CHL1    C114370   1.300   5.227   6.501
  110CHL1   H1A14371   1.324   5.125   6.465
  110CHL1   H1B14372   1.390   5.290   6.485
  110CHL1    C214373   1.273   5.223   6.654
  110CHL1   H2A14374   1.363   5.185   6.707
  110CHL1   H2B14375   1.189   5.153   6.675
  110CHL1   C2014376   1.277   5.315   5.702
  110CHL1   H2014377   1.169   5.300   5.681
  110CHL1   C2114378   1.347   5.178   5.702
  110CHL1  H21A14379   1.299   5.109   5.774
  110CHL1  H21B14380   1.454   5.189   5.728
  110CHL1  H21C14381   1.340   5.131   5.602
  110CHL1   C2214382   1.333   5.402   5.586
  110CHL1  H22A14383   1.293   5.505   5.593
  110CHL1  H22B14384   1.444   5.410   5.595
  110CHL1   C2314385   1.296   5.351   5.446
  110CHL1  H23A14386   1.358   5.263   5.420
  110CHL1  H23B14387   1.190   5.320   5.447
  110CHL1   C2414388   1.313   5.461   5.340
  110CHL1  H24A14389   1.251   5.548   5.371
  110CHL1  H24B14390   1.418   5.494   5.336
  110CHL1   C2514391   1.267   5.418   5.199
  110CHL1   H2514392   1.170   5.365   5.208
  110CHL1   C2614393   1.244   5.542   5.111
  110CHL1  H26A14394   1.167   5.608   5.155
  110CHL1  H26B14395   1.339   5.600   5.101
  110CHL1  H26C14396   1.211   5.511   5.009
  110CHL1   C2714397   1.368   5.324   5.133
  110CHL1  H27A14398   1.467   5.374   5.123
  110CHL1  H27B14399   1.381   5.231   5.193
  110CHL1  H27C14400   1.334   5.296   5.031
  111CHL1    C314401   3.241   0.608   6.869
  111CHL1    H314402   3.211   0.503   6.890
  111CHL1    O314403   3.233   0.682   6.990
  111CHL1   H3'14404   3.141   0.675   7.018
  111CHL1    C414405   3.385   0.612   6.818
  111CHL1   H4A14406   3.416   0.719   6.808
  111CHL1   H4B14407   3.451   0.568   6.896
  111CHL1    C514408   3.400   0.541   6.685
  111CHL1    C614409   3.486   0.440   6.669
  111CHL1    H614410   3.551   0.410   6.753
  111CHL1    C714411   3.508   0.368   6.539
  111CHL1   H7A14412   3.617   0.356   6.519
  111CHL1   H7B14413   3.464   0.266   6.544
  111CHL1    C814414   3.445   0.444   6.419
  111CHL1    H814415   3.510   0.531   6.396
  111CHL1   C1414416   3.439   0.352   6.297
  111CHL1   H1414417   3.370   0.269   6.324
  111CHL1   C1514418   3.569   0.284   6.254
  111CHL1  H15A14419   3.652   0.358   6.253
  111CHL1  H15B14420   3.596   0.200   6.322
  111CHL1   C1614421   3.539   0.236   6.112
  111CHL1  H16A14422   3.621   0.267   6.044
  111CHL1  H16B14423   3.530   0.125   6.108
  111CHL1   C1714424   3.404   0.302   6.069
  111CHL1   H1714425   3.324   0.227   6.087
  111CHL1   C1314426   3.381   0.416   6.171
  111CHL1   C1814427   3.464   0.540   6.129
  111CHL1  H18A14428   3.422   0.586   6.037
  111CHL1  H18B14429   3.463   0.618   6.208
  111CHL1  H18C14430   3.570   0.512   6.110
  111CHL1   C1214431   3.235   0.454   6.205
  111CHL1  H12A14432   3.186   0.505   6.119
  111CHL1  H12B14433   3.179   0.360   6.226
  111CHL1   C1114434   3.227   0.546   6.327
  111CHL1  H11A14435   3.268   0.645   6.296
  111CHL1  H11B14436   3.120   0.562   6.353
  111CHL1    C914437   3.304   0.493   6.452
  111CHL1    H914438   3.248   0.402   6.483
  111CHL1   C1014439   3.302   0.589   6.575
  111CHL1   C1914440   3.348   0.730   6.530
  111CHL1  H19A14441   3.447   0.726   6.480
  111CHL1  H19B14442   3.274   0.775   6.460
  111CHL1  H19C14443   3.356   0.800   6.616
  111CHL1    C114444   3.157   0.596   6.632
  111CHL1   H1A14445   3.091   0.646   6.557
  111CHL1   H1B14446   3.119   0.492   6.645
  111CHL1    C214447   3.145   0.669   6.766
  111CHL1   H2A14448   3.040   0.663   6.803
  111CHL1   H2B14449   3.170   0.776   6.752
  111CHL1   C2014450   3.402   0.334   5.918
  111CHL1   H2014451   3.483   0.407   5.896
  111CHL1   C2114452   3.267   0.397   5.877
  111CHL1  H21A14453   3.184   0.329   5.906
  111CHL1  H21B14454   3.262   0.412   5.767
  111CHL1  H21C14455   3.253   0.496   5.924
  111CHL1   C2214456   3.429   0.209   5.830
  111CHL1  H22A14457   3.513   0.149   5.871
  111CHL1  H22B14458   3.339   0.145   5.828
  111CHL1   C2314459   3.469   0.246   5.686
  111CHL1  H23A14460   3.390   0.307   5.638
  111CHL1  H23B14461   3.562   0.307   5.690
  111CHL1   C2414462   3.496   0.123   5.597
  111CHL1  H24A14463   3.567   0.056   5.649
  111CHL1  H24B14464   3.402   0.067   5.581
  111CHL1   C2514465   3.557   0.161   5.460
  111CHL1   H2514466   3.646   0.225   5.479
  111CHL1   C2614467   3.605   0.036   5.385
  111CHL1  H26A14468   3.681  -0.018   5.446
  111CHL1  H26B14469   3.520  -0.033   5.366
  111CHL1  H26C14470   3.651   0.063   5.288
  111CHL1   C2714471   3.459   0.241   5.373
  111CHL1  H27A14472   3.505   0.265   5.275
  111CHL1  H27B14473   3.366   0.182   5.355
  111CHL1  H27C14474   3.431   0.336   5.422
  112CHL1    C314475   4.667   0.714   6.826
  112CHL1    H314476   4.668   0.603   6.828
  112CHL1    O314477   4.671   0.765   6.958
  112CHL1   H3'14478   4.584   0.803   6.968
  112CHL1    C414479   4.790   0.765   6.747
  112CHL1   H4A14480   4.802   0.873   6.768
  112CHL1   H4B14481   4.879   0.715   6.789
  112CHL1    C514482   4.780   0.743   6.597
  112CHL1    C614483   4.877   0.683   6.526
  112CHL1    H614484   4.969   0.649   6.577
  112CHL1    C714485   4.875   0.669   6.376
  112CHL1   H7A14486   4.974   0.693   6.333
  112CHL1   H7B14487   4.851   0.564   6.349
  112CHL1    C814488   4.769   0.762   6.310
  112CHL1    H814489   4.807   0.867   6.317
  112CHL1   C1414490   4.748   0.726   6.163
  112CHL1   H1414491   4.710   0.622   6.163
  112CHL1   C1514492   4.872   0.724   6.072
  112CHL1  H15A14493   4.934   0.814   6.090
  112CHL1  H15B14494   4.934   0.633   6.088
  112CHL1   C1614495   4.812   0.729   5.930
  112CHL1  H16A14496   4.860   0.812   5.874
  112CHL1  H16B14497   4.829   0.634   5.875
  112CHL1   C1714498   4.659   0.755   5.946
  112CHL1   H1714499   4.610   0.655   5.946
  112CHL1   C1314500   4.643   0.809   6.090
  112CHL1   C1814501   4.681   0.960   6.090
  112CHL1  H18A14502   4.695   0.999   6.193
  112CHL1  H18B14503   4.775   0.978   6.033
  112CHL1  H18C14504   4.600   1.019   6.042
  112CHL1   C1214505   4.509   0.784   6.161
  112CHL1  H12A14506   4.425   0.842   6.116
  112CHL1  H12B14507   4.483   0.676   6.153
  112CHL1   C1114508   4.518   0.822   6.310
  112CHL1  H11A14509   4.528   0.933   6.314
  112CHL1  H11B14510   4.422   0.796   6.359
  112CHL1    C914511   4.635   0.752   6.385
  112CHL1    H914512   4.610   0.644   6.383
  112CHL1   C1014513   4.648   0.792   6.534
  112CHL1   C1914514   4.646   0.946   6.545
  112CHL1  H19A14515   4.544   0.983   6.517
  112CHL1  H19B14516   4.665   0.983   6.648
  112CHL1  H19C14517   4.720   0.992   6.476
  112CHL1    C114518   4.530   0.730   6.614
  112CHL1   H1A14519   4.434   0.769   6.574
  112CHL1   H1B14520   4.529   0.620   6.599
  112CHL1    C214521   4.534   0.761   6.764
  112CHL1   H2A14522   4.449   0.709   6.814
  112CHL1   H2B14523   4.521   0.870   6.779
  112CHL1   C2014524   4.600   0.834   5.828
  112CHL1   H2014525   4.644   0.935   5.827
  112CHL1   C2114526   4.447   0.850   5.845
  112CHL1  H21A14527   4.398   0.751   5.859
  112CHL1  H21B14528   4.402   0.899   5.756
  112CHL1  H21C14529   4.423   0.916   5.931
  112CHL1   C2214530   4.634   0.767   5.692
  112CHL1  H22A14531   4.744   0.772   5.677
  112CHL1  H22B14532   4.605   0.660   5.694
  112CHL1   C2314533   4.568   0.834   5.570
  112CHL1  H23A14534   4.459   0.810   5.572
  112CHL1  H23B14535   4.578   0.944   5.578
  112CHL1   C2414536   4.627   0.788   5.436
  112CHL1  H24A14537   4.733   0.821   5.432
  112CHL1  H24B14538   4.626   0.677   5.430
  112CHL1   C2514539   4.552   0.845   5.314
  112CHL1   H2514540   4.536   0.954   5.331
  112CHL1   C2614541   4.634   0.828   5.186
  112CHL1  H26A14542   4.657   0.721   5.169
  112CHL1  H26B14543   4.579   0.868   5.098
  112CHL1  H26C14544   4.730   0.884   5.196
  112CHL1   C2714545   4.416   0.778   5.295
  112CHL1  H27A14546   4.361   0.824   5.210
  112CHL1  H27B14547   4.430   0.670   5.274
  112CHL1  H27C14548   4.353   0.788   5.387
  113CHL1    C314549   0.498   4.946   6.696
  113CHL1    H314550   0.457   4.845   6.675
  113CHL1    O314551   0.489   4.970   6.836
  113CHL1   H3'14552   0.395   4.957   6.854
  113CHL1    C414553   0.644   4.953   6.648
  113CHL1   H4A14554   0.687   5.051   6.678
  113CHL1   H4B14555   0.701   4.876   6.704
  113CHL1    C514556   0.654   4.932   6.499
  113CHL1    C614557   0.722   4.830   6.445
  113CHL1    H614558   0.776   4.760   6.510
  113CHL1    C714559   0.738   4.809   6.297
  113CHL1   H7A14560   0.842   4.781   6.271
  113CHL1   H7B14561   0.672   4.725   6.264
  113CHL1    C814562   0.699   4.935   6.215
  113CHL1    H814563   0.780   5.010   6.230
  113CHL1   C1414564   0.688   4.902   6.067
  113CHL1   H1414565   0.604   4.829   6.057
  113CHL1   C1514566   0.808   4.834   6.000
  113CHL1  H15A14567   0.902   4.884   6.033
  113CHL1  H15B14568   0.813   4.726   6.023
  113CHL1   C1614569   0.786   4.860   5.850
  113CHL1  H16A14570   0.878   4.907   5.808
  113CHL1  H16B14571   0.765   4.766   5.795
  113CHL1   C1714572   0.665   4.959   5.837
  113CHL1   H1714573   0.575   4.896   5.821
  113CHL1   C1314574   0.651   5.020   5.978
  113CHL1   C1814575   0.757   5.132   5.991
  113CHL1  H18A14576   0.729   5.218   5.927
  113CHL1  H18B14577   0.765   5.171   6.095
  113CHL1  H18C14578   0.857   5.097   5.960
  113CHL1   C1214579   0.510   5.067   6.021
  113CHL1  H12A14580   0.476   5.154   5.962
  113CHL1  H12B14581   0.438   4.984   6.004
  113CHL1   C1114582   0.509   5.105   6.171
  113CHL1  H11A14583   0.569   5.198   6.180
  113CHL1  H11B14584   0.405   5.129   6.201
  113CHL1    C914585   0.566   4.994   6.264
  113CHL1    H914586   0.494   4.910   6.256
  113CHL1   C1014587   0.572   5.032   6.415
  113CHL1   C1914588   0.636   5.172   6.429
  113CHL1  H19A14589   0.570   5.250   6.384
  113CHL1  H19B14590   0.650   5.202   6.535
  113CHL1  H19C14591   0.735   5.176   6.378
  113CHL1    C114592   0.426   5.032   6.470
  113CHL1   H1A14593   0.367   5.111   6.419
  113CHL1   H1B14594   0.381   4.934   6.445
  113CHL1    C214595   0.415   5.051   6.623
  113CHL1   H2A14596   0.308   5.045   6.653
  113CHL1   H2B14597   0.454   5.151   6.649
  113CHL1   C2014598   0.679   5.053   5.716
  113CHL1   H2014599   0.765   5.122   5.733
  113CHL1   C2114600   0.553   5.140   5.698
  113CHL1  H21A14601   0.557   5.194   5.601
  113CHL1  H21B14602   0.545   5.216   5.778
  113CHL1  H21C14603   0.461   5.076   5.699
  113CHL1   C2214604   0.711   4.981   5.583
  113CHL1  H22A14605   0.708   5.058   5.502
  113CHL1  H22B14606   0.816   4.942   5.585
  113CHL1   C2314607   0.617   4.865   5.546
  113CHL1  H23A14608   0.642   4.778   5.611
  113CHL1  H23B14609   0.512   4.893   5.567
  113CHL1   C2414610   0.628   4.822   5.399
  113CHL1  H24A14611   0.734   4.809   5.370
  113CHL1  H24B14612   0.579   4.723   5.389
  113CHL1   C2514613   0.557   4.919   5.302
  113CHL1   H2514614   0.498   4.991   5.363
  113CHL1   C2614615   0.656   4.999   5.216
  113CHL1  H26A14616   0.712   4.931   5.148
  113CHL1  H26B14617   0.602   5.073   5.154
  113CHL1  H26C14618   0.729   5.053   5.280
  113CHL1   C2714619   0.459   4.843   5.212
  113CHL1  H27A14620   0.405   4.915   5.147
  113CHL1  H27B14621   0.512   4.770   5.148
  113CHL1  H27C14622   0.384   4.788   5.274
  114CHL1    C314623   5.401   7.183   6.733
  114CHL1    H314624   5.506   7.216   6.725
  114CHL1    O314625   5.370   7.159   6.869
  114CHL1   H3'14626   5.277   7.136   6.869
  114CHL1    C414627   5.308   7.294   6.679
  114CHL1   H4A14628   5.203   7.265   6.701
  114CHL1   H4B14629   5.328   7.386   6.737
  114CHL1    C514630   5.323   7.317   6.530
  114CHL1    C614631   5.347   7.438   6.478
  114CHL1    H614632   5.353   7.526   6.545
  114CHL1    C714633   5.356   7.467   6.331
  114CHL1   H7A14634   5.297   7.557   6.305
  114CHL1   H7B14635   5.462   7.488   6.303
  114CHL1    C814636   5.305   7.349   6.243
  114CHL1    H814637   5.194   7.350   6.246
  114CHL1   C1414638   5.352   7.367   6.099
  114CHL1   H1414639   5.463   7.363   6.102
  114CHL1   C1514640   5.319   7.500   6.029
  114CHL1  H15A14641   5.212   7.526   6.046
  114CHL1  H15B14642   5.383   7.583   6.065
  114CHL1   C1614643   5.342   7.469   5.880
  114CHL1  H16A14644   5.252   7.500   5.822
  114CHL1  H16B14645   5.431   7.522   5.840
  114CHL1   C1714646   5.363   7.314   5.868
  114CHL1   H1714647   5.473   7.297   5.869
  114CHL1   C1314648   5.310   7.256   6.001
  114CHL1   C1814649   5.156   7.247   5.991
  114CHL1  H18A14650   5.113   7.340   5.947
  114CHL1  H18B14651   5.129   7.163   5.924
  114CHL1  H18C14652   5.109   7.229   6.090
  114CHL1   C1214653   5.372   7.125   6.053
  114CHL1  H12A14654   5.341   7.038   5.990
  114CHL1  H12B14655   5.482   7.132   6.049
  114CHL1   C1114656   5.329   7.096   6.198
  114CHL1  H11A14657   5.220   7.073   6.196
  114CHL1  H11B14658   5.382   7.005   6.233
  114CHL1    C914659   5.357   7.215   6.296
  114CHL1    H914660   5.467   7.225   6.298
  114CHL1   C1014661   5.313   7.189   6.443
  114CHL1   C1914662   5.166   7.143   6.445
  114CHL1  H19A14663   5.100   7.215   6.392
  114CHL1  H19B14664   5.156   7.044   6.396
  114CHL1  H19C14665   5.126   7.131   6.548
  114CHL1    C114666   5.403   7.078   6.504
  114CHL1   H1A14667   5.384   6.983   6.450
  114CHL1   H1B14668   5.510   7.105   6.487
  114CHL1    C214669   5.383   7.053   6.654
  114CHL1   H2A14670   5.455   6.977   6.690
  114CHL1   H2B14671   5.280   7.013   6.671
  114CHL1   C2014672   5.312   7.259   5.733
  114CHL1   H2014673   5.203   7.276   5.725
  114CHL1   C2114674   5.339   7.108   5.723
  114CHL1  H21A14675   5.313   7.069   5.622
  114CHL1  H21B14676   5.276   7.052   5.795
  114CHL1  H21C14677   5.446   7.085   5.744
  114CHL1   C2214678   5.379   7.336   5.615
  114CHL1  H22A14679   5.352   7.443   5.621
  114CHL1  H22B14680   5.489   7.328   5.625
  114CHL1   C2314681   5.342   7.290   5.472
  114CHL1  H23A14682   5.399   7.353   5.401
  114CHL1  H23B14683   5.377   7.185   5.455
  114CHL1   C2414684   5.192   7.302   5.440
  114CHL1  H24A14685   5.137   7.227   5.501
  114CHL1  H24B14686   5.157   7.403   5.470
  114CHL1   C2514687   5.156   7.281   5.291
  114CHL1   H2514688   5.045   7.282   5.284
  114CHL1   C2614689   5.208   7.395   5.202
  114CHL1  H26A14690   5.174   7.493   5.241
  114CHL1  H26B14691   5.319   7.394   5.199
  114CHL1  H26C14692   5.170   7.383   5.098
  114CHL1   C2714693   5.202   7.144   5.238
  114CHL1  H27A14694   5.170   7.132   5.132
  114CHL1  H27B14695   5.313   7.135   5.242
  114CHL1  H27C14696   5.158   7.062   5.298
  115CHL1    C314697   1.793   0.714   6.760
  115CHL1    H314698   1.696   0.694   6.710
  115CHL1    O314699   1.772   0.723   6.900
  115CHL1   H3'14700   1.765   0.818   6.916
  115CHL1    C414701   1.891   0.599   6.728
  115CHL1   H4A14702   1.983   0.614   6.788
  115CHL1   H4B14703   1.845   0.504   6.762
  115CHL1    C514704   1.929   0.593   6.581
  115CHL1    C614705   1.915   0.482   6.507
  115CHL1    H614706   1.878   0.390   6.554
  115CHL1    C714707   1.954   0.472   6.362
  115CHL1   H7A14708   2.010   0.378   6.341
  115CHL1   H7B14709   1.861   0.470   6.302
  115CHL1    C814710   2.039   0.592   6.310
  115CHL1    H814711   2.143   0.579   6.345
  115CHL1   C1414712   2.036   0.596   6.157
  115CHL1   H1414713   1.929   0.611   6.130
  115CHL1   C1514714   2.080   0.471   6.079
  115CHL1  H15A14715   2.177   0.435   6.119
  115CHL1  H15B14716   2.006   0.389   6.083
  115CHL1   C1614717   2.099   0.524   5.936
  115CHL1  H16A14718   2.199   0.494   5.898
  115CHL1  H16B14719   2.021   0.485   5.867
  115CHL1   C1714720   2.088   0.680   5.944
  115CHL1   H1714721   1.981   0.705   5.923
  115CHL1   C1314722   2.110   0.714   6.093
  115CHL1   C1814723   2.261   0.707   6.124
  115CHL1  H18A14724   2.309   0.616   6.081
  115CHL1  H18B14725   2.313   0.796   6.082
  115CHL1  H18C14726   2.280   0.706   6.234
  115CHL1   C1214727   2.047   0.844   6.146
  115CHL1  H12A14728   2.101   0.933   6.108
  115CHL1  H12B14729   1.941   0.850   6.112
  115CHL1   C1114730   2.049   0.848   6.300
  115CHL1  H11A14731   2.155   0.856   6.333
  115CHL1  H11B14732   1.997   0.941   6.333
  115CHL1    C914733   1.983   0.723   6.365
  115CHL1    H914734   1.877   0.726   6.331
  115CHL1   C1014735   1.976   0.727   6.520
  115CHL1   C1914736   2.118   0.753   6.576
  115CHL1  H19A14737   2.121   0.749   6.687
  115CHL1  H19B14738   2.192   0.681   6.536
  115CHL1  H19C14739   2.150   0.856   6.547
  115CHL1    C114740   1.880   0.841   6.562
  115CHL1   H1A14741   1.923   0.939   6.532
  115CHL1   H1B14742   1.784   0.829   6.507
  115CHL1    C214743   1.849   0.847   6.712
  115CHL1   H2A14744   1.776   0.929   6.730
  115CHL1   H2B14745   1.942   0.872   6.768
  115CHL1   C2014746   2.173   0.751   5.838
  115CHL1   H2014747   2.280   0.728   5.857
  115CHL1   C2114748   2.156   0.904   5.845
  115CHL1  H21A14749   2.049   0.932   5.853
  115CHL1  H21B14750   2.198   0.952   5.754
  115CHL1  H21C14751   2.211   0.946   5.933
  115CHL1   C2214752   2.145   0.704   5.692
  115CHL1  H22A14753   2.211   0.763   5.625
  115CHL1  H22B14754   2.173   0.598   5.681
  115CHL1   C2314755   2.000   0.722   5.644
  115CHL1  H23A14756   1.934   0.648   5.695
  115CHL1  H23B14757   1.963   0.824   5.671
  115CHL1   C2414758   1.987   0.706   5.492
  115CHL1  H24A14759   2.037   0.792   5.442
  115CHL1  H24B14760   2.040   0.613   5.461
  115CHL1   C2514761   1.842   0.697   5.439
  115CHL1   H2514762   1.798   0.603   5.479
  115CHL1   C2614763   1.754   0.814   5.487
  115CHL1  H26A14764   1.653   0.803   5.443
  115CHL1  H26B14765   1.745   0.814   5.597
  115CHL1  H26C14766   1.797   0.910   5.454
  115CHL1   C2714767   1.841   0.689   5.286
  115CHL1  H27A14768   1.884   0.782   5.242
  115CHL1  H27B14769   1.900   0.602   5.250
  115CHL1  H27C14770   1.737   0.679   5.248
  116CHL1    C314771   2.620   0.342   6.726
  116CHL1    H314772   2.580   0.245   6.690
  116CHL1    O314773   2.612   0.345   6.868
  116CHL1   H3'14774   2.674   0.413   6.894
  116CHL1    C414775   2.766   0.358   6.684
  116CHL1   H4A14776   2.806   0.453   6.726
  116CHL1   H4B14777   2.824   0.276   6.730
  116CHL1    C514778   2.781   0.360   6.533
  116CHL1    C614779   2.861   0.273   6.470
  116CHL1    H614780   2.918   0.200   6.529
  116CHL1    C714781   2.883   0.270   6.321
  116CHL1   H7A14782   2.992   0.265   6.299
  116CHL1   H7B14783   2.837   0.179   6.279
  116CHL1    C814784   2.823   0.394   6.248
  116CHL1    H814785   2.893   0.478   6.261
  116CHL1   C1414786   2.808   0.362   6.101
  116CHL1   H1414787   2.734   0.280   6.094
  116CHL1   C1514788   2.932   0.311   6.029
  116CHL1  H15A14789   3.019   0.376   6.053
  116CHL1  H15B14790   2.957   0.206   6.055
  116CHL1   C1614791   2.896   0.326   5.881
  116CHL1  H16A14792   2.978   0.379   5.828
  116CHL1  H16B14793   2.880   0.227   5.834
  116CHL1   C1714794   2.763   0.409   5.874
  116CHL1   H1714795   2.680   0.336   5.867
  116CHL1   C1314796   2.751   0.475   6.014
  116CHL1   C1814797   2.843   0.600   6.019
  116CHL1  H18A14798   2.854   0.638   6.123
  116CHL1  H18B14799   2.944   0.577   5.979
  116CHL1  H18C14800   2.799   0.681   5.958
  116CHL1   C1214801   2.610   0.505   6.068
  116CHL1  H12A14802   2.563   0.589   6.013
  116CHL1  H12B14803   2.546   0.415   6.053
  116CHL1   C1114804   2.613   0.539   6.219
  116CHL1  H11A14805   2.664   0.637   6.230
  116CHL1  H11B14806   2.509   0.552   6.255
  116CHL1    C914807   2.686   0.431   6.305
  116CHL1    H914808   2.624   0.340   6.295
  116CHL1   C1014809   2.692   0.462   6.458
  116CHL1   C1914810   2.758   0.600   6.479
  116CHL1  H19A14811   2.766   0.626   6.587
  116CHL1  H19B14812   2.859   0.605   6.435
  116CHL1  H19C14813   2.696   0.681   6.433
  116CHL1    C114814   2.547   0.460   6.515
  116CHL1   H1A14815   2.493   0.549   6.477
  116CHL1   H1B14816   2.495   0.370   6.475
  116CHL1    C214817   2.536   0.457   6.668
  116CHL1   H2A14818   2.430   0.445   6.698
  116CHL1   H2B14819   2.572   0.554   6.708
  116CHL1   C2014820   2.759   0.497   5.748
  116CHL1   H2014821   2.841   0.572   5.754
  116CHL1   C2114822   2.625   0.572   5.738
  116CHL1  H21A14823   2.618   0.627   5.642
  116CHL1  H21B14824   2.617   0.647   5.820
  116CHL1  H21C14825   2.539   0.501   5.744
  116CHL1   C2214826   2.782   0.415   5.618
  116CHL1  H22A14827   2.859   0.337   5.634
  116CHL1  H22B14828   2.689   0.363   5.589
  116CHL1   C2314829   2.835   0.500   5.501
  116CHL1  H23A14830   2.756   0.571   5.466
  116CHL1  H23B14831   2.921   0.559   5.537
  116CHL1   C2414832   2.880   0.411   5.383
  116CHL1  H24A14833   2.954   0.337   5.419
  116CHL1  H24B14834   2.792   0.355   5.346
  116CHL1   C2514835   2.942   0.489   5.265
  116CHL1   H2514836   2.871   0.569   5.236
  116CHL1   C2614837   3.077   0.554   5.303
  116CHL1  H26A14838   3.123   0.602   5.214
  116CHL1  H26B14839   3.063   0.631   5.382
  116CHL1  H26C14840   3.147   0.477   5.341
  116CHL1   C2714841   2.962   0.397   5.144
  116CHL1  H27A14842   2.869   0.338   5.125
  116CHL1  H27B14843   2.985   0.457   5.054
  116CHL1  H27C14844   3.045   0.326   5.163
  117CHL1    C314845   5.518   0.338   6.738
  117CHL1    H314846   5.623   0.316   6.708
  117CHL1    O314847   5.512   0.349   6.879
  117CHL1   H3'14848   5.566   0.425   6.903
  117CHL1    C414849   5.474   0.471   6.673
  117CHL1   H4A14850   5.375   0.498   6.714
  117CHL1   H4B14851   5.545   0.550   6.706
  117CHL1    C514852   5.466   0.462   6.522
  117CHL1    C614853   5.534   0.547   6.442
  117CHL1    H614854   5.595   0.626   6.487
  117CHL1    C714855   5.526   0.545   6.292
  117CHL1   H7A14856   5.511   0.648   6.253
  117CHL1   H7B14857   5.623   0.509   6.251
  117CHL1    C814858   5.412   0.455   6.237
  117CHL1    H814859   5.316   0.509   6.250
  117CHL1   C1414860   5.434   0.426   6.089
  117CHL1   H1414861   5.531   0.372   6.084
  117CHL1   C1514862   5.450   0.546   5.995
  117CHL1  H15A14863   5.371   0.622   6.016
  117CHL1  H15B14864   5.550   0.595   6.005
  117CHL1   C1614865   5.429   0.485   5.855
  117CHL1  H16A14866   5.349   0.543   5.803
  117CHL1  H16B14867   5.521   0.488   5.794
  117CHL1   C1714868   5.383   0.337   5.877
  117CHL1   H1714869   5.476   0.276   5.875
  117CHL1   C1314870   5.332   0.334   6.023
  117CHL1   C1814871   5.190   0.396   6.027
  117CHL1  H18A14872   5.185   0.491   5.970
  117CHL1  H18B14873   5.116   0.326   5.983
  117CHL1  H18C14874   5.158   0.418   6.131
  117CHL1   C1214875   5.337   0.199   6.098
  117CHL1  H12A14876   5.260   0.129   6.059
  117CHL1  H12B14877   5.437   0.153   6.083
  117CHL1   C1114878   5.311   0.218   6.249
  117CHL1  H11A14879   5.205   0.250   6.261
  117CHL1  H11B14880   5.322   0.120   6.299
  117CHL1    C914881   5.406   0.323   6.315
  117CHL1    H914882   5.508   0.279   6.304
  117CHL1   C1014883   5.383   0.343   6.467
  117CHL1   C1914884   5.233   0.375   6.493
  117CHL1  H19A14885   5.200   0.462   6.433
  117CHL1  H19B14886   5.170   0.288   6.467
  117CHL1  H19C14887   5.214   0.397   6.600
  117CHL1    C114888   5.423   0.212   6.541
  117CHL1   H1A14889   5.352   0.132   6.514
  117CHL1   H1B14890   5.524   0.181   6.506
  117CHL1    C214891   5.427   0.224   6.694
  117CHL1   H2A14892   5.462   0.128   6.738
  117CHL1   H2B14893   5.324   0.242   6.731
  117CHL1   C2014894   5.293   0.285   5.764
  117CHL1   H2014895   5.196   0.339   5.768
  117CHL1   C2114896   5.266   0.134   5.783
  117CHL1  H21A14897   5.361   0.080   5.803
  117CHL1  H21B14898   5.219   0.089   5.693
  117CHL1  H21C14899   5.195   0.117   5.867
  117CHL1   C2214900   5.353   0.311   5.623
  117CHL1  H22A14901   5.378   0.418   5.612
  117CHL1  H22B14902   5.448   0.253   5.614
  117CHL1   C2314903   5.262   0.276   5.503
  117CHL1  H23A14904   5.318   0.302   5.411
  117CHL1  H23B14905   5.242   0.167   5.499
  117CHL1   C2414906   5.128   0.352   5.503
  117CHL1  H24A14907   5.070   0.323   5.594
  117CHL1  H24B14908   5.148   0.461   5.509
  117CHL1   C2514909   5.039   0.324   5.381
  117CHL1   H2514910   5.026   0.214   5.372
  117CHL1   C2614911   4.900   0.386   5.401
  117CHL1  H26A14912   4.908   0.496   5.412
  117CHL1  H26B14913   4.835   0.364   5.314
  117CHL1  H26C14914   4.852   0.344   5.492
  117CHL1   C2714915   5.102   0.375   5.250
  117CHL1  H27A14916   5.195   0.319   5.227
  117CHL1  H27B14917   5.031   0.362   5.166
  117CHL1  H27C14918   5.126   0.483   5.260
  118CHL1    C314919   7.490   1.599   6.820
  118CHL1    H314920   7.487   1.709   6.801
  118CHL1    O314921   7.488   1.576   6.959
  118CHL1   H3'14922   7.497   1.481   6.967
  118CHL1    C414923   7.366   1.533   6.757
  118CHL1   H4A14924   7.361   1.428   6.794
  118CHL1   H4B14925   7.276   1.584   6.798
  118CHL1    C514926   7.368   1.535   6.606
  118CHL1    C614927   7.269   1.588   6.534
  118CHL1    H614928   7.181   1.629   6.586
  118CHL1    C714929   7.265   1.587   6.384
  118CHL1   H7A14930   7.163   1.563   6.347
  118CHL1   H7B14931   7.291   1.689   6.346
  118CHL1    C814932   7.366   1.487   6.322
  118CHL1    H814933   7.325   1.385   6.338
  118CHL1   C1414934   7.382   1.514   6.173
  118CHL1   H1414935   7.427   1.615   6.165
  118CHL1   C1514936   7.255   1.520   6.087
  118CHL1  H15A14937   7.190   1.433   6.109
  118CHL1  H15B14938   7.197   1.613   6.103
  118CHL1   C1614939   7.309   1.510   5.943
  118CHL1  H16A14940   7.253   1.434   5.887
  118CHL1  H16B14941   7.300   1.607   5.890
  118CHL1   C1714942   7.460   1.470   5.955
  118CHL1   H1714943   7.517   1.565   5.949
  118CHL1   C1314944   7.478   1.420   6.100
  118CHL1   C1814945   7.430   1.274   6.108
  118CHL1  H18A14946   7.332   1.260   6.056
  118CHL1  H18B14947   7.505   1.207   6.059
  118CHL1  H18C14948   7.419   1.240   6.213
  118CHL1   C1214949   7.617   1.439   6.165
  118CHL1  H12A14950   7.692   1.370   6.121
  118CHL1  H12B14951   7.651   1.543   6.147
  118CHL1   C1114952   7.611   1.413   6.316
  118CHL1  H11A14953   7.590   1.305   6.330
  118CHL1  H11B14954   7.711   1.433   6.361
  118CHL1    C914955   7.503   1.498   6.389
  118CHL1    H914956   7.533   1.604   6.374
  118CHL1   C1014957   7.496   1.477   6.543
  118CHL1   C1914958   7.500   1.325   6.573
  118CHL1  H19A14959   7.599   1.284   6.545
  118CHL1  H19B14960   7.486   1.302   6.680
  118CHL1  H19C14961   7.421   1.271   6.515
  118CHL1    C114962   7.619   1.546   6.608
  118CHL1   H1A14963   7.711   1.497   6.572
  118CHL1   H1B14964   7.622   1.653   6.575
  118CHL1    C214965   7.620   1.543   6.762
  118CHL1   H2A14966   7.707   1.599   6.801
  118CHL1   H2B14967   7.633   1.437   6.794
  118CHL1   C2014968   7.506   1.384   5.836
  118CHL1   H2014969   7.453   1.287   5.837
  118CHL1   C2114970   7.658   1.354   5.847
  118CHL1  H21A14971   7.693   1.297   5.759
  118CHL1  H21B14972   7.679   1.290   5.935
  118CHL1  H21C14973   7.716   1.448   5.855
  118CHL1   C2214974   7.469   1.455   5.702
  118CHL1  H22A14975   7.362   1.437   5.681
  118CHL1  H22B14976   7.482   1.565   5.715
  118CHL1   C2314977   7.550   1.416   5.578
  118CHL1  H23A14978   7.658   1.434   5.596
  118CHL1  H23B14979   7.537   1.307   5.557
  118CHL1   C2414980   7.511   1.500   5.455
  118CHL1  H24A14981   7.407   1.475   5.424
  118CHL1  H24B14982   7.512   1.607   5.485
  118CHL1   C2514983   7.606   1.482   5.336
  118CHL1   H2514984   7.710   1.496   5.373
  118CHL1   C2614985   7.596   1.343   5.274
  118CHL1  H26A14986   7.664   1.333   5.187
  118CHL1  H26B14987   7.623   1.264   5.348
  118CHL1  H26C14988   7.492   1.324   5.239
  118CHL1   C2714989   7.581   1.590   5.229
  118CHL1  H27A14990   7.652   1.579   5.145
  118CHL1  H27B14991   7.477   1.581   5.189
  118CHL1  H27C14992   7.593   1.691   5.273
  119CHL1    C314993   1.168   0.287   6.830
  119CHL1    H314994   1.100   0.205   6.800
  119CHL1    O314995   1.193   0.279   6.969
  119CHL1   H3'14996   1.128   0.217   7.003
  119CHL1    C414997   1.302   0.271   6.755
  119CHL1   H4A14998   1.377   0.338   6.801
  119CHL1   H4B14999   1.338   0.168   6.774
  119CHL1    C515000   1.289   0.301   6.607
  119CHL1    C615001   1.327   0.211   6.514
  119CHL1    H615002   1.371   0.116   6.546
  119CHL1    C715003   1.324   0.240   6.367
  119CHL1   H7A15004   1.414   0.199   6.317
  119CHL1   H7B15005   1.236   0.190   6.321
  119CHL1    C815006   1.315   0.392   6.338
  119CHL1    H815007   1.411   0.437   6.368
  119CHL1   C1415008   1.293   0.415   6.189
  119CHL1   H1415009   1.197   0.366   6.164
  119CHL1   C1515010   1.397   0.358   6.091
  119CHL1  H15A15011   1.499   0.372   6.132
  119CHL1  H15B15012   1.380   0.249   6.071
  119CHL1   C1615013   1.381   0.443   5.963
  119CHL1  H16A15014   1.479   0.492   5.942
  119CHL1  H16B15015   1.351   0.382   5.875
  119CHL1   C1715016   1.271   0.548   5.998
  119CHL1   H1715017   1.176   0.495   5.975
  119CHL1   C1315018   1.276   0.562   6.151
  119CHL1   C1815019   1.403   0.643   6.189
  119CHL1  H18A15020   1.424   0.637   6.298
  119CHL1  H18B15021   1.494   0.609   6.135
  119CHL1  H18C15022   1.388   0.751   6.166
  119CHL1   C1215023   1.151   0.615   6.222
  119CHL1  H12A15024   1.137   0.723   6.196
  119CHL1  H12B15025   1.062   0.559   6.186
  119CHL1   C1115026   1.163   0.599   6.375
  119CHL1  H11A15027   1.240   0.671   6.408
  119CHL1  H11B15028   1.067   0.628   6.422
  119CHL1    C915029   1.201   0.454   6.420
  119CHL1    H915030   1.112   0.392   6.396
  119CHL1   C1015031   1.225   0.437   6.573
  119CHL1   C1915032   1.322   0.549   6.621
  119CHL1  H19A15033   1.414   0.551   6.559
  119CHL1  H19B15034   1.271   0.647   6.615
  119CHL1  H19C15035   1.352   0.536   6.727
  119CHL1    C115036   1.090   0.447   6.649
  119CHL1   H1A15037   1.047   0.548   6.632
  119CHL1   H1B15038   1.019   0.373   6.605
  119CHL1    C215039   1.101   0.422   6.800
  119CHL1   H2A15040   1.000   0.423   6.846
  119CHL1   H2B15041   1.160   0.504   6.846
  119CHL1   C2015042   1.270   0.678   5.916
  119CHL1   H2015043   1.310   0.762   5.976
  119CHL1   C2115044   1.122   0.710   5.887
  119CHL1  H21A15045   1.061   0.707   5.980
  119CHL1  H21B15046   1.079   0.636   5.815
  119CHL1  H21C15047   1.112   0.812   5.844
  119CHL1   C2215048   1.355   0.673   5.786
  119CHL1  H22A15049   1.461   0.662   5.818
  119CHL1  H22B15050   1.329   0.584   5.726
  119CHL1   C2315051   1.351   0.799   5.696
  119CHL1  H23A15052   1.341   0.890   5.760
  119CHL1  H23B15053   1.449   0.805   5.645
  119CHL1   C2415054   1.241   0.797   5.588
  119CHL1  H24A15055   1.244   0.701   5.533
  119CHL1  H24B15056   1.141   0.802   5.635
  119CHL1   C2515057   1.252   0.912   5.485
  119CHL1   H2515058   1.258   1.008   5.540
  119CHL1   C2615059   1.377   0.898   5.397
  119CHL1  H26A15060   1.381   0.798   5.350
  119CHL1  H26B15061   1.377   0.975   5.317
  119CHL1  H26C15062   1.469   0.913   5.458
  119CHL1   C2715063   1.128   0.917   5.395
  119CHL1  H27A15064   1.113   0.821   5.342
  119CHL1  H27B15065   1.037   0.939   5.456
  119CHL1  H27C15066   1.137   0.998   5.319
  120CHL1    C315067   7.373   7.520   6.749
  120CHL1    H315068   7.265   7.505   6.726
  120CHL1    O315069   7.391   7.527   6.890
  120CHL1   H3'15070   7.369   7.616   6.917
  120CHL1    C415071   7.455   7.402   6.695
  120CHL1   H4A15072   7.560   7.416   6.728
  120CHL1   H4B15073   7.419   7.309   6.744
  120CHL1    C515074   7.451   7.392   6.544
  120CHL1    C615075   7.412   7.279   6.482
  120CHL1    H615076   7.385   7.191   6.542
  120CHL1    C715077   7.413   7.261   6.333
  120CHL1   H7A15078   7.460   7.164   6.306
  120CHL1   H7B15079   7.308   7.257   6.297
  120CHL1    C815080   7.487   7.374   6.257
  120CHL1    H815081   7.596   7.356   6.263
  120CHL1   C1415082   7.443   7.373   6.111
  120CHL1   H1415083   7.334   7.394   6.114
  120CHL1   C1515084   7.453   7.241   6.033
  120CHL1  H15A15085   7.554   7.196   6.047
  120CHL1  H15B15086   7.376   7.168   6.064
  120CHL1   C1615087   7.435   7.286   5.887
  120CHL1  H16A15088   7.523   7.252   5.828
  120CHL1  H16B15089   7.342   7.244   5.842
  120CHL1   C1715090   7.430   7.442   5.888
  120CHL1   H1715091   7.323   7.470   5.905
  120CHL1   C1315092   7.501   7.482   6.020
  120CHL1   C1815093   7.654   7.464   6.004
  120CHL1  H18A15094   7.705   7.473   6.101
  120CHL1  H18B15095   7.680   7.366   5.960
  120CHL1  H18C15096   7.694   7.543   5.936
  120CHL1   C1215097   7.465   7.619   6.082
  120CHL1  H12A15098   7.513   7.701   6.026
  120CHL1  H12B15099   7.355   7.633   6.077
  120CHL1   C1115100   7.509   7.628   6.230
  120CHL1  H11A15101   7.620   7.628   6.232
  120CHL1  H11B15102   7.475   7.725   6.271
  120CHL1    C915103   7.455   7.511   6.318
  120CHL1    H915104   7.344   7.520   6.312
  120CHL1   C1015105   7.489   7.521   6.469
  120CHL1   C1915106   7.642   7.542   6.484
  120CHL1  H19A15107   7.674   7.639   6.440
  120CHL1  H19B15108   7.674   7.544   6.590
  120CHL1  H19C15109   7.699   7.461   6.433
  120CHL1    C115110   7.413   7.642   6.531
  120CHL1   H1A15111   7.453   7.736   6.488
  120CHL1   H1B15112   7.306   7.635   6.502
  120CHL1    C215113   7.420   7.651   6.685
  120CHL1   H2A15114   7.357   7.736   6.720
  120CHL1   H2B15115   7.525   7.671   6.715
  120CHL1   C2015116   7.468   7.504   5.753
  120CHL1   H2015117   7.568   7.467   5.721
  120CHL1   C2115118   7.474   7.658   5.761
  120CHL1  H21A15119   7.490   7.701   5.660
  120CHL1  H21B15120   7.560   7.690   5.823
  120CHL1  H21C15121   7.380   7.699   5.803
  120CHL1   C2215122   7.365   7.465   5.643
  120CHL1  H22A15123   7.264   7.452   5.689
  120CHL1  H22B15124   7.354   7.550   5.571
  120CHL1   C2315125   7.399   7.340   5.560
  120CHL1  H23A15126   7.463   7.271   5.619
  120CHL1  H23B15127   7.305   7.286   5.536
  120CHL1   C2415128   7.469   7.374   5.427
  120CHL1  H24A15129   7.400   7.437   5.367
  120CHL1  H24B15130   7.561   7.433   5.446
  120CHL1   C2515131   7.504   7.249   5.344
  120CHL1   H2515132   7.416   7.181   5.347
  120CHL1   C2615133   7.527   7.285   5.196
  120CHL1  H26A15134   7.611   7.358   5.187
  120CHL1  H26B15135   7.552   7.195   5.137
  120CHL1  H26C15136   7.436   7.332   5.153
  120CHL1   C2715137   7.626   7.174   5.400
  120CHL1  H27A15138   7.717   7.237   5.395
  120CHL1  H27B15139   7.610   7.145   5.506
  120CHL1  H27C15140   7.645   7.082   5.341
  121CHL1    C315141   4.284   3.833   3.199
  121CHL1    H315142   4.283   3.941   3.222
  121CHL1    O315143   4.262   3.814   3.060
  121CHL1   H3'15144   4.315   3.883   3.017
  121CHL1    C415145   4.421   3.774   3.236
  121CHL1   H4A15146   4.426   3.670   3.197
  121CHL1   H4B15147   4.498   3.831   3.181
  121CHL1    C515148   4.446   3.773   3.386
  121CHL1    C615149   4.557   3.829   3.438
  121CHL1    H615150   4.631   3.874   3.371
  121CHL1    C715151   4.591   3.826   3.585
  121CHL1   H7A15152   4.698   3.800   3.599
  121CHL1   H7B15153   4.574   3.927   3.629
  121CHL1    C815154   4.504   3.724   3.664
  121CHL1    H815155   4.542   3.623   3.640
  121CHL1   C1415156   4.518   3.750   3.814
  121CHL1   H1415157   4.474   3.851   3.831
  121CHL1   C1515158   4.660   3.757   3.873
  121CHL1  H15A15159   4.720   3.672   3.835
  121CHL1  H15B15160   4.711   3.852   3.847
  121CHL1   C1615161   4.636   3.743   4.024
  121CHL1  H16A15162   4.703   3.664   4.064
  121CHL1  H16B15163   4.656   3.838   4.078
  121CHL1   C1715164   4.486   3.703   4.043
  121CHL1   H1715165   4.431   3.798   4.062
  121CHL1   C1315166   4.439   3.655   3.904
  121CHL1   C1815167   4.488   3.509   3.884
  121CHL1  H18A15168   4.428   3.440   3.947
  121CHL1  H18B15169   4.477   3.477   3.779
  121CHL1  H18C15170   4.595   3.497   3.912
  121CHL1   C1215171   4.290   3.673   3.868
  121CHL1  H12A15172   4.226   3.604   3.926
  121CHL1  H12B15173   4.260   3.777   3.893
  121CHL1   C1115174   4.265   3.649   3.717
  121CHL1  H11A15175   4.281   3.541   3.699
  121CHL1  H11B15176   4.158   3.671   3.695
  121CHL1    C915177   4.357   3.734   3.624
  121CHL1    H915178   4.328   3.839   3.643
  121CHL1   C1015179   4.334   3.710   3.472
  121CHL1   C1915180   4.336   3.558   3.444
  121CHL1  H19A15181   4.430   3.513   3.483
  121CHL1  H19B15182   4.250   3.508   3.493
  121CHL1  H19C15183   4.328   3.535   3.336
  121CHL1    C115184   4.197   3.770   3.428
  121CHL1   H1A15185   4.116   3.715   3.480
  121CHL1   H1B15186   4.193   3.876   3.461
  121CHL1    C215187   4.171   3.764   3.277
  121CHL1   H2A15188   4.075   3.814   3.252
  121CHL1   H2B15189   4.164   3.658   3.243
  121CHL1   C2015190   4.466   3.614   4.168
  121CHL1   H2015191   4.526   3.522   4.156
  121CHL1   C2115192   4.318   3.575   4.182
  121CHL1  H21A15193   4.286   3.509   4.098
  121CHL1  H21B15194   4.253   3.665   4.184
  121CHL1  H21C15195   4.301   3.516   4.275
  121CHL1   C2215196   4.516   3.686   4.297
  121CHL1  H22A15197   4.621   3.719   4.284
  121CHL1  H22B15198   4.454   3.776   4.313
  121CHL1   C2315199   4.512   3.601   4.426
  121CHL1  H23A15200   4.408   3.567   4.444
  121CHL1  H23B15201   4.576   3.511   4.412
  121CHL1   C2415202   4.559   3.680   4.549
  121CHL1  H24A15203   4.665   3.710   4.534
  121CHL1  H24B15204   4.499   3.774   4.554
  121CHL1   C2515205   4.546   3.608   4.685
  121CHL1   H2515206   4.576   3.681   4.763
  121CHL1   C2615207   4.401   3.567   4.716
  121CHL1  H26A15208   4.332   3.653   4.705
  121CHL1  H26B15209   4.368   3.487   4.646
  121CHL1  H26C15210   4.393   3.527   4.819
  121CHL1   C2715211   4.640   3.487   4.697
  121CHL1  H27A15212   4.616   3.411   4.620
  121CHL1  H27B15213   4.746   3.519   4.684
  121CHL1  H27C15214   4.630   3.440   4.798
  122CHL1    C315215   2.582   3.791   3.244
  122CHL1    H315216   2.645   3.702   3.266
  122CHL1    O315217   2.556   3.792   3.104
  122CHL1   H3'15218   2.505   3.872   3.088
  122CHL1    C415219   2.450   3.781   3.322
  122CHL1   H4A15220   2.385   3.866   3.293
  122CHL1   H4B15221   2.398   3.688   3.289
  122CHL1    C515222   2.475   3.783   3.472
  122CHL1    C615223   2.433   3.682   3.550
  122CHL1    H615224   2.376   3.599   3.505
  122CHL1    C715225   2.453   3.677   3.698
  122CHL1   H7A15226   2.359   3.647   3.749
  122CHL1   H7B15227   2.529   3.599   3.721
  122CHL1    C815228   2.501   3.811   3.759
  122CHL1    H815229   2.413   3.879   3.768
  122CHL1   C1415230   2.560   3.788   3.898
  122CHL1   H1415231   2.653   3.729   3.880
  122CHL1   C1515232   2.479   3.705   3.998
  122CHL1  H15A15233   2.374   3.742   4.001
  122CHL1  H15B15234   2.478   3.597   3.973
  122CHL1   C1615235   2.549   3.733   4.132
  122CHL1  H16A15236   2.474   3.763   4.207
  122CHL1  H16B15237   2.604   3.644   4.168
  122CHL1   C1715238   2.652   3.849   4.106
  122CHL1   H1715239   2.749   3.800   4.084
  122CHL1   C1315240   2.607   3.913   3.972
  122CHL1   C1815241   2.487   4.007   4.001
  122CHL1  H18A15242   2.411   3.958   4.064
  122CHL1  H18B15243   2.522   4.099   4.054
  122CHL1  H18C15244   2.439   4.040   3.906
  122CHL1   C1215245   2.715   3.980   3.885
  122CHL1  H12A15246   2.749   4.076   3.929
  122CHL1  H12B15247   2.803   3.912   3.879
  122CHL1   C1115248   2.665   4.006   3.741
  122CHL1  H11A15249   2.587   4.085   3.748
  122CHL1  H11B15250   2.748   4.047   3.681
  122CHL1    C915251   2.606   3.880   3.671
  122CHL1    H915252   2.690   3.807   3.666
  122CHL1   C1015253   2.559   3.901   3.524
  122CHL1   C1915254   2.471   4.029   3.517
  122CHL1  H19A15255   2.388   4.022   3.590
  122CHL1  H19B15256   2.531   4.119   3.541
  122CHL1  H19C15257   2.429   4.044   3.416
  122CHL1    C115258   2.686   3.919   3.434
  122CHL1   H1A15259   2.736   4.014   3.461
  122CHL1   H1B15260   2.756   3.836   3.456
  122CHL1    C215261   2.658   3.918   3.283
  122CHL1   H2A15262   2.754   3.923   3.227
  122CHL1   H2B15263   2.597   4.007   3.255
  122CHL1   C2015264   2.673   3.936   4.232
  122CHL1   H2015265   2.575   3.979   4.262
  122CHL1   C2115266   2.771   4.051   4.203
  122CHL1  H21A15267   2.727   4.124   4.131
  122CHL1  H21B15268   2.866   4.012   4.162
  122CHL1  H21C15269   2.793   4.108   4.296
  122CHL1   C2215270   2.725   3.850   4.351
  122CHL1  H22A15271   2.663   3.758   4.361
  122CHL1  H22B15272   2.829   3.818   4.328
  122CHL1   C2315273   2.723   3.920   4.488
  122CHL1  H23A15274   2.786   4.012   4.485
  122CHL1  H23B15275   2.619   3.951   4.511
  122CHL1   C2415276   2.774   3.828   4.600
  122CHL1  H24A15277   2.715   3.734   4.597
  122CHL1  H24B15278   2.880   3.802   4.581
  122CHL1   C2515279   2.761   3.887   4.742
  122CHL1   H2515280   2.655   3.914   4.759
  122CHL1   C2615281   2.800   3.782   4.848
  122CHL1  H26A15282   2.735   3.692   4.838
  122CHL1  H26B15283   2.906   3.752   4.836
  122CHL1  H26C15284   2.787   3.824   4.950
  122CHL1   C2715285   2.846   4.014   4.761
  122CHL1  H27A15286   2.836   4.053   4.864
  122CHL1  H27B15287   2.953   3.992   4.741
  122CHL1  H27C15288   2.813   4.094   4.691
  123CHL1    C315289   5.150   3.743   3.307
  123CHL1    H315290   5.151   3.637   3.340
  123CHL1    O315291   5.071   3.754   3.190
  123CHL1   H3'15292   5.062   3.849   3.175
  123CHL1    C415293   5.091   3.831   3.418
  123CHL1   H4A15294   5.077   3.934   3.378
  123CHL1   H4B15295   4.989   3.792   3.440
  123CHL1    C515296   5.177   3.836   3.542
  123CHL1    C615297   5.129   3.805   3.664
  123CHL1    H615298   5.023   3.777   3.674
  123CHL1    C715299   5.209   3.813   3.791
  123CHL1   H7A15300   5.150   3.863   3.871
  123CHL1   H7B15301   5.232   3.710   3.826
  123CHL1    C815302   5.342   3.890   3.773
  123CHL1    H815303   5.318   3.999   3.768
  123CHL1   C1415304   5.434   3.864   3.892
  123CHL1   H1415305   5.455   3.755   3.891
  123CHL1   C1515306   5.380   3.893   4.034
  123CHL1  H15A15307   5.329   3.992   4.034
  123CHL1  H15B15308   5.309   3.815   4.068
  123CHL1   C1615309   5.507   3.899   4.121
  123CHL1  H16A15310   5.508   3.994   4.178
  123CHL1  H16B15311   5.510   3.814   4.192
  123CHL1   C1715312   5.629   3.893   4.024
  123CHL1   H1715313   5.656   3.786   4.014
  123CHL1   C1315314   5.571   3.932   3.885
  123CHL1   C1815315   5.555   4.087   3.881
  123CHL1  H18A15316   5.494   4.119   3.794
  123CHL1  H18B15317   5.508   4.126   3.973
  123CHL1  H18C15318   5.655   4.135   3.870
  123CHL1   C1215319   5.642   3.877   3.760
  123CHL1  H12A15320   5.741   3.924   3.744
  123CHL1  H12B15321   5.657   3.768   3.772
  123CHL1   C1115322   5.558   3.902   3.633
  123CHL1  H11A15323   5.558   4.011   3.614
  123CHL1  H11B15324   5.610   3.853   3.547
  123CHL1    C915325   5.412   3.848   3.644
  123CHL1    H915326   5.424   3.738   3.652
  123CHL1   C1015327   5.325   3.873   3.517
  123CHL1   C1915328   5.331   4.023   3.480
  123CHL1  H19A15329   5.434   4.052   3.449
  123CHL1  H19B15330   5.265   4.046   3.394
  123CHL1  H19C15331   5.300   4.087   3.565
  123CHL1    C115332   5.381   3.786   3.400
  123CHL1   H1A15333   5.482   3.822   3.373
  123CHL1   H1B15334   5.391   3.681   3.435
  123CHL1    C215335   5.293   3.786   3.273
  123CHL1   H2A15336   5.337   3.717   3.198
  123CHL1   H2B15337   5.293   3.888   3.229
  123CHL1   C2015338   5.753   3.965   4.080
  123CHL1   H2015339   5.730   4.072   4.095
  123CHL1   C2115340   5.868   3.956   3.977
  123CHL1  H21A15341   5.964   3.993   4.019
  123CHL1  H21B15342   5.846   4.020   3.889
  123CHL1  H21C15343   5.881   3.851   3.944
  123CHL1   C2215344   5.796   3.908   4.218
  123CHL1  H22A15345   5.719   3.936   4.293
  123CHL1  H22B15346   5.798   3.797   4.213
  123CHL1   C2315347   5.934   3.953   4.271
  123CHL1  H23A15348   6.015   3.912   4.208
  123CHL1  H23B15349   5.939   4.064   4.263
  123CHL1   C2415350   5.962   3.913   4.416
  123CHL1  H24A15351   5.895   3.970   4.483
  123CHL1  H24B15352   5.938   3.805   4.429
  123CHL1   C2515353   6.109   3.931   4.462
  123CHL1   H2515354   6.170   3.855   4.409
  123CHL1   C2615355   6.167   4.069   4.428
  123CHL1  H26A15356   6.111   4.150   4.480
  123CHL1  H26B15357   6.274   4.075   4.460
  123CHL1  H26C15358   6.164   4.089   4.319
  123CHL1   C2715359   6.121   3.907   4.613
  123CHL1  H27A15360   6.056   3.978   4.669
  123CHL1  H27B15361   6.090   3.803   4.639
  123CHL1  H27C15362   6.226   3.921   4.647
  124CHL1    C315363   3.531   5.224   3.261
  124CHL1    H315364   3.448   5.285   3.302
  124CHL1    O315365   3.521   5.224   3.120
  124CHL1   H3'15366   3.429   5.206   3.103
  124CHL1    C415367   3.665   5.285   3.307
  124CHL1   H4A15368   3.748   5.230   3.256
  124CHL1   H4B15369   3.670   5.389   3.270
  124CHL1    C515370   3.682   5.277   3.458
  124CHL1    C615371   3.703   5.386   3.533
  124CHL1    H615372   3.714   5.484   3.485
  124CHL1    C715373   3.722   5.382   3.682
  124CHL1   H7A15374   3.808   5.446   3.712
  124CHL1   H7B15375   3.631   5.423   3.731
  124CHL1    C815376   3.747   5.239   3.737
  124CHL1    H815377   3.852   5.212   3.710
  124CHL1   C1415378   3.730   5.237   3.888
  124CHL1   H1415379   3.624   5.261   3.907
  124CHL1   C1515380   3.811   5.339   3.970
  124CHL1  H15A15381   3.912   5.349   3.926
  124CHL1  H15B15382   3.761   5.438   3.971
  124CHL1   C1615383   3.819   5.276   4.110
  124CHL1  H16A15384   3.927   5.259   4.132
  124CHL1  H16B15385   3.776   5.342   4.189
  124CHL1   C1715386   3.744   5.139   4.103
  124CHL1   H1715387   3.637   5.164   4.122
  124CHL1   C1315388   3.754   5.101   3.953
  124CHL1   C1815389   3.897   5.050   3.923
  124CHL1  H18A15390   3.916   5.043   3.814
  124CHL1  H18B15391   3.975   5.116   3.967
  124CHL1  H18C15392   3.911   4.947   3.964
  124CHL1   C1215393   3.648   5.004   3.898
  124CHL1  H12A15394   3.664   4.902   3.940
  124CHL1  H12B15395   3.547   5.039   3.928
  124CHL1   C1115396   3.654   4.998   3.744
  124CHL1  H11A15397   3.748   4.945   3.717
  124CHL1  H11B15398   3.569   4.936   3.707
  124CHL1    C915399   3.651   5.138   3.674
  124CHL1    H915400   3.550   5.179   3.697
  124CHL1   C1015401   3.662   5.136   3.519
  124CHL1   C1915402   3.787   5.053   3.479
  124CHL1  H19A15403   3.779   4.948   3.513
  124CHL1  H19B15404   3.799   5.049   3.368
  124CHL1  H19C15405   3.880   5.097   3.522
  124CHL1    C115406   3.532   5.073   3.463
  124CHL1   H1A15407   3.524   4.967   3.495
  124CHL1   H1B15408   3.445   5.127   3.507
  124CHL1    C215409   3.518   5.080   3.310
  124CHL1   H2A15410   3.419   5.040   3.279
  124CHL1   H2B15411   3.597   5.018   3.262
  124CHL1   C2015412   3.785   5.033   4.207
  124CHL1   H2015413   3.859   4.964   4.160
  124CHL1   C2115414   3.660   4.951   4.244
  124CHL1  H21A15415   3.614   4.904   4.154
  124CHL1  H21B15416   3.584   5.016   4.293
  124CHL1  H21C15417   3.687   4.870   4.315
  124CHL1   C2215418   3.853   5.084   4.337
  124CHL1  H22A15419   3.916   5.174   4.318
  124CHL1  H22B15420   3.776   5.113   4.411
  124CHL1   C2315421   3.950   4.981   4.397
  124CHL1  H23A15422   3.894   4.889   4.427
  124CHL1  H23B15423   4.022   4.952   4.318
  124CHL1   C2415424   4.029   5.037   4.517
  124CHL1  H24A15425   4.057   5.142   4.492
  124CHL1  H24B15426   3.963   5.041   4.606
  124CHL1   C2515427   4.159   4.962   4.550
  124CHL1   H2515428   4.223   4.963   4.458
  124CHL1   C2615429   4.236   5.035   4.661
  124CHL1  H26A15430   4.333   4.984   4.680
  124CHL1  H26B15431   4.257   5.140   4.632
  124CHL1  H26C15432   4.177   5.035   4.755
  124CHL1   C2715433   4.135   4.815   4.589
  124CHL1  H27A15434   4.068   4.810   4.678
  124CHL1  H27B15435   4.087   4.760   4.505
  124CHL1  H27C15436   4.231   4.765   4.613
  125CHL1    C315437   4.320   5.280   3.186
  125CHL1    H315438   4.212   5.306   3.180
  125CHL1    O315439   4.370   5.254   3.056
  125CHL1   H3'15440   4.360   5.159   3.041
  125CHL1    C415441   4.398   5.398   3.246
  125CHL1   H4A15442   4.507   5.375   3.241
  125CHL1   H4B15443   4.381   5.486   3.181
  125CHL1    C515444   4.359   5.426   3.390
  125CHL1    C615445   4.317   5.548   3.429
  125CHL1    H615446   4.313   5.630   3.355
  125CHL1    C715447   4.281   5.584   3.570
  125CHL1   H7A15448   4.328   5.680   3.598
  125CHL1   H7B15449   4.171   5.596   3.578
  125CHL1    C815450   4.326   5.476   3.673
  125CHL1    H815451   4.436   5.488   3.688
  125CHL1   C1415452   4.254   5.498   3.805
  125CHL1   H1415453   4.146   5.481   3.783
  125CHL1   C1515454   4.261   5.637   3.870
  125CHL1  H15A15455   4.366   5.673   3.869
  125CHL1  H15B15456   4.197   5.711   3.816
  125CHL1   C1615457   4.213   5.613   4.014
  125CHL1  H16A15458   4.287   5.655   4.085
  125CHL1  H16B15459   4.114   5.659   4.032
  125CHL1   C1715460   4.204   5.457   4.031
  125CHL1   H1715461   4.099   5.430   4.005
  125CHL1   C1315462   4.288   5.398   3.916
  125CHL1   C1815463   4.438   5.408   3.955
  125CHL1  H18A15464   4.504   5.388   3.867
  125CHL1  H18B15465   4.464   5.510   3.993
  125CHL1  H18C15466   4.464   5.335   4.034
  125CHL1   C1215467   4.250   5.258   3.864
  125CHL1  H12A15468   4.276   5.178   3.937
  125CHL1  H12B15469   4.140   5.255   3.848
  125CHL1   C1115470   4.320   5.226   3.731
  125CHL1  H11A15471   4.429   5.216   3.752
  125CHL1  H11B15472   4.284   5.128   3.694
  125CHL1    C915473   4.297   5.335   3.621
  125CHL1    H915474   4.188   5.334   3.602
  125CHL1   C1015475   4.365   5.305   3.485
  125CHL1   C1915476   4.515   5.272   3.509
  125CHL1  H19A15477   4.565   5.353   3.565
  125CHL1  H19B15478   4.526   5.177   3.567
  125CHL1  H19C15479   4.570   5.256   3.413
  125CHL1    C115480   4.294   5.183   3.418
  125CHL1   H1A15481   4.312   5.092   3.479
  125CHL1   H1B15482   4.184   5.202   3.419
  125CHL1    C215483   4.337   5.155   3.273
  125CHL1   H2A15484   4.276   5.071   3.232
  125CHL1   H2B15485   4.443   5.123   3.272
  125CHL1   C2015486   4.223   5.414   4.178
  125CHL1   H2015487   4.320   5.453   4.215
  125CHL1   C2115488   4.227   5.260   4.189
  125CHL1  H21A15489   4.315   5.219   4.136
  125CHL1  H21B15490   4.135   5.214   4.145
  125CHL1  H21C15491   4.236   5.227   4.295
  125CHL1   C2215492   4.108   5.475   4.263
  125CHL1  H22A15493   4.114   5.586   4.259
  125CHL1  H22B15494   4.012   5.446   4.216
  125CHL1   C2315495   4.100   5.436   4.412
  125CHL1  H23A15496   4.122   5.328   4.426
  125CHL1  H23B15497   4.176   5.493   4.470
  125CHL1   C2415498   3.958   5.461   4.467
  125CHL1  H24A15499   3.933   5.569   4.460
  125CHL1  H24B15500   3.886   5.407   4.402
  125CHL1   C2515501   3.935   5.412   4.611
  125CHL1   H2515502   3.961   5.305   4.616
  125CHL1   C2615503   4.022   5.488   4.713
  125CHL1  H26A15504   4.001   5.597   4.709
  125CHL1  H26B15505   4.000   5.451   4.816
  125CHL1  H26C15506   4.130   5.471   4.693
  125CHL1   C2715507   3.787   5.426   4.648
  125CHL1  H27A15508   3.769   5.386   4.751
  125CHL1  H27B15509   3.756   5.533   4.646
  125CHL1  H27C15510   3.723   5.369   4.577
  126CHL1    C315511   2.533   5.203   3.233
  126CHL1    H315512   2.579   5.102   3.232
  126CHL1    O315513   2.514   5.247   3.100
  126CHL1   H3'15514   2.460   5.179   3.058
  126CHL1    C415515   2.396   5.196   3.303
  126CHL1   H4A15516   2.347   5.296   3.294
  126CHL1   H4B15517   2.332   5.125   3.248
  126CHL1    C515518   2.411   5.159   3.449
  126CHL1    C615519   2.349   5.052   3.500
  126CHL1    H615520   2.283   4.992   3.436
  126CHL1    C715521   2.357   5.010   3.644
  126CHL1   H7A15522   2.257   4.981   3.682
  126CHL1   H7B15523   2.424   4.922   3.653
  126CHL1    C815524   2.414   5.123   3.735
  126CHL1    H815525   2.334   5.199   3.749
  126CHL1   C1415526   2.454   5.064   3.868
  126CHL1   H1415527   2.537   4.993   3.844
  126CHL1   C1515528   2.351   4.978   3.945
  126CHL1  H15A15529   2.252   5.028   3.943
  126CHL1  H15B15530   2.342   4.876   3.902
  126CHL1   C1615531   2.407   4.977   4.089
  126CHL1  H16A15532   2.329   5.021   4.156
  126CHL1  H16B15533   2.432   4.874   4.123
  126CHL1   C1715534   2.535   5.065   4.087
  126CHL1   H1715535   2.615   4.996   4.054
  126CHL1   C1315536   2.513   5.162   3.969
  126CHL1   C1815537   2.407   5.269   4.008
  126CHL1  H18A15538   2.374   5.327   3.919
  126CHL1  H18B15539   2.317   5.224   4.054
  126CHL1  H18C15540   2.451   5.342   4.079
  126CHL1   C1215541   2.638   5.225   3.907
  126CHL1  H12A15542   2.679   5.304   3.974
  126CHL1  H12B15543   2.716   5.147   3.894
  126CHL1   C1115544   2.607   5.288   3.769
  126CHL1  H11A15545   2.542   5.377   3.788
  126CHL1  H11B15546   2.702   5.326   3.724
  126CHL1    C915547   2.536   5.190   3.671
  126CHL1    H915548   2.609   5.107   3.656
  126CHL1   C1015549   2.508   5.248   3.530
  126CHL1   C1915550   2.443   5.387   3.547
  126CHL1  H19A15551   2.409   5.430   3.450
  126CHL1  H19B15552   2.355   5.381   3.615
  126CHL1  H19C15553   2.515   5.460   3.590
  126CHL1    C115554   2.642   5.261   3.453
  126CHL1   H1A15555   2.704   5.338   3.504
  126CHL1   H1B15556   2.696   5.164   3.458
  126CHL1    C215557   2.626   5.300   3.305
  126CHL1   H2A15558   2.725   5.301   3.254
  126CHL1   H2B15559   2.583   5.403   3.298
  126CHL1   C2015560   2.581   5.123   4.222
  126CHL1   H2015561   2.543   5.227   4.231
  126CHL1   C2115562   2.736   5.126   4.220
  126CHL1  H21A15563   2.776   5.023   4.209
  126CHL1  H21B15564   2.776   5.169   4.314
  126CHL1  H21C15565   2.773   5.188   4.135
  126CHL1   C2215566   2.532   5.046   4.347
  126CHL1  H22A15567   2.422   5.030   4.343
  126CHL1  H22B15568   2.581   4.947   4.351
  126CHL1   C2315569   2.558   5.123   4.478
  126CHL1  H23A15570   2.667   5.136   4.493
  126CHL1  H23B15571   2.512   5.224   4.469
  126CHL1   C2415572   2.500   5.052   4.602
  126CHL1  H24A15573   2.391   5.035   4.586
  126CHL1  H24B15574   2.548   4.952   4.611
  126CHL1   C2515575   2.518   5.128   4.736
  126CHL1   H2515576   2.474   5.064   4.815
  126CHL1   C2615577   2.666   5.151   4.770
  126CHL1  H26A15578   2.713   5.218   4.695
  126CHL1  H26B15579   2.674   5.199   4.870
  126CHL1  H26C15580   2.721   5.055   4.772
  126CHL1   C2715581   2.441   5.261   4.738
  126CHL1  H27A15582   2.481   5.331   4.662
  126CHL1  H27B15583   2.334   5.243   4.717
  126CHL1  H27C15584   2.450   5.309   4.838
  127CHL1    C315585   3.409   6.378   3.213
  127CHL1    H315586   3.517   6.351   3.215
  127CHL1    O315587   3.364   6.375   3.078
  127CHL1   H3'15588   3.268   6.379   3.081
  127CHL1    C415589   3.329   6.277   3.298
  127CHL1   H4A15590   3.221   6.298   3.285
  127CHL1   H4B15591   3.346   6.176   3.256
  127CHL1    C515592   3.365   6.284   3.445
  127CHL1    C615593   3.405   6.176   3.514
  127CHL1    H615594   3.410   6.079   3.463
  127CHL1    C715595   3.438   6.178   3.660
  127CHL1   H7A15596   3.391   6.091   3.711
  127CHL1   H7B15597   3.548   6.169   3.673
  127CHL1    C815598   3.391   6.307   3.732
  127CHL1    H815599   3.280   6.302   3.743
  127CHL1   C1415600   3.454   6.317   3.871
  127CHL1   H1415601   3.563   6.325   3.853
  127CHL1   C1515602   3.436   6.197   3.966
  127CHL1  H15A15603   3.331   6.161   3.960
  127CHL1  H15B15604   3.505   6.114   3.941
  127CHL1   C1615605   3.461   6.255   4.105
  127CHL1  H16A15606   3.370   6.240   4.166
  127CHL1  H16B15607   3.547   6.206   4.156
  127CHL1   C1715608   3.487   6.408   4.085
  127CHL1   H1715609   3.596   6.418   4.063
  127CHL1   C1315610   3.416   6.442   3.951
  127CHL1   C1815611   3.263   6.449   3.978
  127CHL1  H18A15612   3.239   6.541   4.035
  127CHL1  H18B15613   3.206   6.452   3.883
  127CHL1  H18C15614   3.227   6.361   4.036
  127CHL1   C1215615   3.465   6.563   3.870
  127CHL1  H12A15616   3.435   6.659   3.919
  127CHL1  H12B15617   3.576   6.560   3.863
  127CHL1   C1115618   3.405   6.564   3.728
  127CHL1  H11A15619   3.296   6.584   3.738
  127CHL1  H11B15620   3.449   6.648   3.671
  127CHL1    C915621   3.426   6.430   3.649
  127CHL1    H915622   3.535   6.424   3.632
  127CHL1   C1015623   3.360   6.426   3.508
  127CHL1   C1915624   3.210   6.464   3.520
  127CHL1  H19A15625   3.157   6.398   3.592
  127CHL1  H19B15626   3.199   6.569   3.553
  127CHL1  H19C15627   3.158   6.457   3.422
  127CHL1    C115628   3.435   6.525   3.415
  127CHL1   H1A15629   3.420   6.629   3.454
  127CHL1   H1B15630   3.544   6.503   3.421
  127CHL1    C215631   3.392   6.519   3.268
  127CHL1   H2A15632   3.454   6.590   3.208
  127CHL1   H2B15633   3.286   6.548   3.258
  127CHL1   C2015634   3.461   6.491   4.211
  127CHL1   H2015635   3.352   6.501   4.229
  127CHL1   C2115636   3.521   6.631   4.192
  127CHL1  H21A15637   3.516   6.689   4.287
  127CHL1  H21B15638   3.464   6.689   4.116
  127CHL1  H21C15639   3.627   6.625   4.160
  127CHL1   C2215640   3.524   6.429   4.340
  127CHL1  H22A15641   3.610   6.365   4.314
  127CHL1  H22B15642   3.564   6.512   4.402
  127CHL1   C2315643   3.424   6.353   4.430
  127CHL1  H23A15644   3.343   6.422   4.460
  127CHL1  H23B15645   3.379   6.270   4.373
  127CHL1   C2415646   3.491   6.296   4.557
  127CHL1  H24A15647   3.570   6.224   4.527
  127CHL1  H24B15648   3.540   6.380   4.610
  127CHL1   C2515649   3.394   6.227   4.654
  127CHL1   H2515650   3.314   6.300   4.680
  127CHL1   C2615651   3.327   6.103   4.593
  127CHL1  H26A15652   3.265   6.132   4.505
  127CHL1  H26B15653   3.404   6.030   4.559
  127CHL1  H26C15654   3.261   6.054   4.667
  127CHL1   C2715655   3.466   6.188   4.784
  127CHL1  H27A15656   3.394   6.146   4.858
  127CHL1  H27B15657   3.544   6.112   4.763
  127CHL1  H27C15658   3.515   6.277   4.830
  128CHL1    C315659   2.099   1.749   3.182
  128CHL1    H315660   1.990   1.764   3.194
  128CHL1    O315661   2.130   1.742   3.044
  128CHL1   H3'15662   2.109   1.653   3.017
  128CHL1    C415663   2.174   1.867   3.246
  128CHL1   H4A15664   2.282   1.859   3.219
  128CHL1   H4B15665   2.138   1.960   3.197
  128CHL1    C515666   2.159   1.872   3.397
  128CHL1    C615667   2.113   1.982   3.460
  128CHL1    H615668   2.089   2.072   3.401
  128CHL1    C715669   2.099   1.993   3.609
  128CHL1   H7A15670   2.136   2.091   3.644
  128CHL1   H7B15671   1.992   1.985   3.636
  128CHL1    C815672   2.176   1.881   3.685
  128CHL1    H815673   2.284   1.906   3.679
  128CHL1   C1415674   2.133   1.876   3.830
  128CHL1   H1415675   2.026   1.846   3.829
  128CHL1   C1515676   2.137   2.007   3.911
  128CHL1  H15A15677   2.232   2.060   3.891
  128CHL1  H15B15678   2.051   2.074   3.886
  128CHL1   C1615679   2.133   1.959   4.057
  128CHL1  H16A15680   2.218   2.005   4.112
  128CHL1  H16B15681   2.039   1.988   4.107
  128CHL1   C1715682   2.147   1.804   4.055
  128CHL1   H1715683   2.045   1.762   4.057
  128CHL1   C1315684   2.205   1.771   3.915
  128CHL1   C1815685   2.357   1.799   3.917
  128CHL1  H18A15686   2.400   1.795   3.814
  128CHL1  H18B15687   2.380   1.899   3.960
  128CHL1  H18C15688   2.410   1.722   3.977
  128CHL1   C1215689   2.171   1.634   3.855
  128CHL1  H12A15690   2.222   1.551   3.908
  128CHL1  H12B15691   2.061   1.617   3.865
  128CHL1   C1115692   2.209   1.627   3.705
  128CHL1  H11A15693   2.320   1.626   3.702
  128CHL1  H11B15694   2.174   1.530   3.664
  128CHL1    C915695   2.152   1.744   3.620
  128CHL1    H915696   2.042   1.731   3.622
  128CHL1   C1015697   2.194   1.741   3.470
  128CHL1   C1915698   2.347   1.723   3.460
  128CHL1  H19A15699   2.400   1.802   3.517
  128CHL1  H19B15700   2.377   1.624   3.500
  128CHL1  H19C15701   2.382   1.727   3.355
  128CHL1    C115702   2.120   1.623   3.400
  128CHL1   H1A15703   2.157   1.528   3.445
  128CHL1   H1B15704   2.012   1.631   3.421
  128CHL1    C215705   2.140   1.616   3.248
  128CHL1   H2A15706   2.079   1.533   3.206
  128CHL1   H2B15707   2.246   1.595   3.224
  128CHL1   C2015708   2.222   1.751   4.178
  128CHL1   H2015709   2.323   1.798   4.180
  128CHL1   C2115710   2.239   1.598   4.174
  128CHL1  H21A15711   2.280   1.562   4.271
  128CHL1  H21B15712   2.311   1.568   4.094
  128CHL1  H21C15713   2.142   1.548   4.156
  128CHL1   C2215714   2.155   1.788   4.313
  128CHL1  H22A15715   2.093   1.880   4.305
  128CHL1  H22B15716   2.087   1.705   4.342
  128CHL1   C2315717   2.260   1.809   4.422
  128CHL1  H23A15718   2.340   1.734   4.408
  128CHL1  H23B15719   2.306   1.909   4.406
  128CHL1   C2415720   2.207   1.796   4.565
  128CHL1  H24A15721   2.131   1.874   4.584
  128CHL1  H24B15722   2.158   1.697   4.576
  128CHL1   C2515723   2.317   1.808   4.673
  128CHL1   H2515724   2.391   1.727   4.656
  128CHL1   C2615725   2.391   1.942   4.664
  128CHL1  H26A15726   2.446   1.951   4.568
  128CHL1  H26B15727   2.318   2.026   4.671
  128CHL1  H26C15728   2.464   1.952   4.747
  128CHL1   C2715729   2.257   1.790   4.813
  128CHL1  H27A15730   2.208   1.691   4.822
  128CHL1  H27B15731   2.337   1.796   4.891
  128CHL1  H27C15732   2.182   1.869   4.834
  129CHL1    C315733   5.702   6.027   3.174
  129CHL1    H315734   5.776   5.945   3.156
  129CHL1    O315735   5.630   6.051   3.055
  129CHL1   H3'15736   5.697   6.072   2.990
  129CHL1    C415737   5.605   5.984   3.285
  129CHL1   H4A15738   5.525   6.061   3.292
  129CHL1   H4B15739   5.555   5.890   3.252
  129CHL1    C515740   5.673   5.968   3.420
  129CHL1    C615741   5.664   5.853   3.489
  129CHL1    H615742   5.605   5.769   3.448
  129CHL1    C715743   5.725   5.832   3.624
  129CHL1   H7A15744   5.652   5.784   3.692
  129CHL1   H7B15745   5.812   5.764   3.614
  129CHL1    C815746   5.774   5.964   3.690
  129CHL1    H815747   5.685   6.018   3.729
  129CHL1   C1415748   5.870   5.933   3.804
  129CHL1   H1415749   5.957   5.884   3.756
  129CHL1   C1515750   5.823   5.834   3.911
  129CHL1  H15A15751   5.722   5.863   3.947
  129CHL1  H15B15752   5.820   5.729   3.874
  129CHL1   C1615753   5.927   5.853   4.023
  129CHL1  H16A15754   5.876   5.863   4.121
  129CHL1  H16B15755   5.997   5.767   4.025
  129CHL1   C1715756   6.009   5.981   3.988
  129CHL1   H1715757   6.100   5.945   3.934
  129CHL1   C1315758   5.926   6.053   3.879
  129CHL1   C1815759   5.812   6.133   3.947
  129CHL1  H18A15760   5.761   6.073   4.025
  129CHL1  H18B15761   5.854   6.224   3.995
  129CHL1  H18C15762   5.736   6.166   3.873
  129CHL1   C1215763   6.004   6.138   3.776
  129CHL1  H12A15764   6.044   6.231   3.822
  129CHL1  H12B15765   6.091   6.079   3.739
  129CHL1   C1115766   5.915   6.176   3.656
  129CHL1  H11A15767   5.837   6.246   3.694
  129CHL1  H11B15768   5.977   6.230   3.582
  129CHL1    C915769   5.846   6.054   3.588
  129CHL1    H915770   5.929   5.991   3.549
  129CHL1   C1015771   5.757   6.088   3.466
  129CHL1   C1915772   5.658   6.201   3.505
  129CHL1  H19A15773   5.587   6.223   3.423
  129CHL1  H19B15774   5.600   6.173   3.595
  129CHL1  H19C15775   5.713   6.296   3.526
  129CHL1    C115776   5.849   6.136   3.349
  129CHL1   H1A15777   5.898   6.231   3.377
  129CHL1   H1B15778   5.929   6.060   3.335
  129CHL1    C215779   5.777   6.155   3.214
  129CHL1   H2A15780   5.850   6.182   3.135
  129CHL1   H2B15781   5.704   6.238   3.223
  129CHL1   C2015782   6.060   6.052   4.114
  129CHL1   H2015783   5.974   6.078   4.180
  129CHL1   C2115784   6.133   6.183   4.077
  129CHL1  H21A15785   6.217   6.160   4.007
  129CHL1  H21B15786   6.174   6.233   4.167
  129CHL1  H21C15787   6.064   6.255   4.028
  129CHL1   C2215788   6.154   5.956   4.193
  129CHL1  H22A15789   6.095   5.869   4.229
  129CHL1  H22B15790   6.229   5.917   4.120
  129CHL1   C2315791   6.235   6.010   4.312
  129CHL1  H23A15792   6.315   5.936   4.331
  129CHL1  H23B15793   6.286   6.106   4.287
  129CHL1   C2415794   6.154   6.025   4.442
  129CHL1  H24A15795   6.068   6.093   4.423
  129CHL1  H24B15796   6.113   5.926   4.470
  129CHL1   C2515797   6.235   6.081   4.562
  129CHL1   H2515798   6.261   6.186   4.538
  129CHL1   C2615799   6.149   6.080   4.689
  129CHL1  H26A15800   6.126   5.975   4.720
  129CHL1  H26B15801   6.203   6.130   4.773
  129CHL1  H26C15802   6.054   6.133   4.670
  129CHL1   C2715803   6.366   6.005   4.588
  129CHL1  H27A15804   6.347   5.898   4.606
  129CHL1  H27B15805   6.434   6.014   4.500
  129CHL1  H27C15806   6.418   6.047   4.677
  130CHL1    C315807   2.557   6.584   3.249
  130CHL1    H315808   2.455   6.621   3.273
  130CHL1    O315809   2.573   6.585   3.108
  130CHL1   H3'15810   2.653   6.535   3.093
  130CHL1    C415811   2.662   6.678   3.313
  130CHL1   H4A15812   2.763   6.643   3.283
  130CHL1   H4B15813   2.649   6.779   3.268
  130CHL1    C515814   2.650   6.679   3.464
  130CHL1    C615815   2.629   6.794   3.531
  130CHL1    H615816   2.625   6.889   3.475
  130CHL1    C715817   2.618   6.804   3.681
  130CHL1   H7A15818   2.681   6.887   3.719
  130CHL1   H7B15819   2.513   6.826   3.708
  130CHL1    C815820   2.662   6.673   3.753
  130CHL1    H815821   2.773   6.670   3.751
  130CHL1   C1415822   2.613   6.672   3.897
  130CHL1   H1415823   2.502   6.673   3.892
  130CHL1   C1515824   2.649   6.793   3.986
  130CHL1  H15A15825   2.755   6.821   3.970
  130CHL1  H15B15826   2.585   6.881   3.964
  130CHL1   C1615827   2.630   6.740   4.129
  130CHL1  H16A15828   2.723   6.757   4.187
  130CHL1  H16B15829   2.546   6.792   4.181
  130CHL1   C1715830   2.600   6.587   4.119
  130CHL1   H1715831   2.489   6.576   4.116
  130CHL1   C1315832   2.650   6.548   3.977
  130CHL1   C1815833   2.804   6.532   3.983
  130CHL1  H18A15834   2.832   6.440   4.039
  130CHL1  H18B15835   2.848   6.522   3.881
  130CHL1  H18C15836   2.852   6.619   4.032
  130CHL1   C1215837   2.581   6.429   3.907
  130CHL1  H12A15838   2.605   6.332   3.958
  130CHL1  H12B15839   2.471   6.443   3.911
  130CHL1   C1115840   2.625   6.417   3.760
  130CHL1  H11A15841   2.732   6.387   3.759
  130CHL1  H11B15842   2.567   6.335   3.712
  130CHL1    C915843   2.607   6.549   3.679
  130CHL1    H915844   2.497   6.566   3.676
  130CHL1   C1015845   2.654   6.541   3.531
  130CHL1   C1915846   2.801   6.491   3.525
  130CHL1  H19A15847   2.809   6.387   3.564
  130CHL1  H19B15848   2.839   6.489   3.421
  130CHL1  H19C15849   2.868   6.556   3.585
  130CHL1    C115850   2.562   6.440   3.456
  130CHL1   H1A15851   2.584   6.337   3.492
  130CHL1   H1B15852   2.456   6.462   3.483
  130CHL1    C215853   2.574   6.442   3.303
  130CHL1   H2A15854   2.498   6.375   3.257
  130CHL1   H2B15855   2.674   6.403   3.274
  130CHL1   C2015856   2.652   6.506   4.239
  130CHL1   H2015857   2.763   6.509   4.238
  130CHL1   C2115858   2.606   6.359   4.230
  130CHL1  H21A15859   2.626   6.305   4.325
  130CHL1  H21B15860   2.662   6.306   4.150
  130CHL1  H21C15861   2.498   6.353   4.208
  130CHL1   C2215862   2.611   6.563   4.378
  130CHL1  H22A15863   2.613   6.674   4.378
  130CHL1  H22B15864   2.507   6.532   4.401
  130CHL1   C2315865   2.707   6.517   4.489
  130CHL1  H23A15866   2.712   6.406   4.491
  130CHL1  H23B15867   2.809   6.554   4.463
  130CHL1   C2415868   2.671   6.568   4.630
  130CHL1  H24A15869   2.648   6.677   4.623
  130CHL1  H24B15870   2.580   6.516   4.666
  130CHL1   C2515871   2.786   6.550   4.731
  130CHL1   H2515872   2.875   6.602   4.690
  130CHL1   C2615873   2.753   6.615   4.866
  130CHL1  H26A15874   2.668   6.563   4.914
  130CHL1  H26B15875   2.840   6.611   4.935
  130CHL1  H26C15876   2.725   6.722   4.852
  130CHL1   C2715877   2.825   6.403   4.752
  130CHL1  H27A15878   2.908   6.395   4.826
  130CHL1  H27B15879   2.738   6.345   4.791
  130CHL1  H27C15880   2.858   6.356   4.657
  131CHL1    C315881   0.837   5.115   3.217
  131CHL1    H315882   0.869   5.009   3.227
  131CHL1    O315883   0.806   5.144   3.082
  131CHL1   H3'15884   0.831   5.236   3.072
  131CHL1    C415885   0.713   5.141   3.304
  131CHL1   H4A15886   0.672   5.241   3.281
  131CHL1   H4B15887   0.635   5.068   3.273
  131CHL1    C515888   0.742   5.131   3.453
  131CHL1    C615889   0.672   5.051   3.534
  131CHL1    H615890   0.590   4.989   3.494
  131CHL1    C715891   0.694   5.043   3.683
  131CHL1   H7A15892   0.597   5.044   3.737
  131CHL1   H7B15893   0.744   4.946   3.705
  131CHL1    C815894   0.785   5.157   3.738
  131CHL1    H815895   0.725   5.250   3.740
  131CHL1   C1415896   0.832   5.125   3.879
  131CHL1   H1415897   0.887   5.028   3.872
  131CHL1   C1515898   0.723   5.103   3.985
  131CHL1  H15A15899   0.648   5.185   3.978
  131CHL1  H15B15900   0.670   5.006   3.970
  131CHL1   C1615901   0.800   5.113   4.117
  131CHL1  H16A15902   0.746   5.183   4.185
  131CHL1  H16B15903   0.807   5.013   4.166
  131CHL1   C1715904   0.943   5.166   4.084
  131CHL1   H1715905   1.009   5.077   4.074
  131CHL1   C1315906   0.930   5.225   3.941
  131CHL1   C1815907   0.863   5.365   3.953
  131CHL1  H18A15908   0.776   5.364   4.021
  131CHL1  H18B15909   0.937   5.438   3.993
  131CHL1  H18C15910   0.830   5.402   3.854
  131CHL1   C1215911   1.055   5.226   3.851
  131CHL1  H12A15912   1.131   5.298   3.888
  131CHL1  H12B15913   1.100   5.125   3.851
  131CHL1   C1115914   1.017   5.264   3.707
  131CHL1  H11A15915   0.984   5.370   3.708
  131CHL1  H11B15916   1.109   5.260   3.644
  131CHL1    C915917   0.906   5.175   3.645
  131CHL1    H915918   0.951   5.074   3.637
  131CHL1   C1015919   0.863   5.215   3.501
  131CHL1   C1915920   0.815   5.362   3.499
  131CHL1  H19A15921   0.894   5.432   3.533
  131CHL1  H19B15922   0.786   5.394   3.397
  131CHL1  H19C15923   0.726   5.377   3.565
  131CHL1    C115924   0.984   5.193   3.407
  131CHL1   H1A15925   1.065   5.265   3.433
  131CHL1   H1B15926   1.024   5.090   3.423
  131CHL1    C215927   0.951   5.208   3.258
  131CHL1   H2A15928   1.042   5.186   3.197
  131CHL1   H2B15929   0.919   5.312   3.238
  131CHL1   C2015930   1.003   5.254   4.197
  131CHL1   H2015931   0.934   5.339   4.216
  131CHL1   C2115932   1.139   5.312   4.155
  131CHL1  H21A15933   1.128   5.387   4.073
  131CHL1  H21B15934   1.209   5.232   4.122
  131CHL1  H21C15935   1.185   5.366   4.241
  131CHL1   C2215936   1.026   5.180   4.332
  131CHL1  H22A15937   1.082   5.086   4.314
  131CHL1  H22B15938   1.091   5.246   4.394
  131CHL1   C2315939   0.901   5.151   4.416
  131CHL1  H23A15940   0.835   5.241   4.419
  131CHL1  H23B15941   0.844   5.068   4.369
  131CHL1   C2415942   0.935   5.110   4.561
  131CHL1  H24A15943   1.007   5.026   4.559
  131CHL1  H24B15944   0.983   5.196   4.612
  131CHL1   C2515945   0.811   5.067   4.643
  131CHL1   H2515946   0.736   5.148   4.639
  131CHL1   C2615947   0.748   4.939   4.585
  131CHL1  H26A15948   0.701   4.959   4.487
  131CHL1  H26B15949   0.825   4.860   4.573
  131CHL1  H26C15950   0.670   4.901   4.654
  131CHL1   C2715951   0.848   5.044   4.790
  131CHL1  H27A15952   0.924   4.963   4.799
  131CHL1  H27B15953   0.891   5.137   4.834
  131CHL1  H27C15954   0.758   5.015   4.849
  132CHL1    C315955   3.778   7.104   3.285
  132CHL1    H315956   3.757   7.206   3.323
  132CHL1    O315957   3.752   7.102   3.145
  132CHL1   H3'15958   3.666   7.144   3.137
  132CHL1    C415959   3.926   7.068   3.309
  132CHL1   H4A15960   3.946   6.969   3.263
  132CHL1   H4B15961   3.987   7.142   3.253
  132CHL1    C515962   3.958   7.066   3.457
  132CHL1    C615963   4.051   7.148   3.508
  132CHL1    H615964   4.107   7.215   3.441
  132CHL1    C715965   4.088   7.153   3.653
  132CHL1   H7A15966   4.199   7.156   3.665
  132CHL1   H7B15967   4.047   7.246   3.697
  132CHL1    C815968   4.034   7.032   3.734
  132CHL1    H815969   4.099   6.944   3.713
  132CHL1   C1415970   4.036   7.065   3.882
  132CHL1   H1415971   3.962   7.147   3.895
  132CHL1   C1515972   4.166   7.122   3.942
  132CHL1  H15A15973   4.252   7.059   3.911
  132CHL1  H15B15974   4.184   7.227   3.910
  132CHL1   C1615975   4.143   7.111   4.093
  132CHL1  H16A15976   4.230   7.061   4.140
  132CHL1  H16B15977   4.130   7.211   4.140
  132CHL1   C1715978   4.013   7.026   4.113
  132CHL1   H1715979   3.928   7.098   4.120
  132CHL1   C1315980   3.991   6.954   3.977
  132CHL1   C1815981   4.085   6.832   3.969
  132CHL1  H18A15982   4.090   6.791   3.866
  132CHL1  H18B15983   4.188   6.860   4.001
  132CHL1  H18C15984   4.049   6.751   4.036
  132CHL1   C1215985   3.847   6.917   3.939
  132CHL1  H12A15986   3.810   6.831   3.998
  132CHL1  H12B15987   3.783   7.005   3.962
  132CHL1   C1115988   3.833   6.885   3.788
  132CHL1  H11A15989   3.888   6.790   3.770
  132CHL1  H11B15990   3.726   6.867   3.764
  132CHL1    C915991   3.890   6.997   3.695
  132CHL1    H915992   3.830   7.087   3.719
  132CHL1   C1015993   3.870   6.973   3.543
  132CHL1   C1915994   3.908   6.826   3.509
  132CHL1  H19A15995   3.839   6.755   3.559
  132CHL1  H19B15996   3.900   6.806   3.400
  132CHL1  H19C15997   4.012   6.804   3.542
  132CHL1    C115998   3.719   6.998   3.507
  132CHL1   H1A15999   3.656   6.920   3.555
  132CHL1   H1B16000   3.689   7.096   3.550
  132CHL1    C216001   3.687   7.003   3.356
  132CHL1   H2A16002   3.581   7.031   3.342
  132CHL1   H2B16003   3.702   6.902   3.312
  132CHL1   C2016004   4.017   6.947   4.245
  132CHL1   H2016005   4.104   6.878   4.241
  132CHL1   C2116006   3.890   6.861   4.263
  132CHL1  H21A16007   3.890   6.815   4.364
  132CHL1  H21B16008   3.887   6.778   4.189
  132CHL1  H21C16009   3.799   6.923   4.252
  132CHL1   C2216010   4.038   7.039   4.369
  132CHL1  H22A16011   4.047   6.973   4.458
  132CHL1  H22B16012   4.134   7.093   4.359
  132CHL1   C2316013   3.925   7.141   4.395
  132CHL1  H23A16014   3.907   7.200   4.302
  132CHL1  H23B16015   3.831   7.087   4.418
  132CHL1   C2416016   3.955   7.243   4.507
  132CHL1  H24A16017   4.045   7.302   4.478
  132CHL1  H24B16018   3.869   7.314   4.512
  132CHL1   C2516019   3.977   7.186   4.648
  132CHL1   H2516020   4.068   7.123   4.646
  132CHL1   C2616021   4.000   7.300   4.749
  132CHL1  H26A16022   4.024   7.260   4.849
  132CHL1  H26B16023   4.084   7.365   4.715
  132CHL1  H26C16024   3.908   7.363   4.757
  132CHL1   C2716025   3.859   7.100   4.696
  132CHL1  H27A16026   3.845   7.012   4.630
  132CHL1  H27B16027   3.878   7.063   4.800
  132CHL1  H27C16028   3.766   7.160   4.697
  133CHL1    C316029   0.934   2.417   3.206
  133CHL1    H316030   0.996   2.326   3.224
  133CHL1    O316031   0.930   2.442   3.067
  133CHL1   H3'16032   0.999   2.386   3.031
  133CHL1    C416033   0.792   2.394   3.260
  133CHL1   H4A16034   0.731   2.484   3.237
  133CHL1   H4B16035   0.748   2.310   3.203
  133CHL1    C516036   0.793   2.369   3.410
  133CHL1    C616037   0.741   2.256   3.461
  133CHL1    H616038   0.694   2.183   3.393
  133CHL1    C716039   0.739   2.223   3.607
  133CHL1   H7A16040   0.639   2.187   3.638
  133CHL1   H7B16041   0.811   2.140   3.625
  133CHL1    C816042   0.779   2.342   3.698
  133CHL1    H816043   0.690   2.409   3.708
  133CHL1   C1416044   0.820   2.290   3.835
  133CHL1   H1416045   0.912   2.231   3.817
  133CHL1   C1516046   0.724   2.194   3.908
  133CHL1  H15A16047   0.621   2.235   3.904
  133CHL1  H15B16048   0.725   2.093   3.862
  133CHL1   C1616049   0.777   2.194   4.052
  133CHL1  H16A16050   0.693   2.217   4.121
  133CHL1  H16B16051   0.821   2.096   4.079
  133CHL1   C1716052   0.887   2.306   4.060
  133CHL1   H1716053   0.984   2.255   4.038
  133CHL1   C1316054   0.860   2.397   3.938
  133CHL1   C1816055   0.740   2.490   3.971
  133CHL1  H18A16056   0.655   2.433   4.014
  133CHL1  H18B16057   0.771   2.568   4.043
  133CHL1  H18C16058   0.704   2.542   3.879
  133CHL1   C1216059   0.979   2.475   3.878
  133CHL1  H12A16060   1.009   2.559   3.944
  133CHL1  H12B16061   1.066   2.406   3.869
  133CHL1   C1116062   0.946   2.531   3.739
  133CHL1  H11A16063   0.868   2.609   3.753
  133CHL1  H11B16064   1.036   2.582   3.698
  133CHL1    C916065   0.895   2.423   3.639
  133CHL1    H916066   0.979   2.350   3.630
  133CHL1   C1016067   0.868   2.474   3.495
  133CHL1   C1916068   0.780   2.601   3.502
  133CHL1  H19A16069   0.683   2.580   3.551
  133CHL1  H19B16070   0.831   2.682   3.558
  133CHL1  H19C16071   0.761   2.642   3.401
  133CHL1    C116072   1.005   2.510   3.428
  133CHL1   H1A16073   1.048   2.599   3.479
  133CHL1   H1B16074   1.074   2.425   3.444
  133CHL1    C216075   0.997   2.537   3.277
  133CHL1   H2A16076   1.099   2.555   3.237
  133CHL1   H2B16077   0.936   2.627   3.258
  133CHL1   C2016078   0.899   2.365   4.201
  133CHL1   H2016079   0.802   2.413   4.229
  133CHL1   C2116080   1.009   2.473   4.207
  133CHL1  H21A16081   1.024   2.509   4.311
  133CHL1  H21B16082   0.979   2.562   4.147
  133CHL1  H21C16083   1.105   2.433   4.168
  133CHL1   C2216084   0.926   2.253   4.305
  133CHL1  H22A16085   0.840   2.182   4.304
  133CHL1  H22B16086   1.016   2.196   4.274
  133CHL1   C2316087   0.944   2.299   4.450
  133CHL1  H23A16088   1.041   2.352   4.460
  133CHL1  H23B16089   0.863   2.370   4.476
  133CHL1   C2416090   0.941   2.180   4.548
  133CHL1  H24A16091   0.841   2.131   4.540
  133CHL1  H24B16092   1.017   2.105   4.516
  133CHL1   C2516093   0.966   2.214   4.697
  133CHL1   H2516094   0.953   2.120   4.754
  133CHL1   C2616095   1.110   2.263   4.720
  133CHL1  H26A16096   1.128   2.358   4.665
  133CHL1  H26B16097   1.127   2.281   4.828
  133CHL1  H26C16098   1.183   2.187   4.684
  133CHL1   C2716099   0.864   2.316   4.750
  133CHL1  H27A16100   0.876   2.414   4.699
  133CHL1  H27B16101   0.760   2.280   4.733
  133CHL1  H27C16102   0.879   2.332   4.859
  134CHL1    C316103   6.947   2.643   3.206
  134CHL1    H316104   7.015   2.558   3.185
  134CHL1    O316105   6.900   2.697   3.084
  134CHL1   H3'16106   6.884   2.622   3.026
  134CHL1    C416107   6.827   2.594   3.289
  134CHL1   H4A16108   6.751   2.675   3.291
  134CHL1   H4B16109   6.780   2.510   3.233
  134CHL1    C516110   6.863   2.553   3.430
  134CHL1    C616111   6.828   2.434   3.482
  134CHL1    H616112   6.770   2.363   3.422
  134CHL1    C716113   6.855   2.395   3.625
  134CHL1   H7A16114   6.766   2.345   3.669
  134CHL1   H7B16115   6.939   2.323   3.628
  134CHL1    C816116   6.894   2.516   3.715
  134CHL1    H816117   6.802   2.576   3.732
  134CHL1   C1416118   6.946   2.468   3.850
  134CHL1   H1416119   7.035   2.405   3.828
  134CHL1   C1516120   6.852   2.379   3.933
  134CHL1  H15A16121   6.750   2.423   3.933
  134CHL1  H15B16122   6.845   2.276   3.892
  134CHL1   C1616123   6.912   2.385   4.074
  134CHL1  H16A16124   6.832   2.411   4.145
  134CHL1  H16B16125   6.957   2.288   4.104
  134CHL1   C1716126   7.023   2.495   4.072
  134CHL1   H1716127   7.119   2.443   4.054
  134CHL1   C1316128   6.994   2.578   3.944
  134CHL1   C1816129   6.880   2.678   3.975
  134CHL1  H18A16130   6.796   2.628   4.028
  134CHL1  H18B16131   6.918   2.760   4.039
  134CHL1  H18C16132   6.839   2.724   3.883
  134CHL1   C1216133   7.113   2.646   3.873
  134CHL1  H12A16134   7.155   2.728   3.935
  134CHL1  H12B16135   7.193   2.571   3.857
  134CHL1   C1116136   7.070   2.704   3.737
  134CHL1  H11A16137   7.002   2.789   3.757
  134CHL1  H11B16138   7.160   2.745   3.686
  134CHL1    C916139   7.000   2.600   3.643
  134CHL1    H916140   7.080   2.528   3.616
  134CHL1   C1016141   6.945   2.657   3.509
  134CHL1   C1916142   6.849   2.774   3.539
  134CHL1  H19A16143   6.804   2.817   3.447
  134CHL1  H19B16144   6.765   2.741   3.605
  134CHL1  H19C16145   6.901   2.857   3.591
  134CHL1    C116146   7.065   2.705   3.422
  134CHL1   H1A16147   7.118   2.787   3.473
  134CHL1   H1B16148   7.137   2.621   3.411
  134CHL1    C216149   7.025   2.752   3.281
  134CHL1   H2A16150   7.116   2.778   3.223
  134CHL1   H2B16151   6.962   2.843   3.289
  134CHL1   C2016152   7.035   2.568   4.208
  134CHL1   H2016153   6.940   2.623   4.226
  134CHL1   C2116154   7.151   2.669   4.206
  134CHL1  H21A16155   7.166   2.713   4.307
  134CHL1  H21B16156   7.128   2.754   4.137
  134CHL1  H21C16157   7.245   2.620   4.174
  134CHL1   C2216158   7.051   2.469   4.326
  134CHL1  H22A16159   6.976   2.388   4.319
  134CHL1  H22B16160   7.152   2.421   4.321
  134CHL1   C2316161   7.031   2.533   4.465
  134CHL1  H23A16162   7.118   2.596   4.491
  134CHL1  H23B16163   6.942   2.599   4.459
  134CHL1   C2416164   7.007   2.427   4.573
  134CHL1  H24A16165   6.916   2.369   4.548
  134CHL1  H24B16166   7.093   2.356   4.572
  134CHL1   C2516167   6.992   2.482   4.716
  134CHL1   H2516168   7.086   2.535   4.743
  134CHL1   C2616169   6.875   2.581   4.730
  134CHL1  H26A16170   6.866   2.615   4.835
  134CHL1  H26B16171   6.891   2.670   4.665
  134CHL1  H26C16172   6.780   2.532   4.700
  134CHL1   C2716173   6.973   2.365   4.815
  134CHL1  H27A16174   6.972   2.403   4.919
  134CHL1  H27B16175   6.878   2.313   4.794
  134CHL1  H27C16176   7.056   2.292   4.803
  135CHL1    C316177   7.206   3.252   3.241
  135CHL1    H316178   7.286   3.178   3.262
  135CHL1    O316179   7.188   3.262   3.101
  135CHL1   H3'16180   7.148   3.179   3.075
  135CHL1    C416181   7.074   3.207   3.306
  135CHL1   H4A16182   6.995   3.282   3.281
  135CHL1   H4B16183   7.042   3.111   3.259
  135CHL1    C516184   7.087   3.195   3.456
  135CHL1    C616185   7.059   3.080   3.519
  135CHL1    H616186   7.022   2.994   3.461
  135CHL1    C716187   7.070   3.060   3.668
  135CHL1   H7A16188   6.977   3.016   3.709
  135CHL1   H7B16189   7.153   2.989   3.688
  135CHL1    C816190   7.097   3.191   3.747
  135CHL1    H816191   7.001   3.244   3.759
  135CHL1   C1416192   7.153   3.155   3.884
  135CHL1   H1416193   7.250   3.104   3.864
  135CHL1   C1516194   7.072   3.056   3.969
  135CHL1  H15A16195   6.964   3.082   3.964
  135CHL1  H15B16196   7.086   2.951   3.935
  135CHL1   C1616197   7.125   3.079   4.111
  135CHL1  H16A16198   7.039   3.108   4.175
  135CHL1  H16B16199   7.173   2.988   4.153
  135CHL1   C1716200   7.228   3.197   4.102
  135CHL1   H1716201   7.327   3.150   4.080
  135CHL1   C1316202   7.188   3.274   3.974
  135CHL1   C1816203   7.062   3.359   4.005
  135CHL1  H18A16204   7.089   3.445   4.069
  135CHL1  H18B16205   7.017   3.399   3.911
  135CHL1  H18C16206   6.984   3.300   4.057
  135CHL1   C1216207   7.295   3.356   3.899
  135CHL1  H12A16208   7.322   3.448   3.956
  135CHL1  H12B16209   7.387   3.294   3.889
  135CHL1   C1116210   7.247   3.399   3.759
  135CHL1  H11A16211   7.166   3.473   3.771
  135CHL1  H11B16212   7.332   3.449   3.707
  135CHL1    C916213   7.196   3.279   3.672
  135CHL1    H916214   7.286   3.216   3.656
  135CHL1   C1016215   7.146   3.317   3.529
  135CHL1   C1916216   7.032   3.421   3.540
  135CHL1  H19A16217   6.945   3.382   3.597
  135CHL1  H19B16218   7.068   3.514   3.590
  135CHL1  H19C16219   6.995   3.451   3.439
  135CHL1    C116220   7.265   3.378   3.450
  135CHL1   H1A16221   7.283   3.480   3.491
  135CHL1   H1B16222   7.355   3.317   3.469
  135CHL1    C216223   7.246   3.388   3.298
  135CHL1   H2A16224   7.341   3.421   3.250
  135CHL1   H2B16225   7.168   3.463   3.274
  135CHL1   C2016226   7.243   3.272   4.236
  135CHL1   H2016227   7.149   3.324   4.260
  135CHL1   C2116228   7.355   3.377   4.226
  135CHL1  H21A16229   7.377   3.421   4.326
  135CHL1  H21B16230   7.324   3.461   4.160
  135CHL1  H21C16231   7.449   3.332   4.186
  135CHL1   C2216232   7.275   3.176   4.355
  135CHL1  H22A16233   7.320   3.082   4.317
  135CHL1  H22B16234   7.351   3.223   4.420
  135CHL1   C2316235   7.153   3.144   4.444
  135CHL1  H23A16236   7.120   3.238   4.494
  135CHL1  H23B16237   7.069   3.109   4.380
  135CHL1   C2416238   7.183   3.037   4.550
  135CHL1  H24A16239   7.213   2.943   4.499
  135CHL1  H24B16240   7.270   3.071   4.611
  135CHL1   C2516241   7.065   3.007   4.645
  135CHL1   H2516242   7.036   3.102   4.694
  135CHL1   C2616243   6.942   2.952   4.570
  135CHL1  H26A16244   6.903   3.026   4.498
  135CHL1  H26B16245   6.969   2.859   4.515
  135CHL1  H26C16246   6.861   2.928   4.642
  135CHL1   C2716247   7.108   2.908   4.755
  135CHL1  H27A16248   7.024   2.890   4.825
  135CHL1  H27B16249   7.137   2.811   4.709
  135CHL1  H27C16250   7.194   2.949   4.812
  136CHL1    C316251   5.548   0.464   3.209
  136CHL1    H316252   5.437   0.478   3.208
  136CHL1    O316253   5.594   0.449   3.076
  136CHL1   H3'16254   5.601   0.539   3.043
  136CHL1    C416255   5.614   0.587   3.271
  136CHL1   H4A16256   5.724   0.580   3.258
  136CHL1   H4B16257   5.583   0.677   3.214
  136CHL1    C516258   5.580   0.601   3.418
  136CHL1    C616259   5.519   0.710   3.466
  136CHL1    H616260   5.496   0.793   3.398
  136CHL1    C716261   5.486   0.730   3.611
  136CHL1   H7A16262   5.511   0.834   3.642
  136CHL1   H7B16263   5.376   0.715   3.625
  136CHL1    C816264   5.563   0.631   3.703
  136CHL1    H816265   5.668   0.667   3.706
  136CHL1   C1416266   5.502   0.631   3.842
  136CHL1   H1416267   5.401   0.587   3.831
  136CHL1   C1516268   5.478   0.767   3.909
  136CHL1  H15A16269   5.570   0.829   3.900
  136CHL1  H15B16270   5.393   0.821   3.863
  136CHL1   C1616271   5.452   0.729   4.055
  136CHL1  H16A16272   5.508   0.798   4.121
  136CHL1  H16B16273   5.343   0.738   4.078
  136CHL1   C1716274   5.497   0.581   4.073
  136CHL1   H1716275   5.405   0.519   4.071
  136CHL1   C1316276   5.575   0.545   3.944
  136CHL1   C1816277   5.722   0.591   3.959
  136CHL1  H18A16278   5.776   0.528   4.033
  136CHL1  H18B16279   5.778   0.583   3.863
  136CHL1  H18C16280   5.728   0.697   3.993
  136CHL1   C1216281   5.564   0.399   3.894
  136CHL1  H12A16282   5.620   0.330   3.961
  136CHL1  H12B16283   5.458   0.369   3.894
  136CHL1   C1116284   5.619   0.385   3.750
  136CHL1  H11A16285   5.729   0.399   3.757
  136CHL1  H11B16286   5.601   0.282   3.714
  136CHL1    C916287   5.559   0.488   3.649
  136CHL1    H916288   5.451   0.463   3.643
  136CHL1   C1016289   5.614   0.477   3.504
  136CHL1   C1916290   5.768   0.463   3.510
  136CHL1  H19A16291   5.813   0.547   3.567
  136CHL1  H19B16292   5.798   0.367   3.558
  136CHL1  H19C16293   5.814   0.462   3.408
  136CHL1    C116294   5.549   0.352   3.437
  136CHL1   H1A16295   5.581   0.260   3.491
  136CHL1   H1B16296   5.439   0.360   3.447
  136CHL1    C216297   5.582   0.336   3.288
  136CHL1   H2A16298   5.527   0.250   3.245
  136CHL1   H2B16299   5.691   0.316   3.278
  136CHL1   C2016300   5.563   0.557   4.210
  136CHL1   H2016301   5.656   0.617   4.214
  136CHL1   C2116302   5.599   0.408   4.229
  136CHL1  H21A16303   5.638   0.390   4.332
  136CHL1  H21B16304   5.678   0.377   4.158
  136CHL1  H21C16305   5.509   0.344   4.214
  136CHL1   C2216306   5.474   0.604   4.328
  136CHL1  H22A16307   5.422   0.700   4.303
  136CHL1  H22B16308   5.395   0.528   4.346
  136CHL1   C2316309   5.554   0.631   4.456
  136CHL1  H23A16310   5.600   0.537   4.493
  136CHL1  H23B16311   5.637   0.700   4.429
  136CHL1   C2416312   5.473   0.699   4.568
  136CHL1  H24A16313   5.540   0.717   4.654
  136CHL1  H24B16314   5.439   0.798   4.531
  136CHL1   C2516315   5.350   0.620   4.617
  136CHL1   H2516316   5.282   0.605   4.531
  136CHL1   C2616317   5.388   0.482   4.672
  136CHL1  H26A16318   5.461   0.492   4.755
  136CHL1  H26B16319   5.297   0.430   4.711
  136CHL1  H26C16320   5.432   0.418   4.593
  136CHL1   C2716321   5.275   0.702   4.723
  136CHL1  H27A16322   5.184   0.647   4.757
  136CHL1  H27B16323   5.340   0.721   4.811
  136CHL1  H27C16324   5.243   0.799   4.680
  137CHL1    C316325   0.453   1.582   3.263
  137CHL1    H316326   0.398   1.487   3.277
  137CHL1    O316327   0.467   1.608   3.124
  137CHL1   H3'16328   0.515   1.532   3.090
  137CHL1    C416329   0.375   1.696   3.330
  137CHL1   H4A16330   0.423   1.792   3.301
  137CHL1   H4B16331   0.273   1.697   3.285
  137CHL1    C516332   0.370   1.685   3.481
  137CHL1    C616333   0.253   1.683   3.549
  137CHL1    H616334   0.159   1.692   3.493
  137CHL1    C716335   0.244   1.680   3.699
  137CHL1   H7A16336   0.168   1.753   3.735
  137CHL1   H7B16337   0.212   1.579   3.733
  137CHL1    C816338   0.380   1.712   3.767
  137CHL1    H816339   0.399   1.821   3.755
  137CHL1   C1416340   0.374   1.679   3.916
  137CHL1   H1416341   0.356   1.570   3.923
  137CHL1   C1516342   0.262   1.744   4.000
  137CHL1  H15A16343   0.252   1.851   3.970
  137CHL1  H15B16344   0.165   1.693   3.985
  137CHL1   C1616345   0.313   1.734   4.144
  137CHL1  H16A16346   0.314   1.836   4.189
  137CHL1  H16B16347   0.248   1.669   4.206
  137CHL1   C1716348   0.459   1.678   4.137
  137CHL1   H1716349   0.451   1.568   4.145
  137CHL1   C1316350   0.505   1.705   3.992
  137CHL1   C1816351   0.546   1.854   3.981
  137CHL1  H18A16352   0.469   1.921   4.023
  137CHL1  H18B16353   0.642   1.872   4.035
  137CHL1  H18C16354   0.563   1.884   3.875
  137CHL1   C1216355   0.608   1.608   3.931
  137CHL1  H12A16356   0.708   1.619   3.979
  137CHL1  H12B16357   0.574   1.504   3.947
  137CHL1   C1116358   0.625   1.633   3.780
  137CHL1  H11A16359   0.677   1.731   3.769
  137CHL1  H11B16360   0.693   1.555   3.739
  137CHL1    C916361   0.492   1.632   3.700
  137CHL1    H916362   0.458   1.527   3.704
  137CHL1   C1016363   0.507   1.668   3.549
  137CHL1   C1916364   0.585   1.801   3.536
  137CHL1  H19A16365   0.590   1.836   3.430
  137CHL1  H19B16366   0.538   1.881   3.597
  137CHL1  H19C16367   0.690   1.788   3.569
  137CHL1    C116368   0.583   1.552   3.477
  137CHL1   H1A16369   0.686   1.545   3.519
  137CHL1   H1B16370   0.532   1.457   3.499
  137CHL1    C216371   0.593   1.568   3.325
  137CHL1   H2A16372   0.645   1.479   3.282
  137CHL1   H2B16373   0.653   1.658   3.301
  137CHL1   C2016374   0.545   1.726   4.256
  137CHL1   H2016375   0.551   1.837   4.254
  137CHL1   C2116376   0.689   1.670   4.244
  137CHL1  H21A16377   0.688   1.560   4.235
  137CHL1  H21B16378   0.751   1.699   4.331
  137CHL1  H21C16379   0.740   1.713   4.155
  137CHL1   C2216380   0.480   1.684   4.390
  137CHL1  H22A16381   0.382   1.735   4.401
  137CHL1  H22B16382   0.461   1.575   4.387
  137CHL1   C2316383   0.562   1.713   4.517
  137CHL1  H23A16384   0.658   1.657   4.511
  137CHL1  H23B16385   0.586   1.822   4.524
  137CHL1   C2416386   0.488   1.668   4.645
  137CHL1  H24A16387   0.401   1.735   4.661
  137CHL1  H24B16388   0.449   1.566   4.628
  137CHL1   C2516389   0.576   1.665   4.772
  137CHL1   H2516390   0.622   1.765   4.785
  137CHL1   C2616391   0.490   1.636   4.896
  137CHL1  H26A16392   0.408   1.711   4.905
  137CHL1  H26B16393   0.444   1.535   4.889
  137CHL1  H26C16394   0.552   1.641   4.988
  137CHL1   C2716395   0.687   1.560   4.762
  137CHL1  H27A16396   0.760   1.586   4.682
  137CHL1  H27B16397   0.742   1.552   4.858
  137CHL1  H27C16398   0.643   1.460   4.739
  138CHL1    C316399   6.890   1.085   3.159
  138CHL1    H316400   6.963   1.005   3.132
  138CHL1    O316401   6.831   1.136   3.040
  138CHL1   H3'16402   6.801   1.057   2.993
  138CHL1    C416403   6.779   1.026   3.248
  138CHL1   H4A16404   6.700   1.102   3.261
  138CHL1   H4B16405   6.733   0.941   3.193
  138CHL1    C516406   6.830   0.984   3.384
  138CHL1    C616407   6.811   0.860   3.432
  138CHL1    H616408   6.754   0.787   3.372
  138CHL1    C716409   6.852   0.816   3.570
  138CHL1   H7A16410   6.773   0.757   3.620
  138CHL1   H7B16411   6.943   0.753   3.564
  138CHL1    C816412   6.886   0.938   3.661
  138CHL1    H816413   6.789   0.989   3.682
  138CHL1   C1416414   6.947   0.893   3.793
  138CHL1   H1416415   7.041   0.840   3.768
  138CHL1   C1516416   6.866   0.796   3.880
  138CHL1  H15A16417   6.758   0.821   3.871
  138CHL1  H15B16418   6.880   0.690   3.849
  138CHL1   C1616419   6.917   0.821   4.023
  138CHL1  H16A16420   6.831   0.852   4.087
  138CHL1  H16B16421   6.961   0.729   4.067
  138CHL1   C1716422   7.022   0.936   4.015
  138CHL1   H1716423   7.120   0.887   3.999
  138CHL1   C1316424   6.987   1.009   3.884
  138CHL1   C1816425   6.864   1.100   3.912
  138CHL1  H18A16426   6.782   1.043   3.960
  138CHL1  H18B16427   6.892   1.184   3.979
  138CHL1  H18C16428   6.823   1.146   3.819
  138CHL1   C1216429   7.101   1.082   3.810
  138CHL1  H12A16430   7.145   1.164   3.869
  138CHL1  H12B16431   7.182   1.008   3.792
  138CHL1   C1116432   7.051   1.138   3.675
  138CHL1  H11A16433   6.981   1.222   3.698
  138CHL1  H11B16434   7.136   1.183   3.620
  138CHL1    C916435   6.979   1.033   3.585
  138CHL1    H916436   7.062   0.968   3.549
  138CHL1   C1016437   6.910   1.092   3.459
  138CHL1   C1916438   6.810   1.204   3.502
  138CHL1  H19A16439   6.737   1.166   3.576
  138CHL1  H19B16440   6.864   1.291   3.545
  138CHL1  H19C16441   6.753   1.243   3.415
  138CHL1    C116442   7.019   1.152   3.365
  138CHL1   H1A16443   7.068   1.238   3.415
  138CHL1   H1B16444   7.097   1.075   3.347
  138CHL1    C216445   6.964   1.199   3.229
  138CHL1   H2A16446   7.048   1.234   3.165
  138CHL1   H2B16447   6.895   1.285   3.244
  138CHL1   C2016448   7.031   1.019   4.145
  138CHL1   H2016449   6.936   1.074   4.160
  138CHL1   C2116450   7.145   1.123   4.135
  138CHL1  H21A16451   7.239   1.075   4.100
  138CHL1  H21B16452   7.166   1.171   4.233
  138CHL1  H21C16453   7.117   1.205   4.065
  138CHL1   C2216454   7.052   0.934   4.273
  138CHL1  H22A16455   6.985   0.845   4.270
  138CHL1  H22B16456   7.157   0.899   4.275
  138CHL1   C2316457   7.019   1.012   4.402
  138CHL1  H23A16458   7.094   1.093   4.416
  138CHL1  H23B16459   6.919   1.059   4.391
  138CHL1   C2416460   7.020   0.922   4.526
  138CHL1  H24A16461   6.945   0.840   4.510
  138CHL1  H24B16462   7.120   0.874   4.534
  138CHL1   C2516463   6.988   0.992   4.660
  138CHL1   H2516464   6.996   0.914   4.739
  138CHL1   C2616465   7.089   1.102   4.693
  138CHL1  H26A16466   7.193   1.062   4.690
  138CHL1  H26B16467   7.082   1.185   4.620
  138CHL1  H26C16468   7.070   1.143   4.794
  138CHL1   C2716469   6.844   1.045   4.663
  138CHL1  H27A16470   6.771   0.964   4.641
  138CHL1  H27B16471   6.820   1.087   4.764
  138CHL1  H27C16472   6.830   1.126   4.589
  139CHL1    C316473   0.137   6.488   3.264
  139CHL1    H316474   0.034   6.464   3.298
  139CHL1    O316475   0.135   6.502   3.123
  139CHL1   H3'16476   0.125   6.413   3.088
  139CHL1    C416477   0.185   6.618   3.329
  139CHL1   H4A16478   0.285   6.643   3.286
  139CHL1   H4B16479   0.117   6.700   3.298
  139CHL1    C516480   0.194   6.605   3.480
  139CHL1    C616481   0.128   6.689   3.561
  139CHL1    H616482   0.070   6.772   3.518
  139CHL1    C716483   0.132   6.680   3.711
  139CHL1   H7A16484   0.145   6.781   3.755
  139CHL1   H7B16485   0.035   6.640   3.747
  139CHL1    C816486   0.244   6.588   3.764
  139CHL1    H816487   0.340   6.643   3.754
  139CHL1   C1416488   0.218   6.555   3.910
  139CHL1   H1416489   0.123   6.499   3.913
  139CHL1   C1516490   0.198   6.673   4.007
  139CHL1  H15A16491   0.278   6.748   3.990
  139CHL1  H15B16492   0.099   6.721   3.994
  139CHL1   C1616493   0.213   6.608   4.145
  139CHL1  H16A16494   0.283   6.669   4.206
  139CHL1  H16B16495   0.116   6.601   4.197
  139CHL1   C1716496   0.272   6.464   4.123
  139CHL1   H1716497   0.186   6.394   4.127
  139CHL1   C1316498   0.322   6.464   3.976
  139CHL1   C1816499   0.463   6.528   3.971
  139CHL1  H18A16500   0.494   6.550   3.867
  139CHL1  H18B16501   0.466   6.624   4.028
  139CHL1  H18C16502   0.538   6.459   4.014
  139CHL1   C1216503   0.318   6.330   3.898
  139CHL1  H12A16504   0.392   6.258   3.938
  139CHL1  H12B16505   0.217   6.286   3.909
  139CHL1   C1116506   0.345   6.352   3.748
  139CHL1  H11A16507   0.451   6.382   3.736
  139CHL1  H11B16508   0.332   6.254   3.696
  139CHL1    C916509   0.251   6.458   3.683
  139CHL1    H916510   0.149   6.415   3.691
  139CHL1   C1016511   0.275   6.484   3.531
  139CHL1   C1916512   0.425   6.517   3.508
  139CHL1  H19A16513   0.457   6.604   3.570
  139CHL1  H19B16514   0.489   6.430   3.534
  139CHL1  H19C16515   0.445   6.542   3.402
  139CHL1    C116516   0.236   6.355   3.453
  139CHL1   H1A16517   0.308   6.275   3.477
  139CHL1   H1B16518   0.136   6.322   3.487
  139CHL1    C216519   0.231   6.373   3.300
  139CHL1   H2A16520   0.196   6.279   3.252
  139CHL1   H2B16521   0.332   6.395   3.261
  139CHL1   C2016522   0.370   6.424   4.235
  139CHL1   H2016523   0.461   6.487   4.225
  139CHL1   C2116524   0.410   6.276   4.220
  139CHL1  H21A16525   0.473   6.244   4.305
  139CHL1  H21B16526   0.469   6.260   4.127
  139CHL1  H21C16527   0.320   6.211   4.217
  139CHL1   C2216528   0.318   6.449   4.379
  139CHL1  H22A16529   0.256   6.541   4.384
  139CHL1  H22B16530   0.253   6.364   4.410
  139CHL1   C2316531   0.432   6.469   4.480
  139CHL1  H23A16532   0.492   6.375   4.488
  139CHL1  H23B16533   0.499   6.548   4.440
  139CHL1   C2416534   0.382   6.511   4.619
  139CHL1  H24A16535   0.313   6.598   4.608
  139CHL1  H24B16536   0.323   6.427   4.662
  139CHL1   C2516537   0.492   6.551   4.720
  139CHL1   H2516538   0.442   6.574   4.816
  139CHL1   C2616539   0.591   6.436   4.746
  139CHL1  H26A16540   0.647   6.412   4.654
  139CHL1  H26B16541   0.664   6.464   4.825
  139CHL1  H26C16542   0.536   6.345   4.779
  139CHL1   C2716543   0.568   6.678   4.677
  139CHL1  H27A16544   0.639   6.709   4.756
  139CHL1  H27B16545   0.625   6.660   4.583
  139CHL1  H27C16546   0.496   6.761   4.658
  140CHL1    C316547   7.209   0.475   3.213
  140CHL1    H316548   7.320   0.471   3.227
  140CHL1    O316549   7.181   0.489   3.075
  140CHL1   H3'16550   7.223   0.414   3.033
  140CHL1    C416551   7.145   0.345   3.266
  140CHL1   H4A16552   7.037   0.348   3.241
  140CHL1   H4B16553   7.189   0.261   3.209
  140CHL1    C516554   7.162   0.327   3.416
  140CHL1    C616555   7.215   0.215   3.468
  140CHL1    H616556   7.244   0.133   3.400
  140CHL1    C716557   7.230   0.189   3.615
  140CHL1   H7A16558   7.193   0.087   3.641
  140CHL1   H7B16559   7.337   0.193   3.642
  140CHL1    C816560   7.153   0.292   3.703
  140CHL1    H816561   7.046   0.266   3.700
  140CHL1   C1416562   7.203   0.285   3.847
  140CHL1   H1416563   7.310   0.311   3.843
  140CHL1   C1516564   7.197   0.148   3.919
  140CHL1  H15A16565   7.098   0.102   3.900
  140CHL1  H15B16566   7.277   0.080   3.883
  140CHL1   C1616567   7.211   0.184   4.068
  140CHL1  H16A16568   7.127   0.138   4.124
  140CHL1  H16B16569   7.307   0.148   4.111
  140CHL1   C1716570   7.208   0.340   4.075
  140CHL1   H1716571   7.314   0.370   4.060
  140CHL1   C1316572   7.140   0.386   3.944
  140CHL1   C1816573   6.987   0.364   3.953
  140CHL1  H18A16574   6.939   0.368   3.852
  140CHL1  H18B16575   6.961   0.267   4.000
  140CHL1  H18C16576   6.940   0.446   4.012
  140CHL1   C1216577   7.173   0.527   3.892
  140CHL1  H12A16578   7.127   0.604   3.956
  140CHL1  H12B16579   7.284   0.542   3.894
  140CHL1   C1116580   7.124   0.545   3.747
  140CHL1  H11A16581   7.013   0.546   3.749
  140CHL1  H11B16582   7.157   0.644   3.710
  140CHL1    C916583   7.173   0.434   3.648
  140CHL1    H916584   7.283   0.448   3.643
  140CHL1   C1016585   7.121   0.448   3.502
  140CHL1   C1916586   6.966   0.452   3.502
  140CHL1  H19A16587   6.923   0.360   3.547
  140CHL1  H19B16588   6.928   0.539   3.559
  140CHL1  H19C16589   6.926   0.461   3.399
  140CHL1    C116590   7.179   0.579   3.441
  140CHL1   H1A16591   7.136   0.667   3.493
  140CHL1   H1B16592   7.289   0.581   3.458
  140CHL1    C216593   7.155   0.596   3.290
  140CHL1   H2A16594   7.205   0.689   3.254
  140CHL1   H2B16595   7.046   0.606   3.270
  140CHL1   C2016596   7.175   0.398   4.215
  140CHL1   H2016597   7.249   0.350   4.283
  140CHL1   C2116598   7.036   0.359   4.270
  140CHL1  H21A16599   7.017   0.250   4.261
  140CHL1  H21B16600   6.956   0.414   4.217
  140CHL1  H21C16601   7.029   0.386   4.378
  140CHL1   C2216602   7.202   0.550   4.227
  140CHL1  H22A16603   7.298   0.573   4.176
  140CHL1  H22B16604   7.121   0.604   4.172
  140CHL1   C2316605   7.207   0.607   4.371
  140CHL1  H23A16606   7.225   0.716   4.363
  140CHL1  H23B16607   7.108   0.593   4.418
  140CHL1   C2416608   7.317   0.547   4.461
  140CHL1  H24A16609   7.295   0.439   4.476
  140CHL1  H24B16610   7.415   0.554   4.408
  140CHL1   C2516611   7.331   0.612   4.601
  140CHL1   H2516612   7.405   0.551   4.657
  140CHL1   C2616613   7.200   0.609   4.682
  140CHL1  H26A16614   7.161   0.505   4.688
  140CHL1  H26B16615   7.218   0.646   4.785
  140CHL1  H26C16616   7.123   0.673   4.634
  140CHL1   C2716617   7.388   0.755   4.594
  140CHL1  H27A16618   7.324   0.821   4.533
  140CHL1  H27B16619   7.396   0.798   4.696
  140CHL1  H27C16620   7.490   0.753   4.549
  141DOPC     N16621   3.879   2.840   7.143
  141DOPC   C1216622   3.956   2.708   7.137
  141DOPC  H12A16623   3.888   2.629   7.167
  141DOPC  H12B16624   4.034   2.712   7.212
  141DOPC   C1316625   3.792   2.855   7.021
  141DOPC  H13A16626   3.738   2.948   7.023
  141DOPC  H13B16627   3.853   2.853   6.932
  141DOPC  H13C16628   3.722   2.773   7.015
  141DOPC   C1416629   3.975   2.955   7.151
  141DOPC  H14A16630   4.040   2.957   7.066
  141DOPC  H14B16631   3.924   3.050   7.158
  141DOPC  H14C16632   4.038   2.945   7.238
  141DOPC   C1516633   3.793   2.840   7.265
  141DOPC  H15A16634   3.733   2.930   7.272
  141DOPC  H15B16635   3.853   2.835   7.355
  141DOPC  H15C16636   3.726   2.755   7.266
  141DOPC   C1116637   4.022   2.664   7.003
  141DOPC  H11A16638   4.064   2.563   7.020
  141DOPC  H11B16639   3.944   2.651   6.925
  141DOPC     P16640   4.118   2.854   6.844
  141DOPC   O1316641   4.158   2.986   6.895
  141DOPC   O1416642   3.985   2.842   6.779
  141DOPC   O1216643   4.128   2.751   6.963
  141DOPC   O1116644   4.231   2.796   6.747
  141DOPC    C116645   4.245   2.863   6.620
  141DOPC    HA16646   4.304   2.957   6.632
  141DOPC    HB16647   4.146   2.891   6.577
  141DOPC    C216648   4.313   2.776   6.510
  141DOPC    HS16649   4.421   2.768   6.535
  141DOPC   O2116650   4.295   2.847   6.387
  141DOPC   C2116651   4.359   2.798   6.282
  141DOPC   O2216652   4.446   2.713   6.287
  141DOPC   C2216653   4.301   2.856   6.153
  141DOPC   H2R16654   4.264   2.770   6.093
  141DOPC   H2S16655   4.384   2.905   6.098
  141DOPC    C316656   4.253   2.632   6.502
  141DOPC    HX16657   4.290   2.575   6.590
  141DOPC    HY16658   4.294   2.578   6.414
  141DOPC   O3116659   4.109   2.635   6.491
  141DOPC   C3116660   4.040   2.591   6.595
  141DOPC   O3216661   4.088   2.537   6.694
  141DOPC   C3216662   3.892   2.621   6.575
  141DOPC   H2X16663   3.847   2.616   6.676
  141DOPC   H2Y16664   3.882   2.725   6.539
  141DOPC   C2316665   4.185   2.957   6.176
  141DOPC   H3R16666   4.228   3.052   6.213
  141DOPC   H3S16667   4.114   2.920   6.253
  141DOPC   C2416668   4.102   2.984   6.050
  141DOPC   H4R16669   4.041   2.895   6.026
  141DOPC   H4S16670   4.171   3.001   5.964
  141DOPC   C2516671   4.012   3.107   6.070
  141DOPC   H5R16672   4.076   3.192   6.100
  141DOPC   H5S16673   3.943   3.087   6.154
  141DOPC   C2616674   3.930   3.148   5.946
  141DOPC   H6R16675   3.875   3.241   5.972
  141DOPC   H6S16676   3.855   3.069   5.924
  141DOPC   C2716677   4.015   3.175   5.821
  141DOPC   H7R16678   4.056   3.079   5.781
  141DOPC   H7S16679   4.102   3.238   5.850
  141DOPC   C2816680   3.939   3.249   5.710
  141DOPC   H8R16681   4.012   3.276   5.631
  141DOPC   H8S16682   3.901   3.345   5.753
  141DOPC   C2916683   3.824   3.169   5.655
  141DOPC   H9R16684   3.742   3.149   5.727
  141DOPC  C21016685   3.813   3.120   5.530
  141DOPC  H10R16686   3.724   3.060   5.504
  141DOPC  C21116687   3.914   3.136   5.419
  141DOPC  H11R16688   3.947   3.241   5.412
  141DOPC  H11S16689   3.867   3.111   5.322
  141DOPC  C21216690   4.039   3.046   5.437
  141DOPC  H12R16691   4.093   3.075   5.529
  141DOPC  H12S16692   4.107   3.066   5.351
  141DOPC  C21316693   4.007   2.896   5.442
  141DOPC  H13R16694   3.956   2.867   5.347
  141DOPC  H13S16695   3.935   2.878   5.525
  141DOPC  C21416696   4.129   2.806   5.465
  141DOPC  H14R16697   4.096   2.700   5.469
  141DOPC  H14S16698   4.174   2.832   5.563
  141DOPC  C21516699   4.239   2.819   5.358
  141DOPC  H15R16700   4.326   2.757   5.388
  141DOPC  H15S16701   4.274   2.924   5.354
  141DOPC  C21616702   4.194   2.775   5.218
  141DOPC  H16R16703   4.102   2.830   5.188
  141DOPC  H16S16704   4.167   2.667   5.222
  141DOPC  C21716705   4.301   2.796   5.110
  141DOPC  H17R16706   4.287   2.721   5.030
  141DOPC  H17S16707   4.401   2.777   5.155
  141DOPC  C21816708   4.298   2.935   5.045
  141DOPC  H18R16709   4.206   2.948   4.984
  141DOPC  H18S16710   4.386   2.948   4.978
  141DOPC  H18T16711   4.300   3.014   5.122
  141DOPC   C3316712   3.820   2.520   6.482
  141DOPC   H3X16713   3.711   2.529   6.500
  141DOPC   H3Y16714   3.850   2.416   6.507
  141DOPC   C3416715   3.843   2.543   6.331
  141DOPC   H4X16716   3.787   2.465   6.276
  141DOPC   H4Y16717   3.950   2.531   6.306
  141DOPC   C3516718   3.795   2.680   6.282
  141DOPC   H5X16719   3.866   2.759   6.314
  141DOPC   H5Y16720   3.696   2.703   6.328
  141DOPC   C3616721   3.779   2.687   6.129
  141DOPC   H6X16722   3.875   2.660   6.081
  141DOPC   H6Y16723   3.703   2.611   6.097
  141DOPC   C3716724   3.734   2.826   6.081
  141DOPC   H7X16725   3.646   2.856   6.141
  141DOPC   H7Y16726   3.815   2.899   6.101
  141DOPC   C3816727   3.694   2.831   5.932
  141DOPC   H8X16728   3.658   2.934   5.910
  141DOPC   H8Y16729   3.607   2.764   5.918
  141DOPC   C3916730   3.808   2.799   5.837
  141DOPC   H9X16731   3.902   2.851   5.859
  141DOPC  C31016732   3.803   2.717   5.731
  141DOPC  H10X16733   3.894   2.704   5.670
  141DOPC  C31116734   3.684   2.639   5.682
  141DOPC  H11X16735   3.606   2.630   5.760
  141DOPC  H11Y16736   3.714   2.535   5.656
  141DOPC  C31216737   3.617   2.703   5.558
  141DOPC  H12X16738   3.604   2.812   5.573
  141DOPC  H12Y16739   3.516   2.659   5.548
  141DOPC  C31316740   3.693   2.677   5.427
  141DOPC  H13X16741   3.795   2.720   5.431
  141DOPC  H13Y16742   3.703   2.567   5.415
  141DOPC  C31416743   3.618   2.732   5.304
  141DOPC  H14X16744   3.510   2.710   5.317
  141DOPC  H14Y16745   3.629   2.843   5.299
  141DOPC  C31516746   3.662   2.668   5.172
  141DOPC  H15X16747   3.586   2.690   5.094
  141DOPC  H15Y16748   3.663   2.557   5.186
  141DOPC  C31616749   3.798   2.713   5.118
  141DOPC  H16X16750   3.876   2.709   5.198
  141DOPC  H16Y16751   3.828   2.640   5.040
  141DOPC  C31716752   3.795   2.852   5.053
  141DOPC  H17X16753   3.698   2.865   5.001
  141DOPC  H17Y16754   3.801   2.929   5.132
  141DOPC  C31816755   3.907   2.872   4.950
  141DOPC  H18X16756   3.895   2.801   4.866
  141DOPC  H18Y16757   3.904   2.975   4.909
  141DOPC  H18Z16758   4.006   2.855   4.997
  142DOPC     N16759   4.392   3.204   7.049
  142DOPC   C1216760   4.461   3.231   6.916
  142DOPC  H12A16761   4.475   3.337   6.906
  142DOPC  H12B16762   4.396   3.200   6.836
  142DOPC   C1316763   4.247   3.241   7.041
  142DOPC  H13A16764   4.198   3.178   6.969
  142DOPC  H13B16765   4.198   3.225   7.137
  142DOPC  H13C16766   4.233   3.344   7.013
  142DOPC   C1416767   4.460   3.281   7.157
  142DOPC  H14A16768   4.566   3.258   7.154
  142DOPC  H14B16769   4.452   3.388   7.140
  142DOPC  H14C16770   4.423   3.257   7.255
  142DOPC   C1516771   4.401   3.057   7.080
  142DOPC  H15A16772   4.344   3.001   7.007
  142DOPC  H15B16773   4.364   3.034   7.178
  142DOPC  H15C16774   4.505   3.027   7.076
  142DOPC   C1116775   4.601   3.166   6.896
  142DOPC  H11A16776   4.592   3.055   6.894
  142DOPC  H11B16777   4.640   3.197   6.797
  142DOPC     P16778   4.843   3.177   6.991
  142DOPC   O1316779   4.862   3.031   6.994
  142DOPC   O1416780   4.906   3.254   7.102
  142DOPC   O1216781   4.689   3.207   7.001
  142DOPC   O1116782   4.880   3.242   6.851
  142DOPC    C116783   4.871   3.385   6.838
  142DOPC    HA16784   4.959   3.433   6.886
  142DOPC    HB16785   4.780   3.425   6.889
  142DOPC    C216786   4.866   3.434   6.690
  142DOPC    HS16787   4.856   3.545   6.692
  142DOPC   O2116788   4.757   3.374   6.618
  142DOPC   C2116789   4.636   3.418   6.643
  142DOPC   O2216790   4.605   3.503   6.724
  142DOPC   C2216791   4.534   3.346   6.553
  142DOPC   H2R16792   4.453   3.418   6.531
  142DOPC   H2S16793   4.491   3.265   6.615
  142DOPC    C316794   4.996   3.402   6.612
  142DOPC    HX16795   4.997   3.294   6.584
  142DOPC    HY16796   5.082   3.418   6.680
  142DOPC   O3116797   5.009   3.492   6.499
  142DOPC   C3116798   4.971   3.447   6.380
  142DOPC   O3216799   4.941   3.333   6.352
  142DOPC   C3216800   4.970   3.567   6.284
  142DOPC   H2X16801   4.907   3.646   6.329
  142DOPC   H2Y16802   5.074   3.604   6.277
  142DOPC   C2316803   4.589   3.286   6.420
  142DOPC   H3R16804   4.700   3.294   6.415
  142DOPC   H3S16805   4.552   3.345   6.333
  142DOPC   C2416806   4.555   3.137   6.400
  142DOPC   H4R16807   4.466   3.126   6.334
  142DOPC   H4S16808   4.530   3.092   6.499
  142DOPC   C2516809   4.674   3.057   6.344
  142DOPC   H5R16810   4.651   2.948   6.346
  142DOPC   H5S16811   4.761   3.073   6.412
  142DOPC   C2616812   4.716   3.097   6.202
  142DOPC   H6R16813   4.723   3.207   6.196
  142DOPC   H6S16814   4.640   3.063   6.129
  142DOPC   C2716815   4.854   3.041   6.165
  142DOPC   H7R16816   4.852   2.930   6.172
  142DOPC   H7S16817   4.929   3.078   6.238
  142DOPC   C2816818   4.897   3.084   6.023
  142DOPC   H8R16819   4.897   3.195   6.021
  142DOPC   H8S16820   4.818   3.050   5.953
  142DOPC   C2916821   5.030   3.028   5.979
  142DOPC   H9R16822   5.032   2.918   5.970
  142DOPC  C21016823   5.142   3.097   5.951
  142DOPC  H10R16824   5.231   3.042   5.918
  142DOPC  C21116825   5.159   3.247   5.960
  142DOPC  H11R16826   5.267   3.270   5.971
  142DOPC  H11S16827   5.110   3.287   6.051
  142DOPC  C21216828   5.107   3.323   5.836
  142DOPC  H12R16829   4.996   3.320   5.835
  142DOPC  H12S16830   5.144   3.272   5.745
  142DOPC  C21316831   5.152   3.471   5.833
  142DOPC  H13R16832   5.263   3.475   5.833
  142DOPC  H13S16833   5.117   3.521   5.925
  142DOPC  C21416834   5.100   3.549   5.711
  142DOPC  H14R16835   5.133   3.654   5.719
  142DOPC  H14S16836   4.989   3.549   5.713
  142DOPC  C21516837   5.148   3.492   5.576
  142DOPC  H15R16838   5.110   3.389   5.564
  142DOPC  H15S16839   5.259   3.487   5.577
  142DOPC  C21616840   5.104   3.576   5.456
  142DOPC  H16R16841   5.147   3.678   5.468
  142DOPC  H16S16842   4.993   3.586   5.456
  142DOPC  C21716843   5.149   3.518   5.321
  142DOPC  H17R16844   5.258   3.495   5.326
  142DOPC  H17S16845   5.136   3.596   5.243
  142DOPC  C21816846   5.073   3.393   5.277
  142DOPC  H18R16847   5.110   3.357   5.178
  142DOPC  H18S16848   4.965   3.414   5.268
  142DOPC  H18T16849   5.086   3.310   5.350
  142DOPC   C3316850   4.921   3.533   6.141
  142DOPC   H3X16851   4.975   3.445   6.102
  142DOPC   H3Y16852   4.945   3.619   6.075
  142DOPC   C3416853   4.770   3.507   6.131
  142DOPC   H4X16854   4.712   3.595   6.166
  142DOPC   H4Y16855   4.746   3.421   6.198
  142DOPC   C3516856   4.725   3.470   5.988
  142DOPC   H5X16857   4.628   3.417   5.994
  142DOPC   H5Y16858   4.799   3.400   5.943
  142DOPC   C3616859   4.709   3.593   5.897
  142DOPC   H6X16860   4.629   3.658   5.937
  142DOPC   H6Y16861   4.804   3.650   5.902
  142DOPC   C3716862   4.682   3.564   5.748
  142DOPC   H7X16863   4.732   3.646   5.693
  142DOPC   H7Y16864   4.733   3.470   5.718
  142DOPC   C3816865   4.532   3.561   5.709
  142DOPC   H8X16866   4.477   3.628   5.779
  142DOPC   H8Y16867   4.494   3.458   5.726
  142DOPC   C3916868   4.506   3.608   5.568
  142DOPC   H9X16869   4.535   3.712   5.550
  142DOPC  C31016870   4.450   3.540   5.466
  142DOPC  H10X16871   4.440   3.591   5.369
  142DOPC  C31116872   4.400   3.397   5.466
  142DOPC  H11X16873   4.296   3.394   5.428
  142DOPC  H11Y16874   4.398   3.353   5.568
  142DOPC  C31216875   4.487   3.307   5.376
  142DOPC  H12X16876   4.590   3.305   5.418
  142DOPC  H12Y16877   4.493   3.350   5.274
  142DOPC  C31316878   4.433   3.164   5.365
  142DOPC  H13X16879   4.422   3.120   5.466
  142DOPC  H13Y16880   4.332   3.168   5.319
  142DOPC  C31416881   4.522   3.072   5.280
  142DOPC  H14X16882   4.471   2.974   5.267
  142DOPC  H14Y16883   4.535   3.116   5.179
  142DOPC  C31516884   4.660   3.044   5.341
  142DOPC  H15X16885   4.645   3.002   5.443
  142DOPC  H15Y16886   4.715   3.140   5.351
  142DOPC  C31616887   4.746   2.946   5.261
  142DOPC  H16X16888   4.837   2.921   5.321
  142DOPC  H16Y16889   4.688   2.852   5.248
  142DOPC  C31716890   4.790   2.996   5.123
  142DOPC  H17X16891   4.851   2.915   5.076
  142DOPC  H17Y16892   4.700   3.010   5.060
  142DOPC  C31816893   4.872   3.125   5.124
  142DOPC  H18X16894   4.907   3.150   5.022
  142DOPC  H18Y16895   4.811   3.210   5.162
  142DOPC  H18Z16896   4.961   3.114   5.190
  143DOPC     N16897   2.506   3.699   7.150
  143DOPC   C1216898   2.657   3.682   7.148
  143DOPC  H12A16899   2.680   3.579   7.172
  143DOPC  H12B16900   2.701   3.741   7.227
  143DOPC   C1316901   2.447   3.587   7.070
  143DOPC  H13A16902   2.340   3.595   7.058
  143DOPC  H13B16903   2.493   3.586   6.973
  143DOPC  H13C16904   2.467   3.491   7.115
  143DOPC   C1416905   2.467   3.830   7.087
  143DOPC  H14A16906   2.511   3.913   7.141
  143DOPC  H14B16907   2.504   3.835   6.986
  143DOPC  H14C16908   2.360   3.843   7.085
  143DOPC   C1516909   2.453   3.693   7.290
  143DOPC  H15A16910   2.346   3.702   7.290
  143DOPC  H15B16911   2.494   3.774   7.349
  143DOPC  H15C16912   2.480   3.599   7.336
  143DOPC   C1116913   2.732   3.718   7.016
  143DOPC  H11A16914   2.733   3.829   7.009
  143DOPC  H11B16915   2.838   3.687   7.027
  143DOPC     P16916   2.663   3.739   6.766
  143DOPC   O1316917   2.796   3.744   6.703
  143DOPC   O1416918   2.598   3.867   6.802
  143DOPC   O1216919   2.675   3.654   6.901
  143DOPC   O1116920   2.564   3.651   6.679
  143DOPC    C116921   2.438   3.607   6.731
  143DOPC    HA16922   2.406   3.665   6.821
  143DOPC    HB16923   2.447   3.500   6.761
  143DOPC    C216924   2.319   3.622   6.630
  143DOPC    HS16925   2.235   3.560   6.667
  143DOPC   O2116926   2.355   3.583   6.497
  143DOPC   C2116927   2.403   3.463   6.478
  143DOPC   O2216928   2.400   3.369   6.556
  143DOPC   C2216929   2.461   3.456   6.337
  143DOPC   H2R16930   2.434   3.547   6.280
  143DOPC   H2S16931   2.415   3.368   6.287
  143DOPC    C316932   2.270   3.769   6.622
  143DOPC    HX16933   2.241   3.800   6.725
  143DOPC    HY16934   2.178   3.773   6.560
  143DOPC   O3116935   2.373   3.860   6.574
  143DOPC   C3116936   2.386   3.867   6.442
  143DOPC   O3216937   2.304   3.825   6.361
  143DOPC   C3216938   2.519   3.934   6.406
  143DOPC   H2X16939   2.573   3.955   6.501
  143DOPC   H2Y16940   2.579   3.859   6.350
  143DOPC   C2316941   2.613   3.440   6.345
  143DOPC   H3R16942   2.652   3.396   6.251
  143DOPC   H3S16943   2.637   3.368   6.427
  143DOPC   C2416944   2.686   3.572   6.373
  143DOPC   H4R16945   2.774   3.552   6.438
  143DOPC   H4S16946   2.621   3.641   6.431
  143DOPC   C2516947   2.736   3.639   6.245
  143DOPC   H5R16948   2.650   3.684   6.192
  143DOPC   H5S16949   2.780   3.561   6.179
  143DOPC   C2616950   2.844   3.744   6.273
  143DOPC   H6R16951   2.936   3.692   6.308
  143DOPC   H6S16952   2.810   3.809   6.357
  143DOPC   C2716953   2.878   3.833   6.153
  143DOPC   H7R16954   2.957   3.905   6.181
  143DOPC   H7S16955   2.787   3.892   6.130
  143DOPC   C2816956   2.921   3.756   6.027
  143DOPC   H8R16957   2.854   3.669   6.012
  143DOPC   H8S16958   3.023   3.714   6.043
  143DOPC   C2916959   2.918   3.846   5.906
  143DOPC   H9R16960   2.981   3.936   5.913
  143DOPC  C21016961   2.844   3.826   5.796
  143DOPC  H10R16962   2.848   3.900   5.714
  143DOPC  C21116963   2.751   3.709   5.773
  143DOPC  H11R16964   2.673   3.704   5.852
  143DOPC  H11S16965   2.809   3.615   5.780
  143DOPC  C21216966   2.683   3.715   5.635
  143DOPC  H12R16967   2.760   3.733   5.558
  143DOPC  H12S16968   2.610   3.799   5.631
  143DOPC  C21316969   2.612   3.583   5.600
  143DOPC  H13R16970   2.520   3.571   5.661
  143DOPC  H13S16971   2.680   3.499   5.626
  143DOPC  C21416972   2.579   3.572   5.450
  143DOPC  H14R16973   2.665   3.612   5.392
  143DOPC  H14S16974   2.491   3.635   5.427
  143DOPC  C21516975   2.555   3.427   5.405
  143DOPC  H15R16976   2.476   3.382   5.469
  143DOPC  H15S16977   2.648   3.368   5.420
  143DOPC  C21616978   2.511   3.415   5.258
  143DOPC  H16R16979   2.417   3.471   5.242
  143DOPC  H16S16980   2.491   3.308   5.236
  143DOPC  C21716981   2.617   3.465   5.158
  143DOPC  H17R16982   2.713   3.414   5.179
  143DOPC  H17S16983   2.633   3.574   5.174
  143DOPC  C21816984   2.578   3.442   5.012
  143DOPC  H18R16985   2.656   3.481   4.944
  143DOPC  H18S16986   2.481   3.492   4.989
  143DOPC  H18T16987   2.566   3.333   4.992
  143DOPC   C3316988   2.505   4.065   6.324
  143DOPC   H3X16989   2.606   4.111   6.314
  143DOPC   H3Y16990   2.443   4.137   6.381
  143DOPC   C3416991   2.446   4.049   6.183
  143DOPC   H4X16992   2.428   4.149   6.140
  143DOPC   H4Y16993   2.347   3.999   6.192
  143DOPC   C3516994   2.537   3.970   6.087
  143DOPC   H5X16995   2.567   3.875   6.135
  143DOPC   H5Y16996   2.629   4.030   6.070
  143DOPC   C3616997   2.474   3.936   5.950
  143DOPC   H6X16998   2.455   4.031   5.896
  143DOPC   H6Y16999   2.549   3.880   5.891
  143DOPC   C3717000   2.345   3.852   5.957
  143DOPC   H7X17001   2.267   3.911   6.010
  143DOPC   H7Y17002   2.309   3.836   5.853
  143DOPC   C3817003   2.362   3.716   6.027
  143DOPC   H8X17004   2.403   3.733   6.129
  143DOPC   H8Y17005   2.438   3.657   5.971
  143DOPC   C3917006   2.231   3.643   6.039
  143DOPC   H9X17007   2.171   3.673   6.126
  143DOPC  C31017008   2.183   3.549   5.956
  143DOPC  H10X17009   2.085   3.504   5.978
  143DOPC  C31117010   2.250   3.495   5.832
  143DOPC  H11X17011   2.282   3.390   5.849
  143DOPC  H11Y17012   2.342   3.553   5.806
  143DOPC  C31217013   2.156   3.499   5.710
  143DOPC  H12X17014   2.125   3.604   5.691
  143DOPC  H12Y17015   2.065   3.439   5.730
  143DOPC  C31317016   2.224   3.444   5.583
  143DOPC  H13X17017   2.314   3.506   5.560
  143DOPC  H13Y17018   2.259   3.341   5.604
  143DOPC  C31417019   2.132   3.441   5.461
  143DOPC  H14X17020   2.174   3.372   5.385
  143DOPC  H14Y17021   2.033   3.401   5.491
  143DOPC  C31517022   2.115   3.579   5.396
  143DOPC  H15X17023   2.210   3.609   5.346
  143DOPC  H15Y17024   2.093   3.654   5.474
  143DOPC  C31617025   2.000   3.582   5.294
  143DOPC  H16X17026   2.017   3.506   5.215
  143DOPC  H16Y17027   1.906   3.555   5.347
  143DOPC  C31717028   1.981   3.720   5.230
  143DOPC  H17X17029   1.991   3.797   5.310
  143DOPC  H17Y17030   2.062   3.739   5.157
  143DOPC  C31817031   1.844   3.736   5.163
  143DOPC  H18X17032   1.836   3.669   5.075
  143DOPC  H18Y17033   1.763   3.710   5.234
  143DOPC  H18Z17034   1.828   3.840   5.130
  144DOPC     N17035   3.120   2.707   6.876
  144DOPC   C1217036   3.266   2.663   6.881
  144DOPC  H12A17037   3.326   2.737   6.831
  144DOPC  H12B17038   3.275   2.570   6.827
  144DOPC   C1317039   3.100   2.829   6.962
  144DOPC  H13A17040   3.124   2.805   7.064
  144DOPC  H13B17041   3.164   2.911   6.933
  144DOPC  H13C17042   2.997   2.861   6.961
  144DOPC   C1417043   3.033   2.599   6.933
  144DOPC  H14A17044   3.032   2.511   6.871
  144DOPC  H14B17045   3.074   2.569   7.029
  144DOPC  H14C17046   2.932   2.631   6.952
  144DOPC   C1517047   3.077   2.737   6.736
  144DOPC  H15A17048   2.973   2.768   6.735
  144DOPC  H15B17049   3.086   2.650   6.673
  144DOPC  H15C17050   3.135   2.817   6.694
  144DOPC   C1117051   3.331   2.637   7.020
  144DOPC  H11A17052   3.438   2.614   7.003
  144DOPC  H11B17053   3.329   2.731   7.081
  144DOPC     P17054   3.337   2.409   7.154
  144DOPC   O1317055   3.243   2.346   7.249
  144DOPC   O1417056   3.466   2.455   7.210
  144DOPC   O1217057   3.263   2.534   7.091
  144DOPC   O1117058   3.359   2.314   7.028
  144DOPC    C117059   3.275   2.325   6.912
  144DOPC    HA17060   3.332   2.375   6.830
  144DOPC    HB17061   3.184   2.385   6.932
  144DOPC    C217062   3.221   2.190   6.858
  144DOPC    HS17063   3.208   2.121   6.944
  144DOPC   O2117064   3.316   2.138   6.763
  144DOPC   C2117065   3.291   2.012   6.727
  144DOPC   O2217066   3.202   1.942   6.771
  144DOPC   C2217067   3.394   1.964   6.627
  144DOPC   H2R17068   3.398   1.853   6.631
  144DOPC   H2S17069   3.492   2.004   6.661
  144DOPC    C317070   3.082   2.216   6.792
  144DOPC    HX17071   3.013   2.244   6.875
  144DOPC    HY17072   3.039   2.123   6.749
  144DOPC   O3117073   3.089   2.328   6.699
  144DOPC   C3117074   3.106   2.292   6.572
  144DOPC   O3217075   3.095   2.180   6.528
  144DOPC   C3217076   3.140   2.416   6.489
  144DOPC   H2X17077   3.061   2.492   6.507
  144DOPC   H2Y17078   3.238   2.455   6.525
  144DOPC   C2317079   3.364   2.011   6.483
  144DOPC   H3R17080   3.457   1.999   6.423
  144DOPC   H3S17081   3.338   2.119   6.481
  144DOPC   C2417082   3.255   1.929   6.412
  144DOPC   H4R17083   3.162   1.930   6.472
  144DOPC   H4S17084   3.289   1.823   6.405
  144DOPC   C2517085   3.223   1.980   6.270
  144DOPC   H5R17086   3.168   2.077   6.278
  144DOPC   H5S17087   3.155   1.908   6.220
  144DOPC   C2617088   3.349   2.000   6.185
  144DOPC   H6R17089   3.409   1.907   6.192
  144DOPC   H6S17090   3.409   2.084   6.226
  144DOPC   C2717091   3.323   2.028   6.036
  144DOPC   H7R17092   3.261   2.121   6.026
  144DOPC   H7S17093   3.263   1.944   5.996
  144DOPC   C2817094   3.455   2.045   5.958
  144DOPC   H8R17095   3.527   1.970   5.997
  144DOPC   H8S17096   3.497   2.145   5.982
  144DOPC   C2917097   3.441   2.024   5.810
  144DOPC   H9R17098   3.467   1.923   5.774
  144DOPC  C21017099   3.404   2.115   5.719
  144DOPC  H10R17100   3.398   2.085   5.613
  144DOPC  C21117101   3.367   2.259   5.745
  144DOPC  H11R17102   3.355   2.280   5.853
  144DOPC  H11S17103   3.269   2.281   5.698
  144DOPC  C21217104   3.472   2.357   5.689
  144DOPC  H12R17105   3.564   2.349   5.750
  144DOPC  H12S17106   3.434   2.461   5.700
  144DOPC  C21317107   3.510   2.335   5.541
  144DOPC  H13R17108   3.558   2.236   5.530
  144DOPC  H13S17109   3.585   2.411   5.512
  144DOPC  C21417110   3.392   2.345   5.443
  144DOPC  H14R17111   3.351   2.448   5.445
  144DOPC  H14S17112   3.311   2.275   5.474
  144DOPC  C21517113   3.434   2.308   5.300
  144DOPC  H15R17114   3.473   2.204   5.301
  144DOPC  H15S17115   3.517   2.374   5.267
  144DOPC  C21617116   3.319   2.316   5.199
  144DOPC  H16R17117   3.228   2.270   5.246
  144DOPC  H16S17118   3.343   2.255   5.110
  144DOPC  C21717119   3.287   2.459   5.153
  144DOPC  H17R17120   3.302   2.529   5.238
  144DOPC  H17S17121   3.180   2.465   5.125
  144DOPC  C21817122   3.371   2.502   5.033
  144DOPC  H18R17123   3.480   2.490   5.056
  144DOPC  H18S17124   3.352   2.608   5.007
  144DOPC  H18T17125   3.348   2.438   4.945
  144DOPC   C3317126   3.148   2.387   6.337
  144DOPC   H3X17127   3.049   2.352   6.300
  144DOPC   H3Y17128   3.222   2.306   6.317
  144DOPC   C3417129   3.189   2.512   6.257
  144DOPC   H4X17130   3.293   2.539   6.284
  144DOPC   H4Y17131   3.123   2.597   6.287
  144DOPC   C3517132   3.180   2.495   6.105
  144DOPC   H5X17133   3.073   2.481   6.076
  144DOPC   H5Y17134   3.235   2.404   6.074
  144DOPC   C3617135   3.237   2.617   6.031
  144DOPC   H6X17136   3.187   2.709   6.067
  144DOPC   H6Y17137   3.345   2.625   6.058
  144DOPC   C3717138   3.227   2.610   5.878
  144DOPC   H7X17139   3.298   2.685   5.837
  144DOPC   H7Y17140   3.260   2.510   5.842
  144DOPC   C3817141   3.086   2.641   5.823
  144DOPC   H8X17142   3.047   2.731   5.876
  144DOPC   H8Y17143   3.019   2.557   5.851
  144DOPC   C3917144   3.088   2.668   5.674
  144DOPC   H9X17145   3.155   2.750   5.644
  144DOPC  C31017146   3.019   2.604   5.578
  144DOPC  H10X17147   3.032   2.636   5.473
  144DOPC  C31117148   2.922   2.490   5.597
  144DOPC  H11X17149   2.830   2.507   5.537
  144DOPC  H11Y17150   2.888   2.484   5.703
  144DOPC  C31217151   2.983   2.354   5.561
  144DOPC  H12X17152   2.918   2.275   5.603
  144DOPC  H12Y17153   3.083   2.345   5.610
  144DOPC  C31317154   2.998   2.328   5.410
  144DOPC  H13X17155   3.049   2.413   5.360
  144DOPC  H13Y17156   3.062   2.238   5.397
  144DOPC  C31417157   2.863   2.299   5.344
  144DOPC  H14X17158   2.812   2.220   5.404
  144DOPC  H14Y17159   2.799   2.390   5.346
  144DOPC  C31517160   2.873   2.248   5.199
  144DOPC  H15X17161   2.953   2.170   5.196
  144DOPC  H15Y17162   2.904   2.331   5.132
  144DOPC  C31617163   2.742   2.186   5.150
  144DOPC  H16X17164   2.707   2.112   5.225
  144DOPC  H16Y17165   2.664   2.265   5.141
  144DOPC  C31717166   2.756   2.114   5.015
  144DOPC  H17X17167   2.787   2.187   4.938
  144DOPC  H17Y17168   2.836   2.037   5.024
  144DOPC  C31817169   2.628   2.044   4.969
  144DOPC  H18X17170   2.591   1.974   5.046
  144DOPC  H18Y17171   2.549   2.120   4.949
  144DOPC  H18Z17172   2.646   1.987   4.875
  145DOPC     N17173   3.907   5.505   7.110
  145DOPC   C1217174   4.011   5.544   7.006
  145DOPC  H12A17175   4.082   5.463   6.997
  145DOPC  H12B17176   4.064   5.631   7.041
  145DOPC   C1317177   3.884   5.357   7.104
  145DOPC  H13A17178   3.976   5.302   7.120
  145DOPC  H13B17179   3.811   5.324   7.177
  145DOPC  H13C17180   3.849   5.330   7.006
  145DOPC   C1417181   3.777   5.574   7.081
  145DOPC  H14A17182   3.747   5.551   6.980
  145DOPC  H14B17183   3.698   5.539   7.146
  145DOPC  H14C17184   3.786   5.681   7.091
  145DOPC   C1517185   3.954   5.541   7.247
  145DOPC  H15A17186   3.975   5.647   7.253
  145DOPC  H15B17187   4.043   5.487   7.273
  145DOPC  H15C17188   3.878   5.518   7.320
  145DOPC   C1117189   3.963   5.574   6.861
  145DOPC  H11A17190   3.900   5.666   6.862
  145DOPC  H11B17191   4.051   5.598   6.798
  145DOPC     P17192   3.960   5.337   6.754
  145DOPC   O1317193   3.854   5.243   6.710
  145DOPC   O1417194   4.053   5.291   6.859
  145DOPC   O1217195   3.886   5.467   6.805
  145DOPC   O1117196   4.040   5.388   6.628
  145DOPC    C117197   3.977   5.472   6.531
  145DOPC    HA17198   3.963   5.574   6.572
  145DOPC    HB17199   3.877   5.433   6.502
  145DOPC    C217200   4.066   5.487   6.403
  145DOPC    HS17201   4.019   5.562   6.337
  145DOPC   O2117202   4.082   5.362   6.333
  145DOPC   C2117203   3.975   5.314   6.273
  145DOPC   O2217204   3.863   5.362   6.274
  145DOPC   C2217205   4.011   5.183   6.203
  145DOPC   H2R17206   3.927   5.112   6.221
  145DOPC   H2S17207   4.102   5.140   6.250
  145DOPC    C317208   4.207   5.539   6.444
  145DOPC    HX17209   4.254   5.459   6.505
  145DOPC    HY17210   4.196   5.628   6.510
  145DOPC   O3117211   4.293   5.567   6.331
  145DOPC   C3117212   4.268   5.683   6.270
  145DOPC   O3217213   4.183   5.763   6.304
  145DOPC   C3217214   4.363   5.698   6.152
  145DOPC   H2X17215   4.461   5.734   6.192
  145DOPC   H2Y17216   4.379   5.598   6.105
  145DOPC   C2317217   4.033   5.200   6.051
  145DOPC   H3R17218   3.944   5.247   6.003
  145DOPC   H3S17219   4.044   5.098   6.006
  145DOPC   C2417220   4.159   5.280   6.016
  145DOPC   H4R17221   4.245   5.238   6.072
  145DOPC   H4S17222   4.147   5.386   6.049
  145DOPC   C2517223   4.193   5.278   5.866
  145DOPC   H5R17224   4.197   5.172   5.831
  145DOPC   H5S17225   4.295   5.320   5.853
  145DOPC   C2617226   4.096   5.358   5.778
  145DOPC   H6R17227   4.097   5.463   5.815
  145DOPC   H6S17228   3.993   5.320   5.788
  145DOPC   C2717229   4.137   5.359   5.630
  145DOPC   H7R17230   4.248   5.355   5.625
  145DOPC   H7S17231   4.107   5.455   5.582
  145DOPC   C2817232   4.081   5.241   5.547
  145DOPC   H8R17233   4.112   5.148   5.601
  145DOPC   H8S17234   4.138   5.240   5.452
  145DOPC   C2917235   3.934   5.230   5.513
  145DOPC   H9R17236   3.905   5.128   5.484
  145DOPC  C21017237   3.837   5.324   5.509
  145DOPC  H10R17238   3.736   5.292   5.479
  145DOPC  C21117239   3.848   5.471   5.540
  145DOPC  H11R17240   3.918   5.520   5.469
  145DOPC  H11S17241   3.889   5.486   5.642
  145DOPC  C21217242   3.713   5.546   5.536
  145DOPC  H12R17243   3.731   5.651   5.568
  145DOPC  H12S17244   3.643   5.501   5.610
  145DOPC  C21317245   3.644   5.550   5.398
  145DOPC  H13R17246   3.549   5.608   5.409
  145DOPC  H13S17247   3.617   5.448   5.365
  145DOPC  C21417248   3.728   5.619   5.289
  145DOPC  H14R17249   3.813   5.554   5.263
  145DOPC  H14S17250   3.769   5.713   5.332
  145DOPC  C21517251   3.649   5.656   5.162
  145DOPC  H15R17252   3.719   5.704   5.090
  145DOPC  H15S17253   3.573   5.732   5.189
  145DOPC  C21617254   3.579   5.538   5.092
  145DOPC  H16R17255   3.523   5.578   5.005
  145DOPC  H16S17256   3.505   5.493   5.161
  145DOPC  C21717257   3.674   5.429   5.043
  145DOPC  H17R17258   3.727   5.385   5.130
  145DOPC  H17S17259   3.751   5.475   4.977
  145DOPC  C21817260   3.603   5.317   4.967
  145DOPC  H18R17261   3.553   5.358   4.876
  145DOPC  H18S17262   3.525   5.270   5.030
  145DOPC  H18T17263   3.675   5.239   4.935
  145DOPC   C3317264   4.311   5.798   6.046
  145DOPC   H3X17265   4.392   5.818   5.973
  145DOPC   H3Y17266   4.284   5.895   6.093
  145DOPC   C3417267   4.190   5.743   5.969
  145DOPC   H4X17268   4.106   5.727   6.041
  145DOPC   H4Y17269   4.216   5.644   5.924
  145DOPC   C3517270   4.141   5.837   5.858
  145DOPC   H5X17271   4.217   5.842   5.777
  145DOPC   H5Y17272   4.131   5.939   5.901
  145DOPC   C3617273   4.006   5.793   5.801
  145DOPC   H6X17274   4.014   5.689   5.765
  145DOPC   H6Y17275   3.931   5.795   5.882
  145DOPC   C3717276   3.955   5.881   5.685
  145DOPC   H7X17277   4.021   5.866   5.597
  145DOPC   H7Y17278   3.853   5.846   5.657
  145DOPC   C3817279   3.951   6.032   5.719
  145DOPC   H8X17280   4.055   6.070   5.721
  145DOPC   H8Y17281   3.913   6.041   5.823
  145DOPC   C3917282   3.866   6.117   5.628
  145DOPC   H9X17283   3.779   6.163   5.678
  145DOPC  C31017284   3.887   6.142   5.498
  145DOPC  H10X17285   3.816   6.206   5.443
  145DOPC  C31117286   4.001   6.089   5.415
  145DOPC  H11X17287   4.087   6.063   5.480
  145DOPC  H11Y17288   4.038   6.166   5.344
  145DOPC  C31217289   3.959   5.963   5.337
  145DOPC  H12X17290   3.891   5.989   5.253
  145DOPC  H12Y17291   3.902   5.896   5.405
  145DOPC  C31317292   4.079   5.883   5.285
  145DOPC  H13X17293   4.119   5.931   5.193
  145DOPC  H13Y17294   4.158   5.884   5.362
  145DOPC  C31417295   4.042   5.737   5.257
  145DOPC  H14X17296   3.996   5.695   5.349
  145DOPC  H14Y17297   3.967   5.732   5.175
  145DOPC  C31517298   4.163   5.650   5.222
  145DOPC  H15X17299   4.242   5.668   5.299
  145DOPC  H15Y17300   4.204   5.683   5.124
  145DOPC  C31617301   4.134   5.500   5.219
  145DOPC  H16X17302   4.230   5.445   5.216
  145DOPC  H16Y17303   4.081   5.470   5.311
  145DOPC  C31717304   4.053   5.457   5.096
  145DOPC  H17X17305   3.957   5.513   5.094
  145DOPC  H17Y17306   4.110   5.485   5.005
  145DOPC  C31817307   4.024   5.307   5.093
  145DOPC  H18X17308   3.966   5.276   5.183
  145DOPC  H18Y17309   3.964   5.280   5.003
  145DOPC  H18Z17310   4.118   5.249   5.091
  146DOPC     N17311   5.348   2.739   7.059
  146DOPC   C1217312   5.445   2.681   6.957
  146DOPC  H12A17313   5.394   2.602   6.904
  146DOPC  H12B17314   5.528   2.637   7.011
  146DOPC   C1317315   5.337   2.649   7.177
  146DOPC  H13A17316   5.430   2.641   7.230
  146DOPC  H13B17317   5.263   2.688   7.246
  146DOPC  H13C17318   5.304   2.550   7.148
  146DOPC   C1417319   5.211   2.755   6.998
  146DOPC  H14A17320   5.215   2.820   6.912
  146DOPC  H14B17321   5.169   2.661   6.966
  146DOPC  H14C17322   5.142   2.802   7.067
  146DOPC   C1517323   5.393   2.875   7.105
  146DOPC  H15A17324   5.487   2.872   7.158
  146DOPC  H15B17325   5.320   2.922   7.168
  146DOPC  H15C17326   5.406   2.941   7.020
  146DOPC   C1117327   5.507   2.774   6.848
  146DOPC  H11A17328   5.569   2.852   6.896
  146DOPC  H11B17329   5.576   2.713   6.787
  146DOPC     P17330   5.360   2.978   6.766
  146DOPC   O1317331   5.449   3.052   6.859
  146DOPC   O1417332   5.216   2.975   6.797
  146DOPC   O1217333   5.408   2.826   6.761
  146DOPC   O1117334   5.382   3.026   6.617
  146DOPC    C117335   5.320   2.956   6.509
  146DOPC    HA17336   5.243   3.022   6.463
  146DOPC    HB17337   5.267   2.864   6.541
  146DOPC    C217338   5.426   2.918   6.403
  146DOPC    HS17339   5.525   2.928   6.452
  146DOPC   O2117340   5.410   3.008   6.292
  146DOPC   C2117341   5.521   3.047   6.232
  146DOPC   O2217342   5.634   3.010   6.258
  146DOPC   C2217343   5.483   3.141   6.117
  146DOPC   H2R17344   5.391   3.196   6.145
  146DOPC   H2S17345   5.459   3.076   6.030
  146DOPC    C317346   5.410   2.770   6.356
  146DOPC    HX17347   5.316   2.760   6.298
  146DOPC    HY17348   5.398   2.709   6.448
  146DOPC   O3117349   5.528   2.723   6.287
  146DOPC   C3117350   5.523   2.727   6.154
  146DOPC   O3217351   5.424   2.751   6.087
  146DOPC   C3217352   5.664   2.699   6.100
  146DOPC   H2X17353   5.733   2.772   6.147
  146DOPC   H2Y17354   5.692   2.597   6.134
  146DOPC   C2317355   5.596   3.240   6.082
  146DOPC   H3R17356   5.694   3.187   6.079
  146DOPC   H3S17357   5.602   3.317   6.162
  146DOPC   C2417358   5.575   3.309   5.946
  146DOPC   H4R17359   5.641   3.399   5.940
  146DOPC   H4S17360   5.470   3.345   5.937
  146DOPC   C2517361   5.610   3.218   5.828
  146DOPC   H5R17362   5.551   3.124   5.834
  146DOPC   H5S17363   5.717   3.189   5.837
  146DOPC   C2617364   5.588   3.283   5.690
  146DOPC   H6R17365   5.654   3.233   5.616
  146DOPC   H6S17366   5.619   3.389   5.695
  146DOPC   C2717367   5.444   3.273   5.638
  146DOPC   H7R17368   5.437   3.336   5.546
  146DOPC   H7S17369   5.375   3.316   5.713
  146DOPC   C2817370   5.400   3.129   5.604
  146DOPC   H8R17371   5.395   3.069   5.697
  146DOPC   H8S17372   5.480   3.085   5.541
  146DOPC   C2917373   5.269   3.123   5.530
  146DOPC   H9R17374   5.233   3.219   5.491
  146DOPC  C21017375   5.197   3.011   5.508
  146DOPC  H10R17376   5.103   3.019   5.451
  146DOPC  C21117377   5.234   2.872   5.553
  146DOPC  H11R17378   5.145   2.806   5.552
  146DOPC  H11S17379   5.273   2.873   5.657
  146DOPC  C21217380   5.342   2.809   5.462
  146DOPC  H12R17381   5.434   2.872   5.469
  146DOPC  H12S17382   5.309   2.810   5.357
  146DOPC  C21317383   5.380   2.666   5.503
  146DOPC  H13R17384   5.301   2.595   5.469
  146DOPC  H13S17385   5.384   2.661   5.614
  146DOPC  C21417386   5.518   2.623   5.450
  146DOPC  H14R17387   5.546   2.525   5.494
  146DOPC  H14S17388   5.592   2.698   5.485
  146DOPC  C21517389   5.528   2.614   5.297
  146DOPC  H15R17390   5.475   2.700   5.251
  146DOPC  H15S17391   5.478   2.521   5.261
  146DOPC  C21617392   5.674   2.618   5.250
  146DOPC  H16R17393   5.730   2.538   5.304
  146DOPC  H16S17394   5.718   2.716   5.279
  146DOPC  C21717395   5.695   2.597   5.099
  146DOPC  H17R17396   5.668   2.492   5.074
  146DOPC  H17S17397   5.804   2.608   5.077
  146DOPC  C21817398   5.617   2.692   5.008
  146DOPC  H18R17399   5.640   2.672   4.901
  146DOPC  H18S17400   5.643   2.798   5.031
  146DOPC  H18T17401   5.507   2.679   5.022
  146DOPC   C3317402   5.674   2.708   5.946
  146DOPC   H3X17403   5.599   2.642   5.898
  146DOPC   H3Y17404   5.775   2.671   5.916
  146DOPC   C3417405   5.658   2.851   5.893
  146DOPC   H4X17406   5.728   2.919   5.945
  146DOPC   H4Y17407   5.555   2.886   5.916
  146DOPC   C3517408   5.678   2.863   5.741
  146DOPC   H5X17409   5.635   2.960   5.708
  146DOPC   H5Y17410   5.621   2.782   5.690
  146DOPC   C3617411   5.826   2.857   5.698
  146DOPC   H6X17412   5.881   2.937   5.753
  146DOPC   H6Y17413   5.868   2.759   5.729
  146DOPC   C3717414   5.849   2.875   5.547
  146DOPC   H7X17415   5.958   2.867   5.528
  146DOPC   H7Y17416   5.799   2.792   5.493
  146DOPC   C3817417   5.797   3.010   5.492
  146DOPC   H8X17418   5.840   3.092   5.554
  146DOPC   H8Y17419   5.687   3.013   5.508
  146DOPC   C3917420   5.833   3.032   5.347
  146DOPC   H9X17421   5.939   3.050   5.329
  146DOPC  C31017422   5.748   3.030   5.242
  146DOPC  H10X17423   5.789   3.049   5.142
  146DOPC  C31117424   5.599   3.007   5.245
  146DOPC  H11X17425   5.555   3.027   5.345
  146DOPC  H11Y17426   5.578   2.900   5.222
  146DOPC  C31217427   5.526   3.095   5.142
  146DOPC  H12X17428   5.566   3.076   5.040
  146DOPC  H12Y17429   5.545   3.201   5.167
  146DOPC  C31317430   5.373   3.073   5.139
  146DOPC  H13X17431   5.333   3.081   5.242
  146DOPC  H13Y17432   5.327   3.154   5.078
  146DOPC  C31417433   5.332   2.938   5.078
  146DOPC  H14X17434   5.373   2.930   4.975
  146DOPC  H14Y17435   5.378   2.856   5.138
  146DOPC  C31517436   5.180   2.917   5.074
  146DOPC  H15X17437   5.136   2.998   5.012
  146DOPC  H15Y17438   5.139   2.927   5.177
  146DOPC  C31617439   5.138   2.781   5.016
  146DOPC  H16X17440   5.028   2.781   5.002
  146DOPC  H16Y17441   5.185   2.767   4.916
  146DOPC  C31717442   5.175   2.662   5.106
  146DOPC  H17X17443   5.285   2.658   5.118
  146DOPC  H17Y17444   5.131   2.678   5.206
  146DOPC  C31817445   5.127   2.527   5.051
  146DOPC  H18X17446   5.155   2.445   5.120
  146DOPC  H18Y17447   5.016   2.527   5.040
  146DOPC  H18Z17448   5.172   2.507   4.952
  147DOPC     N17449   1.668   3.336   6.962
  147DOPC   C1217450   1.776   3.438   6.994
  147DOPC  H12A17451   1.733   3.531   7.027
  147DOPC  H12B17452   1.830   3.460   6.903
  147DOPC   C1317453   1.608   3.362   6.827
  147DOPC  H13A17454   1.539   3.283   6.801
  147DOPC  H13B17455   1.553   3.455   6.822
  147DOPC  H13C17456   1.684   3.364   6.751
  147DOPC   C1417457   1.559   3.335   7.065
  147DOPC  H14A17458   1.506   3.429   7.066
  147DOPC  H14B17459   1.486   3.259   7.041
  147DOPC  H14C17460   1.598   3.315   7.164
  147DOPC   C1517461   1.728   3.200   6.955
  147DOPC  H15A17462   1.780   3.176   7.047
  147DOPC  H15B17463   1.802   3.196   6.877
  147DOPC  H15C17464   1.654   3.125   6.931
  147DOPC   C1117465   1.887   3.395   7.093
  147DOPC  H11A17466   1.938   3.486   7.131
  147DOPC  H11B17467   1.841   3.346   7.181
  147DOPC     P17468   2.086   3.365   6.928
  147DOPC   O1317469   2.198   3.419   7.007
  147DOPC   O1417470   2.015   3.458   6.837
  147DOPC   O1217471   1.980   3.306   7.031
  147DOPC   O1117472   2.130   3.235   6.849
  147DOPC    C117473   2.031   3.155   6.784
  147DOPC    HA17474   1.955   3.217   6.732
  147DOPC    HB17475   1.980   3.091   6.860
  147DOPC    C217476   2.093   3.061   6.677
  147DOPC    HS17477   2.179   3.011   6.725
  147DOPC   O2117478   2.137   3.141   6.566
  147DOPC   C2117479   2.209   3.075   6.477
  147DOPC   O2217480   2.251   2.962   6.489
  147DOPC   C2217481   2.228   3.162   6.353
  147DOPC   H2R17482   2.332   3.143   6.317
  147DOPC   H2S17483   2.220   3.269   6.383
  147DOPC    C317484   1.993   2.950   6.630
  147DOPC    HX17485   1.953   2.897   6.719
  147DOPC    HY17486   2.049   2.872   6.573
  147DOPC   O3117487   1.890   3.003   6.542
  147DOPC   C3117488   1.778   3.040   6.603
  147DOPC   O3217489   1.753   3.019   6.720
  147DOPC   C3217490   1.689   3.118   6.506
  147DOPC   H2X17491   1.589   3.124   6.552
  147DOPC   H2Y17492   1.731   3.221   6.498
  147DOPC   C2317493   2.128   3.130   6.241
  147DOPC   H3R17494   2.025   3.154   6.275
  147DOPC   H3S17495   2.131   3.021   6.217
  147DOPC   C2417496   2.160   3.210   6.114
  147DOPC   H4R17497   2.259   3.178   6.075
  147DOPC   H4S17498   2.170   3.317   6.142
  147DOPC   C2517499   2.055   3.198   6.003
  147DOPC   H5R17500   2.086   3.260   5.917
  147DOPC   H5S17501   1.959   3.240   6.041
  147DOPC   C2617502   2.029   3.054   5.954
  147DOPC   H6R17503   1.951   3.058   5.875
  147DOPC   H6S17504   1.986   2.996   6.039
  147DOPC   C2717505   2.151   2.979   5.900
  147DOPC   H7R17506   2.118   2.879   5.864
  147DOPC   H7S17507   2.221   2.961   5.985
  147DOPC   C2817508   2.228   3.049   5.786
  147DOPC   H8R17509   2.311   2.981   5.755
  147DOPC   H8S17510   2.277   3.140   5.827
  147DOPC   C2917511   2.140   3.087   5.670
  147DOPC   H9R17512   2.075   3.172   5.690
  147DOPC  C21017513   2.134   3.029   5.549
  147DOPC  H10R17514   2.063   3.071   5.476
  147DOPC  C21117515   2.212   2.911   5.496
  147DOPC  H11R17516   2.142   2.826   5.479
  147DOPC  H11S17517   2.289   2.875   5.567
  147DOPC  C21217518   2.280   2.945   5.362
  147DOPC  H12R17519   2.372   3.004   5.384
  147DOPC  H12S17520   2.214   3.010   5.300
  147DOPC  C21317521   2.317   2.822   5.276
  147DOPC  H13R17522   2.369   2.747   5.339
  147DOPC  H13S17523   2.389   2.858   5.199
  147DOPC  C21417524   2.198   2.759   5.202
  147DOPC  H14R17525   2.131   2.842   5.169
  147DOPC  H14S17526   2.140   2.693   5.269
  147DOPC  C21517527   2.239   2.682   5.075
  147DOPC  H15R17528   2.277   2.581   5.101
  147DOPC  H15S17529   2.323   2.738   5.027
  147DOPC  C21617530   2.127   2.673   4.970
  147DOPC  H16R17531   2.172   2.649   4.871
  147DOPC  H16S17532   2.078   2.772   4.961
  147DOPC  C21717533   2.021   2.566   5.001
  147DOPC  H17R17534   1.982   2.584   5.103
  147DOPC  H17S17535   2.070   2.466   5.002
  147DOPC  C21817536   1.905   2.564   4.901
  147DOPC  H18R17537   1.851   2.661   4.902
  147DOPC  H18S17538   1.833   2.483   4.927
  147DOPC  H18T17539   1.943   2.546   4.798
  147DOPC   C3317540   1.678   3.055   6.365
  147DOPC   H3X17541   1.638   2.952   6.375
  147DOPC   H3Y17542   1.778   3.049   6.317
  147DOPC   C3417543   1.583   3.134   6.274
  147DOPC   H4X17544   1.623   3.236   6.255
  147DOPC   H4Y17545   1.488   3.146   6.330
  147DOPC   C3517546   1.551   3.063   6.142
  147DOPC   H5X17547   1.447   3.092   6.114
  147DOPC   H5Y17548   1.551   2.953   6.157
  147DOPC   C3617549   1.641   3.101   6.023
  147DOPC   H6X17550   1.651   3.212   6.019
  147DOPC   H6Y17551   1.743   3.058   6.039
  147DOPC   C3717552   1.582   3.052   5.890
  147DOPC   H7X17553   1.557   2.944   5.900
  147DOPC   H7Y17554   1.487   3.106   5.871
  147DOPC   C3817555   1.674   3.068   5.767
  147DOPC   H8X17556   1.619   3.030   5.678
  147DOPC   H8Y17557   1.762   3.000   5.779
  147DOPC   C3917558   1.722   3.209   5.744
  147DOPC   H9X17559   1.807   3.239   5.808
  147DOPC  C31017560   1.671   3.298   5.658
  147DOPC  H10X17561   1.718   3.398   5.652
  147DOPC  C31117562   1.555   3.278   5.564
  147DOPC  H11X17563   1.487   3.366   5.571
  147DOPC  H11Y17564   1.494   3.190   5.594
  147DOPC  C31217565   1.596   3.261   5.416
  147DOPC  H12X17566   1.503   3.258   5.356
  147DOPC  H12Y17567   1.647   3.163   5.403
  147DOPC  C31317568   1.686   3.373   5.363
  147DOPC  H13X17569   1.657   3.468   5.412
  147DOPC  H13Y17570   1.792   3.352   5.391
  147DOPC  C31417571   1.676   3.395   5.211
  147DOPC  H14X17572   1.569   3.406   5.183
  147DOPC  H14Y17573   1.727   3.490   5.186
  147DOPC  C31517574   1.739   3.284   5.126
  147DOPC  H15X17575   1.681   3.191   5.144
  147DOPC  H15Y17576   1.843   3.266   5.159
  147DOPC  C31617577   1.738   3.315   4.976
  147DOPC  H16X17578   1.762   3.220   4.923
  147DOPC  H16Y17579   1.637   3.346   4.943
  147DOPC  C31717580   1.842   3.419   4.931
  147DOPC  H17X17581   1.790   3.513   4.905
  147DOPC  H17Y17582   1.910   3.441   5.017
  147DOPC  C31817583   1.927   3.371   4.813
  147DOPC  H18X17584   1.979   3.276   4.839
  147DOPC  H18Y17585   1.864   3.352   4.724
  147DOPC  H18Z17586   2.004   3.446   4.786
  148DOPC     N17587   2.758   5.348   6.895
  148DOPC   C1217588   2.725   5.497   6.899
  148DOPC  H12A17589   2.618   5.509   6.908
  148DOPC  H12B17590   2.752   5.543   6.805
  148DOPC   C1317591   2.907   5.329   6.896
  148DOPC  H13A17592   2.950   5.375   6.983
  148DOPC  H13B17593   2.935   5.224   6.898
  148DOPC  H13C17594   2.954   5.375   6.810
  148DOPC   C1417595   2.699   5.286   6.772
  148DOPC  H14A17596   2.721   5.180   6.768
  148DOPC  H14B17597   2.592   5.298   6.772
  148DOPC  H14C17598   2.738   5.333   6.683
  148DOPC   C1517599   2.700   5.283   7.017
  148DOPC  H15A17600   2.593   5.289   7.017
  148DOPC  H15B17601   2.734   5.336   7.104
  148DOPC  H15C17602   2.729   5.179   7.025
  148DOPC   C1117603   2.789   5.579   7.014
  148DOPC  H11A17604   2.898   5.561   7.015
  148DOPC  H11B17605   2.778   5.688   6.994
  148DOPC     P17606   2.597   5.600   7.190
  148DOPC   O1317607   2.609   5.745   7.219
  148DOPC   O1417608   2.552   5.511   7.299
  148DOPC   O1217609   2.736   5.545   7.141
  148DOPC   O1117610   2.506   5.579   7.062
  148DOPC    C117611   2.393   5.662   7.034
  148DOPC    HA17612   2.387   5.753   7.098
  148DOPC    HB17613   2.300   5.603   7.052
  148DOPC    C217614   2.391   5.708   6.886
  148DOPC    HS17615   2.301   5.771   6.874
  148DOPC   O2117616   2.386   5.590   6.803
  148DOPC   C2117617   2.315   5.605   6.691
  148DOPC   O2217618   2.271   5.710   6.650
  148DOPC   C2217619   2.288   5.469   6.627
  148DOPC   H2R17620   2.209   5.488   6.551
  148DOPC   H2S17621   2.245   5.402   6.705
  148DOPC    C317622   2.516   5.798   6.855
  148DOPC    HX17623   2.608   5.744   6.886
  148DOPC    HY17624   2.509   5.887   6.920
  148DOPC   O3117625   2.521   5.842   6.717
  148DOPC   C3117626   2.590   5.764   6.634
  148DOPC   O3217627   2.659   5.669   6.667
  148DOPC   C3217628   2.562   5.809   6.491
  148DOPC   H2X17629   2.453   5.826   6.481
  148DOPC   H2Y17630   2.615   5.905   6.473
  148DOPC   C2317631   2.407   5.400   6.557
  148DOPC   H3R17632   2.427   5.303   6.609
  148DOPC   H3S17633   2.500   5.461   6.565
  148DOPC   C2417634   2.377   5.371   6.410
  148DOPC   H4R17635   2.374   5.466   6.353
  148DOPC   H4S17636   2.275   5.326   6.402
  148DOPC   C2517637   2.475   5.273   6.344
  148DOPC   H5R17638   2.470   5.176   6.396
  148DOPC   H5S17639   2.579   5.312   6.354
  148DOPC   C2617640   2.445   5.251   6.195
  148DOPC   H6R17641   2.466   5.344   6.138
  148DOPC   H6S17642   2.336   5.229   6.182
  148DOPC   C2717643   2.524   5.135   6.133
  148DOPC   H7R17644   2.486   5.040   6.177
  148DOPC   H7S17645   2.632   5.143   6.161
  148DOPC   C2817646   2.511   5.127   5.979
  148DOPC   H8R17647   2.404   5.142   5.952
  148DOPC   H8S17648   2.536   5.024   5.948
  148DOPC   C2917649   2.602   5.223   5.908
  148DOPC   H9R17650   2.709   5.195   5.912
  148DOPC  C21017651   2.570   5.336   5.841
  148DOPC  H10R17652   2.652   5.394   5.796
  148DOPC  C21117653   2.433   5.396   5.820
  148DOPC  H11R17654   2.427   5.493   5.874
  148DOPC  H11S17655   2.353   5.332   5.861
  148DOPC  C21217656   2.402   5.423   5.671
  148DOPC  H12R17657   2.299   5.466   5.664
  148DOPC  H12S17658   2.402   5.327   5.615
  148DOPC  C21317659   2.499   5.521   5.603
  148DOPC  H13R17660   2.601   5.477   5.604
  148DOPC  H13S17661   2.504   5.616   5.660
  148DOPC  C21417662   2.465   5.551   5.456
  148DOPC  H14R17663   2.438   5.457   5.404
  148DOPC  H14S17664   2.555   5.592   5.407
  148DOPC  C21517665   2.351   5.654   5.440
  148DOPC  H15R17666   2.381   5.749   5.490
  148DOPC  H15S17667   2.261   5.616   5.492
  148DOPC  C21617668   2.314   5.683   5.293
  148DOPC  H16R17669   2.229   5.754   5.292
  148DOPC  H16S17670   2.280   5.588   5.246
  148DOPC  C21717671   2.427   5.742   5.207
  148DOPC  H17R17672   2.388   5.756   5.104
  148DOPC  H17S17673   2.510   5.669   5.199
  148DOPC  C21817674   2.482   5.877   5.257
  148DOPC  H18R17675   2.529   5.865   5.357
  148DOPC  H18S17676   2.400   5.951   5.265
  148DOPC  H18T17677   2.558   5.916   5.187
  148DOPC   C3317678   2.607   5.703   6.387
  148DOPC   H3X17679   2.555   5.607   6.408
  148DOPC   H3Y17680   2.716   5.685   6.395
  148DOPC   C3417681   2.572   5.744   6.243
  148DOPC   H4X17682   2.646   5.818   6.207
  148DOPC   H4Y17683   2.473   5.793   6.242
  148DOPC   C3517684   2.567   5.625   6.146
  148DOPC   H5X17685   2.549   5.663   6.043
  148DOPC   H5Y17686   2.480   5.561   6.172
  148DOPC   C3617687   2.694   5.537   6.145
  148DOPC   H6X17688   2.703   5.486   6.243
  148DOPC   H6Y17689   2.681   5.457   6.069
  148DOPC   C3717690   2.824   5.612   6.117
  148DOPC   H7X17691   2.836   5.689   6.196
  148DOPC   H7Y17692   2.910   5.542   6.127
  148DOPC   C3817693   2.831   5.683   5.980
  148DOPC   H8X17694   2.914   5.756   5.983
  148DOPC   H8Y17695   2.738   5.742   5.964
  148DOPC   C3917696   2.854   5.588   5.865
  148DOPC   H9X17697   2.856   5.481   5.891
  148DOPC  C31017698   2.872   5.626   5.737
  148DOPC  H10X17699   2.889   5.550   5.660
  148DOPC  C31117700   2.871   5.769   5.688
  148DOPC  H11X17701   2.975   5.806   5.678
  148DOPC  H11Y17702   2.821   5.836   5.762
  148DOPC  C31217703   2.801   5.785   5.552
  148DOPC  H12X17704   2.779   5.893   5.536
  148DOPC  H12Y17705   2.704   5.731   5.552
  148DOPC  C31317706   2.889   5.739   5.436
  148DOPC  H13X17707   2.979   5.803   5.432
  148DOPC  H13Y17708   2.921   5.634   5.454
  148DOPC  C31417709   2.821   5.744   5.299
  148DOPC  H14X17710   2.723   5.692   5.305
  148DOPC  H14Y17711   2.801   5.850   5.270
  148DOPC  C31517712   2.906   5.676   5.191
  148DOPC  H15X17713   2.926   5.572   5.224
  148DOPC  H15Y17714   3.004   5.728   5.183
  148DOPC  C31617715   2.838   5.671   5.054
  148DOPC  H16X17716   2.732   5.640   5.068
  148DOPC  H16Y17717   2.837   5.773   5.009
  148DOPC  C31717718   2.904   5.572   4.957
  148DOPC  H17X17719   2.902   5.471   5.003
  148DOPC  H17Y17720   2.843   5.568   4.865
  148DOPC  C31817721   3.049   5.607   4.919
  148DOPC  H18X17722   3.089   5.532   4.847
  148DOPC  H18Y17723   3.053   5.707   4.871
  148DOPC  H18Z17724   3.114   5.607   5.009
  149DOPC     N17725   2.493   1.830   6.953
  149DOPC   C1217726   2.472   1.847   7.102
  149DOPC  H12A17727   2.551   1.796   7.156
  149DOPC  H12B17728   2.380   1.797   7.129
  149DOPC   C1317729   2.384   1.901   6.879
  149DOPC  H13A17730   2.288   1.871   6.917
  149DOPC  H13B17731   2.394   2.008   6.891
  149DOPC  H13C17732   2.388   1.877   6.773
  149DOPC   C1417733   2.490   1.685   6.915
  149DOPC  H14A17734   2.398   1.638   6.946
  149DOPC  H14B17735   2.496   1.672   6.808
  149DOPC  H14C17736   2.572   1.630   6.959
  149DOPC   C1517737   2.624   1.890   6.914
  149DOPC  H15A17738   2.627   1.992   6.947
  149DOPC  H15B17739   2.639   1.886   6.807
  149DOPC  H15C17740   2.705   1.839   6.963
  149DOPC   C1117741   2.463   1.992   7.158
  149DOPC  H11A17742   2.376   2.041   7.111
  149DOPC  H11B17743   2.443   1.985   7.267
  149DOPC     P17744   2.582   2.221   7.127
  149DOPC   O1317745   2.718   2.274   7.150
  149DOPC   O1417746   2.475   2.274   7.215
  149DOPC   O1217747   2.586   2.064   7.138
  149DOPC   O1117748   2.540   2.242   6.977
  149DOPC    C117749   2.638   2.256   6.873
  149DOPC    HA17750   2.675   2.157   6.840
  149DOPC    HB17751   2.725   2.316   6.908
  149DOPC    C217752   2.579   2.330   6.750
  149DOPC    HS17753   2.533   2.423   6.789
  149DOPC   O2117754   2.479   2.247   6.686
  149DOPC   C2117755   2.411   2.312   6.594
  149DOPC   O2217756   2.404   2.433   6.584
  149DOPC   C2217757   2.346   2.212   6.498
  149DOPC   H2R17758   2.252   2.177   6.546
  149DOPC   H2S17759   2.414   2.125   6.485
  149DOPC    C317760   2.691   2.369   6.649
  149DOPC    HX17761   2.773   2.419   6.704
  149DOPC    HY17762   2.648   2.442   6.577
  149DOPC   O3117763   2.741   2.250   6.583
  149DOPC   C3117764   2.796   2.271   6.464
  149DOPC   O3217765   2.821   2.381   6.417
  149DOPC   C3217766   2.823   2.137   6.396
  149DOPC   H2X17767   2.904   2.151   6.321
  149DOPC   H2Y17768   2.860   2.067   6.474
  149DOPC   C2317769   2.315   2.277   6.360
  149DOPC   H3R17770   2.265   2.375   6.375
  149DOPC   H3S17771   2.245   2.212   6.304
  149DOPC   C2417772   2.440   2.297   6.273
  149DOPC   H4R17773   2.470   2.199   6.231
  149DOPC   H4S17774   2.524   2.335   6.335
  149DOPC   C2517775   2.418   2.397   6.158
  149DOPC   H5R17776   2.390   2.495   6.203
  149DOPC   H5S17777   2.334   2.364   6.094
  149DOPC   C2617778   2.544   2.419   6.073
  149DOPC   H6R17779   2.632   2.435   6.139
  149DOPC   H6S17780   2.530   2.511   6.012
  149DOPC   C2717781   2.573   2.303   5.976
  149DOPC   H7R17782   2.482   2.288   5.914
  149DOPC   H7S17783   2.590   2.209   6.033
  149DOPC   C2817784   2.692   2.328   5.881
  149DOPC   H8R17785   2.678   2.427   5.832
  149DOPC   H8S17786   2.687   2.254   5.798
  149DOPC   C2917787   2.826   2.324   5.950
  149DOPC   H9R17788   2.846   2.410   6.015
  149DOPC  C21017789   2.920   2.227   5.941
  149DOPC  H10R17790   3.013   2.239   5.999
  149DOPC  C21117791   2.913   2.099   5.860
  149DOPC  H11R17792   2.831   2.102   5.785
  149DOPC  H11S17793   2.891   2.015   5.929
  149DOPC  C21217794   3.043   2.065   5.786
  149DOPC  H12R17795   3.130   2.088   5.850
  149DOPC  H12S17796   3.053   2.127   5.694
  149DOPC  C21317797   3.053   1.916   5.747
  149DOPC  H13R17798   3.043   1.856   5.840
  149DOPC  H13S17799   3.155   1.897   5.706
  149DOPC  C21417800   2.948   1.867   5.646
  149DOPC  H14R17801   2.847   1.901   5.675
  149DOPC  H14S17802   2.948   1.756   5.649
  149DOPC  C21517803   2.978   1.907   5.501
  149DOPC  H15R17804   3.085   1.887   5.479
  149DOPC  H15S17805   2.960   2.015   5.486
  149DOPC  C21617806   2.893   1.825   5.402
  149DOPC  H16R17807   2.786   1.849   5.417
  149DOPC  H16S17808   2.907   1.717   5.423
  149DOPC  C21717809   2.930   1.850   5.255
  149DOPC  H17R17810   3.038   1.827   5.241
  149DOPC  H17S17811   2.916   1.958   5.233
  149DOPC  C21817812   2.848   1.767   5.156
  149DOPC  H18R17813   2.877   1.790   5.052
  149DOPC  H18S17814   2.740   1.791   5.169
  149DOPC  H18T17815   2.862   1.659   5.174
  149DOPC   C3317816   2.697   2.079   6.330
  149DOPC   H3X17817   2.680   2.128   6.231
  149DOPC   H3Y17818   2.608   2.099   6.394
  149DOPC   C3417819   2.704   1.927   6.312
  149DOPC   H4X17820   2.730   1.882   6.411
  149DOPC   H4Y17821   2.786   1.901   6.241
  149DOPC   C3517822   2.572   1.863   6.267
  149DOPC   H5X17823   2.490   1.898   6.334
  149DOPC   H5Y17824   2.579   1.753   6.279
  149DOPC   C3617825   2.532   1.892   6.121
  149DOPC   H6X17826   2.432   1.848   6.104
  149DOPC   H6Y17827   2.525   2.002   6.105
  149DOPC   C3717828   2.628   1.829   6.018
  149DOPC   H7X17829   2.729   1.875   6.027
  149DOPC   H7Y17830   2.638   1.721   6.043
  149DOPC   C3817831   2.578   1.839   5.873
  149DOPC   H8X17832   2.482   1.784   5.865
  149DOPC   H8Y17833   2.651   1.787   5.807
  149DOPC   C3917834   2.564   1.982   5.829
  149DOPC   H9X17835   2.642   2.049   5.868
  149DOPC  C31017836   2.467   2.035   5.752
  149DOPC  H10X17837   2.472   2.142   5.728
  149DOPC  C31117838   2.350   1.962   5.691
  149DOPC  H11X17839   2.257   1.987   5.747
  149DOPC  H11Y17840   2.363   1.852   5.697
  149DOPC  C31217841   2.330   1.999   5.543
  149DOPC  H12X17842   2.265   1.922   5.495
  149DOPC  H12Y17843   2.428   1.994   5.492
  149DOPC  C31317844   2.262   2.135   5.523
  149DOPC  H13X17845   2.156   2.126   5.552
  149DOPC  H13Y17846   2.307   2.210   5.592
  149DOPC  C31417847   2.271   2.189   5.379
  149DOPC  H14X17848   2.221   2.116   5.311
  149DOPC  H14Y17849   2.215   2.285   5.372
  149DOPC  C31517850   2.414   2.213   5.327
  149DOPC  H15X17851   2.410   2.245   5.221
  149DOPC  H15Y17852   2.469   2.117   5.328
  149DOPC  C31617853   2.495   2.317   5.408
  149DOPC  H16X17854   2.480   2.301   5.517
  149DOPC  H16Y17855   2.603   2.299   5.388
  149DOPC  C31717856   2.465   2.463   5.372
  149DOPC  H17X17857   2.355   2.480   5.376
  149DOPC  H17Y17858   2.511   2.528   5.449
  149DOPC  C31817859   2.520   2.505   5.235
  149DOPC  H18X17860   2.629   2.487   5.229
  149DOPC  H18Y17861   2.471   2.447   5.154
  149DOPC  H18Z17862   2.501   2.613   5.216
  150DOPC     N17863   6.163   4.873   7.107
  150DOPC   C1217864   6.037   4.890   7.024
  150DOPC  H12A17865   5.973   4.804   7.039
  150DOPC  H12B17866   6.064   4.890   6.920
  150DOPC   C1317867   6.258   4.986   7.082
  150DOPC  H13A17868   6.346   4.979   7.144
  150DOPC  H13B17869   6.288   4.987   6.978
  150DOPC  H13C17870   6.207   5.080   7.098
  150DOPC   C1417871   6.234   4.747   7.068
  150DOPC  H14A17872   6.174   4.659   7.087
  150DOPC  H14B17873   6.263   4.749   6.964
  150DOPC  H14C17874   6.325   4.736   7.125
  150DOPC   C1517875   6.131   4.868   7.253
  150DOPC  H15A17876   6.067   4.783   7.275
  150DOPC  H15B17877   6.081   4.959   7.283
  150DOPC  H15C17878   6.221   4.857   7.311
  150DOPC   C1117879   5.953   5.019   7.046
  150DOPC  H11A17880   5.855   5.008   6.995
  150DOPC  H11B17881   5.930   5.031   7.154
  150DOPC     P17882   6.050   5.155   6.844
  150DOPC   O1317883   6.197   5.148   6.830
  150DOPC   O1417884   5.984   5.279   6.801
  150DOPC   O1217885   6.020   5.135   6.999
  150DOPC   O1117886   5.979   5.028   6.780
  150DOPC    C117887   6.046   4.942   6.689
  150DOPC    HA17888   6.046   4.838   6.729
  150DOPC    HB17889   6.152   4.970   6.671
  150DOPC    C217890   5.976   4.938   6.551
  150DOPC    HS17891   5.871   4.906   6.566
  150DOPC   O2117892   6.049   4.842   6.473
  150DOPC   C2117893   5.986   4.800   6.364
  150DOPC   O2217894   5.869   4.821   6.337
  150DOPC   C2217895   6.083   4.713   6.284
  150DOPC   H2R17896   6.105   4.623   6.345
  150DOPC   H2S17897   6.177   4.771   6.271
  150DOPC    C317898   5.973   5.079   6.483
  150DOPC    HX17899   5.903   5.141   6.543
  150DOPC    HY17900   5.929   5.071   6.381
  150DOPC   O3117901   6.103   5.143   6.484
  150DOPC   C3117902   6.183   5.118   6.382
  150DOPC   O3217903   6.157   5.047   6.286
  150DOPC   C3217904   6.316   5.189   6.405
  150DOPC   H2X17905   6.304   5.263   6.487
  150DOPC   H2Y17906   6.389   5.112   6.438
  150DOPC   C2317907   6.028   4.671   6.146
  150DOPC   H3R17908   5.927   4.627   6.157
  150DOPC   H3S17909   6.095   4.593   6.105
  150DOPC   C2417910   6.022   4.787   6.046
  150DOPC   H4R17911   6.120   4.838   6.042
  150DOPC   H4S17912   5.948   4.863   6.081
  150DOPC   C2517913   5.983   4.737   5.906
  150DOPC   H5R17914   5.875   4.711   5.905
  150DOPC   H5S17915   6.039   4.643   5.886
  150DOPC   C2617916   6.014   4.835   5.792
  150DOPC   H6R17917   6.121   4.863   5.796
  150DOPC   H6S17918   5.954   4.928   5.804
  150DOPC   C2717919   5.984   4.770   5.656
  150DOPC   H7R17920   5.877   4.739   5.654
  150DOPC   H7S17921   6.046   4.678   5.649
  150DOPC   C2817922   6.013   4.862   5.537
  150DOPC   H8R17923   6.117   4.900   5.544
  150DOPC   H8S17924   5.946   4.950   5.543
  150DOPC   C2917925   5.995   4.785   5.409
  150DOPC   H9R17926   6.083   4.728   5.376
  150DOPC  C21017927   5.883   4.779   5.333
  150DOPC  H10R17928   5.886   4.719   5.241
  150DOPC  C21117929   5.752   4.849   5.359
  150DOPC  H11R17930   5.751   4.906   5.454
  150DOPC  H11S17931   5.669   4.776   5.364
  150DOPC  C21217932   5.728   4.946   5.242
  150DOPC  H12R17933   5.731   4.888   5.147
  150DOPC  H12S17934   5.809   5.021   5.238
  150DOPC  C21317935   5.593   5.019   5.245
  150DOPC  H13R17936   5.585   5.083   5.336
  150DOPC  H13S17937   5.511   4.944   5.247
  150DOPC  C21417938   5.581   5.104   5.118
  150DOPC  H14R17939   5.610   5.038   5.034
  150DOPC  H14S17940   5.655   5.188   5.120
  150DOPC  C21517941   5.442   5.157   5.084
  150DOPC  H15R17942   5.429   5.256   5.132
  150DOPC  H15S17943   5.366   5.088   5.124
  150DOPC  C21617944   5.422   5.167   4.931
  150DOPC  H16R17945   5.318   5.200   4.910
  150DOPC  H16S17946   5.433   5.065   4.888
  150DOPC  C21717947   5.522   5.259   4.860
  150DOPC  H17R17948   5.625   5.223   4.879
  150DOPC  H17S17949   5.515   5.362   4.902
  150DOPC  C21817950   5.501   5.265   4.708
  150DOPC  H18R17951   5.577   5.330   4.660
  150DOPC  H18S17952   5.400   5.305   4.684
  150DOPC  H18T17953   5.509   5.163   4.664
  150DOPC   C3317954   6.369   5.259   6.279
  150DOPC   H3X17955   6.377   5.186   6.195
  150DOPC   H3Y17956   6.472   5.296   6.299
  150DOPC   C3417957   6.282   5.378   6.237
  150DOPC   H4X17958   6.270   5.447   6.324
  150DOPC   H4Y17959   6.180   5.342   6.210
  150DOPC   C3517960   6.339   5.459   6.119
  150DOPC   H5X17961   6.434   5.506   6.150
  150DOPC   H5Y17962   6.267   5.541   6.096
  150DOPC   C3617963   6.362   5.379   5.990
  150DOPC   H6X17964   6.389   5.450   5.909
  150DOPC   H6Y17965   6.449   5.310   6.004
  150DOPC   C3717966   6.240   5.296   5.945
  150DOPC   H7X17967   6.229   5.207   6.011
  150DOPC   H7Y17968   6.149   5.358   5.958
  150DOPC   C3817969   6.247   5.252   5.798
  150DOPC   H8X17970   6.243   5.343   5.735
  150DOPC   H8Y17971   6.155   5.193   5.775
  150DOPC   C3917972   6.368   5.168   5.769
  150DOPC   H9X17973   6.381   5.083   5.838
  150DOPC  C31017974   6.459   5.186   5.671
  150DOPC  H10X17975   6.543   5.114   5.663
  150DOPC  C31117976   6.460   5.294   5.566
  150DOPC  H11X17977   6.548   5.360   5.582
  150DOPC  H11Y17978   6.370   5.359   5.571
  150DOPC  C31217979   6.469   5.237   5.423
  150DOPC  H12X17980   6.561   5.176   5.413
  150DOPC  H12Y17981   6.478   5.321   5.352
  150DOPC  C31317982   6.348   5.151   5.382
  150DOPC  H13X17983   6.335   5.070   5.458
  150DOPC  H13Y17984   6.256   5.212   5.383
  150DOPC  C31417985   6.366   5.084   5.245
  150DOPC  H14X17986   6.467   5.038   5.242
  150DOPC  H14Y17987   6.292   5.002   5.235
  150DOPC  C31517988   6.348   5.179   5.126
  150DOPC  H15X17989   6.407   5.138   5.041
  150DOPC  H15Y17990   6.389   5.279   5.151
  150DOPC  C31617991   6.202   5.191   5.082
  150DOPC  H16X17992   6.169   5.093   5.042
  150DOPC  H16Y17993   6.138   5.213   5.170
  150DOPC  C31717994   6.178   5.298   4.975
  150DOPC  H17X17995   6.075   5.286   4.935
  150DOPC  H17Y17996   6.183   5.399   5.022
  150DOPC  C31817997   6.278   5.295   4.858
  150DOPC  H18X17998   6.240   5.354   4.772
  150DOPC  H18Y17999   6.375   5.337   4.889
  150DOPC  H18Z18000   6.294   5.190   4.824
  151DOPC     N18001   1.446   3.835   7.138
  151DOPC   C1218002   1.311   3.899   7.167
  151DOPC  H12A18003   1.277   3.950   7.078
  151DOPC  H12B18004   1.321   3.972   7.245
  151DOPC   C1318005   1.456   3.793   6.994
  151DOPC  H13A18006   1.439   3.876   6.926
  151DOPC  H13B18007   1.552   3.748   6.972
  151DOPC  H13C18008   1.380   3.721   6.970
  151DOPC   C1418009   1.465   3.712   7.222
  151DOPC  H14A18010   1.461   3.737   7.327
  151DOPC  H14B18011   1.384   3.643   7.201
  151DOPC  H14C18012   1.560   3.665   7.201
  151DOPC   C1518013   1.557   3.929   7.172
  151DOPC  H15A18014   1.561   3.943   7.279
  151DOPC  H15B18015   1.546   4.024   7.123
  151DOPC  H15C18016   1.652   3.885   7.145
  151DOPC   C1118017   1.195   3.805   7.206
  151DOPC  H11A18018   1.217   3.759   7.305
  151DOPC  H11B18019   1.103   3.866   7.221
  151DOPC     P18020   1.111   3.741   6.968
  151DOPC   O1318021   1.131   3.886   6.946
  151DOPC   O1418022   0.975   3.684   6.971
  151DOPC   O1218023   1.174   3.702   7.109
  151DOPC   O1118024   1.206   3.660   6.872
  151DOPC    C118025   1.213   3.517   6.872
  151DOPC    HA18026   1.148   3.470   6.949
  151DOPC    HB18027   1.317   3.486   6.896
  151DOPC    C218028   1.174   3.456   6.734
  151DOPC    HS18029   1.202   3.349   6.732
  151DOPC   O2118030   1.235   3.522   6.621
  151DOPC   C2118031   1.352   3.577   6.620
  151DOPC   O2218032   1.439   3.572   6.706
  151DOPC   C2218033   1.370   3.645   6.483
  151DOPC   H2R18034   1.271   3.649   6.434
  151DOPC   H2S18035   1.437   3.581   6.422
  151DOPC    C318036   1.019   3.465   6.713
  151DOPC    HX18037   0.982   3.562   6.751
  151DOPC    HY18038   0.971   3.387   6.776
  151DOPC   O3118039   0.982   3.443   6.575
  151DOPC   C3118040   0.976   3.554   6.501
  151DOPC   O3218041   0.990   3.668   6.540
  151DOPC   C3218042   0.965   3.515   6.354
  151DOPC   H2X18043   1.067   3.523   6.311
  151DOPC   H2Y18044   0.932   3.409   6.346
  151DOPC   C2318045   1.427   3.789   6.494
  151DOPC   H3R18046   1.533   3.790   6.464
  151DOPC   H3S18047   1.423   3.821   6.600
  151DOPC   C2418048   1.346   3.892   6.414
  151DOPC   H4R18049   1.348   3.986   6.474
  151DOPC   H4S18050   1.239   3.862   6.407
  151DOPC   C2518051   1.403   3.928   6.276
  151DOPC   H5R18052   1.514   3.934   6.280
  151DOPC   H5S18053   1.365   4.029   6.252
  151DOPC   C2618054   1.362   3.838   6.158
  151DOPC   H6R18055   1.258   3.802   6.171
  151DOPC   H6S18056   1.429   3.750   6.156
  151DOPC   C2718057   1.372   3.917   6.027
  151DOPC   H7R18058   1.448   3.997   6.041
  151DOPC   H7S18059   1.275   3.969   6.007
  151DOPC   C2818060   1.416   3.836   5.903
  151DOPC   H8R18061   1.512   3.786   5.927
  151DOPC   H8S18062   1.437   3.909   5.822
  151DOPC   C2918063   1.314   3.737   5.856
  151DOPC   H9R18064   1.226   3.725   5.921
  151DOPC  C21018065   1.324   3.663   5.745
  151DOPC  H10R18066   1.243   3.593   5.719
  151DOPC  C21118067   1.439   3.666   5.647
  151DOPC  H11R18068   1.513   3.589   5.678
  151DOPC  H11S18069   1.492   3.763   5.647
  151DOPC  C21218070   1.397   3.632   5.502
  151DOPC  H12R18071   1.318   3.554   5.501
  151DOPC  H12S18072   1.485   3.588   5.451
  151DOPC  C21318073   1.354   3.752   5.415
  151DOPC  H13R18074   1.327   3.711   5.316
  151DOPC  H13S18075   1.440   3.821   5.402
  151DOPC  C21418076   1.233   3.833   5.465
  151DOPC  H14R18077   1.261   3.892   5.555
  151DOPC  H14S18078   1.152   3.762   5.494
  151DOPC  C21518079   1.179   3.925   5.355
  151DOPC  H15R18080   1.162   3.864   5.263
  151DOPC  H15S18081   1.255   4.002   5.330
  151DOPC  C21618082   1.047   3.993   5.394
  151DOPC  H16R18083   1.066   4.055   5.484
  151DOPC  H16S18084   0.973   3.914   5.421
  151DOPC  C21718085   0.987   4.080   5.283
  151DOPC  H17R18086   1.064   4.151   5.247
  151DOPC  H17S18087   0.904   4.140   5.327
  151DOPC  C21818088   0.932   4.000   5.164
  151DOPC  H18R18089   0.883   4.068   5.091
  151DOPC  H18S18090   0.856   3.926   5.199
  151DOPC  H18T18091   1.013   3.945   5.113
  151DOPC   C3318092   0.868   3.605   6.275
  151DOPC   H3X18093   0.890   3.712   6.294
  151DOPC   H3Y18094   0.764   3.586   6.311
  151DOPC   C3418095   0.876   3.578   6.124
  151DOPC   H4X18096   0.782   3.613   6.076
  151DOPC   H4Y18097   0.882   3.469   6.109
  151DOPC   C3518098   0.995   3.648   6.057
  151DOPC   H5X18099   1.027   3.588   5.969
  151DOPC   H5Y18100   1.081   3.648   6.128
  151DOPC   C3618101   0.965   3.792   6.012
  151DOPC   H6X18102   0.911   3.844   6.094
  151DOPC   H6Y18103   1.060   3.846   5.996
  151DOPC   C3718104   0.882   3.800   5.883
  151DOPC   H7X18105   0.792   3.735   5.893
  151DOPC   H7Y18106   0.845   3.904   5.871
  151DOPC   C3818107   0.960   3.760   5.756
  151DOPC   H8X18108   1.004   3.659   5.771
  151DOPC   H8Y18109   1.045   3.830   5.744
  151DOPC   C3918110   0.874   3.764   5.632
  151DOPC   H9X18111   0.835   3.863   5.605
  151DOPC  C31018112   0.841   3.658   5.554
  151DOPC  H10X18113   0.779   3.675   5.465
  151DOPC  C31118114   0.884   3.515   5.577
  151DOPC  H11X18115   0.811   3.445   5.531
  151DOPC  H11Y18116   0.882   3.493   5.686
  151DOPC  C31218117   1.025   3.480   5.525
  151DOPC  H12X18118   1.063   3.397   5.589
  151DOPC  H12Y18119   1.094   3.565   5.540
  151DOPC  C31318120   1.032   3.431   5.379
  151DOPC  H13X18121   1.137   3.404   5.357
  151DOPC  H13Y18122   0.971   3.339   5.370
  151DOPC  C31418123   0.986   3.534   5.274
  151DOPC  H14X18124   0.879   3.558   5.291
  151DOPC  H14Y18125   1.044   3.628   5.289
  151DOPC  C31518126   1.003   3.486   5.129
  151DOPC  H15X18127   1.110   3.465   5.109
  151DOPC  H15Y18128   0.972   3.569   5.062
  151DOPC  C31618129   0.920   3.361   5.096
  151DOPC  H16X18130   0.962   3.275   5.153
  151DOPC  H16Y18131   0.815   3.376   5.130
  151DOPC  C31718132   0.918   3.324   4.947
  151DOPC  H17X18133   1.022   3.321   4.909
  151DOPC  H17Y18134   0.876   3.222   4.937
  151DOPC  C31818135   0.833   3.418   4.860
  151DOPC  H18X18136   0.835   3.386   4.754
  151DOPC  H18Y18137   0.728   3.418   4.895
  151DOPC  H18Z18138   0.872   3.522   4.866
  152DOPC     N18139   3.930   1.395   7.017
  152DOPC   C1218140   3.906   1.315   6.890
  152DOPC  H12A18141   3.930   1.377   6.805
  152DOPC  H12B18142   3.801   1.291   6.884
  152DOPC   C1318143   4.075   1.425   7.037
  152DOPC  H13A18144   4.119   1.475   6.952
  152DOPC  H13B18145   4.089   1.487   7.123
  152DOPC  H13C18146   4.131   1.334   7.055
  152DOPC   C1418147   3.885   1.314   7.135
  152DOPC  H14A18148   3.917   1.359   7.228
  152DOPC  H14B18149   3.777   1.305   7.140
  152DOPC  H14C18150   3.927   1.215   7.129
  152DOPC   C1518151   3.855   1.525   7.019
  152DOPC  H15A18152   3.881   1.579   7.109
  152DOPC  H15B18153   3.749   1.509   7.020
  152DOPC  H15C18154   3.882   1.587   6.935
  152DOPC   C1118155   3.983   1.181   6.876
  152DOPC  H11A18156   3.969   1.143   6.773
  152DOPC  H11B18157   4.092   1.202   6.888
  152DOPC     P18158   4.026   0.956   6.997
  152DOPC   O1318159   3.959   0.872   7.099
  152DOPC   O1418160   4.165   1.000   7.025
  152DOPC   O1218161   3.935   1.085   6.970
  152DOPC   O1118162   4.017   0.879   6.860
  152DOPC    C118163   3.887   0.863   6.802
  152DOPC    HA18164   3.846   0.963   6.777
  152DOPC    HB18165   3.816   0.813   6.872
  152DOPC    C218166   3.885   0.782   6.669
  152DOPC    HS18167   3.896   0.675   6.698
  152DOPC   O2118168   3.997   0.821   6.588
  152DOPC   C2118169   4.018   0.743   6.483
  152DOPC   O2218170   3.955   0.643   6.454
  152DOPC   C2218171   4.135   0.800   6.402
  152DOPC   H2R18172   4.221   0.731   6.417
  152DOPC   H2S18173   4.162   0.900   6.443
  152DOPC    C318174   3.749   0.799   6.594
  152DOPC    HX18175   3.665   0.800   6.667
  152DOPC    HY18176   3.733   0.708   6.531
  152DOPC   O3118177   3.748   0.914   6.506
  152DOPC   C3118178   3.710   1.030   6.555
  152DOPC   O3218179   3.659   1.048   6.665
  152DOPC   C3218180   3.746   1.141   6.456
  152DOPC   H2X18181   3.790   1.096   6.365
  152DOPC   H2Y18182   3.652   1.192   6.427
  152DOPC   C2318183   4.102   0.813   6.252
  152DOPC   H3R18184   4.092   0.711   6.208
  152DOPC   H3S18185   4.187   0.863   6.200
  152DOPC   C2418186   3.973   0.892   6.224
  152DOPC   H4R18187   3.979   0.990   6.276
  152DOPC   H4S18188   3.887   0.836   6.267
  152DOPC   C2518189   3.946   0.913   6.075
  152DOPC   H5R18190   3.961   0.817   6.022
  152DOPC   H5S18191   4.021   0.984   6.032
  152DOPC   C2618192   3.804   0.962   6.046
  152DOPC   H6R18193   3.733   0.919   6.121
  152DOPC   H6S18194   3.773   0.923   5.946
  152DOPC   C2718195   3.791   1.114   6.041
  152DOPC   H7R18196   3.852   1.150   5.956
  152DOPC   H7S18197   3.833   1.159   6.134
  152DOPC   C2818198   3.646   1.161   6.022
  152DOPC   H8R18199   3.588   1.143   6.115
  152DOPC   H8S18200   3.600   1.097   5.944
  152DOPC   C2918201   3.642   1.307   5.985
  152DOPC   H9R18202   3.674   1.376   6.065
  152DOPC  C21018203   3.606   1.359   5.866
  152DOPC  H10R18204   3.612   1.468   5.853
  152DOPC  C21118205   3.562   1.283   5.744
  152DOPC  H11R18206   3.478   1.335   5.693
  152DOPC  H11S18207   3.524   1.182   5.770
  152DOPC  C21218208   3.678   1.265   5.643
  152DOPC  H12R18209   3.650   1.185   5.571
  152DOPC  H12S18210   3.768   1.230   5.698
  152DOPC  C21318211   3.711   1.392   5.563
  152DOPC  H13R18212   3.720   1.479   5.631
  152DOPC  H13S18213   3.627   1.412   5.493
  152DOPC  C21418214   3.842   1.375   5.485
  152DOPC  H14R18215   3.835   1.284   5.422
  152DOPC  H14S18216   3.924   1.359   5.558
  152DOPC  C21518217   3.878   1.495   5.395
  152DOPC  H15R18218   3.983   1.483   5.362
  152DOPC  H15S18219   3.872   1.589   5.453
  152DOPC  C21618220   3.789   1.504   5.270
  152DOPC  H16R18221   3.684   1.525   5.300
  152DOPC  H16S18222   3.790   1.405   5.219
  152DOPC  C21718223   3.837   1.610   5.171
  152DOPC  H17R18224   3.943   1.590   5.145
  152DOPC  H17S18225   3.833   1.710   5.221
  152DOPC  C21818226   3.754   1.615   5.043
  152DOPC  H18R18227   3.760   1.518   4.989
  152DOPC  H18S18228   3.792   1.694   4.975
  152DOPC  H18T18229   3.648   1.635   5.066
  152DOPC   C3318230   3.845   1.243   6.518
  152DOPC   H3X18231   3.935   1.190   6.557
  152DOPC   H3Y18232   3.795   1.293   6.604
  152DOPC   C3418233   3.892   1.350   6.418
  152DOPC   H4X18234   3.923   1.441   6.474
  152DOPC   H4Y18235   3.807   1.379   6.353
  152DOPC   C3518236   4.010   1.304   6.332
  152DOPC   H5X18237   3.984   1.207   6.286
  152DOPC   H5Y18238   4.100   1.289   6.396
  152DOPC   C3618239   4.044   1.404   6.220
  152DOPC   H6X18240   3.954   1.416   6.156
  152DOPC   H6Y18241   4.067   1.503   6.266
  152DOPC   C3718242   4.163   1.363   6.131
  152DOPC   H7X18243   4.178   1.443   6.055
  152DOPC   H7Y18244   4.255   1.356   6.192
  152DOPC   C3818245   4.139   1.229   6.059
  152DOPC   H8X18246   4.040   1.236   6.009
  152DOPC   H8Y18247   4.131   1.149   6.135
  152DOPC   C3918248   4.247   1.191   5.960
  152DOPC   H9X18249   4.346   1.173   6.005
  152DOPC  C31018250   4.234   1.176   5.827
  152DOPC  H10X18251   4.321   1.146   5.768
  152DOPC  C31118252   4.108   1.195   5.746
  152DOPC  H11X18253   4.133   1.239   5.647
  152DOPC  H11Y18254   4.040   1.268   5.794
  152DOPC  C31218255   4.027   1.065   5.724
  152DOPC  H12X18256   3.933   1.090   5.671
  152DOPC  H12Y18257   3.997   1.024   5.823
  152DOPC  C31318258   4.100   0.955   5.645
  152DOPC  H13X18259   4.187   0.919   5.705
  152DOPC  H13Y18260   4.030   0.869   5.636
  152DOPC  C31418261   4.148   0.995   5.505
  152DOPC  H14X18262   4.227   1.073   5.516
  152DOPC  H14Y18263   4.195   0.907   5.456
  152DOPC  C31518264   4.038   1.049   5.412
  152DOPC  H15X18265   4.086   1.094   5.323
  152DOPC  H15Y18266   3.983   1.130   5.464
  152DOPC  C31618267   3.938   0.942   5.366
  152DOPC  H16X18268   3.988   0.876   5.292
  152DOPC  H16Y18269   3.908   0.879   5.452
  152DOPC  C31718270   3.810   1.001   5.304
  152DOPC  H17X18271   3.745   0.917   5.270
  152DOPC  H17Y18272   3.754   1.054   5.384
  152DOPC  C31818273   3.833   1.097   5.187
  152DOPC  H18X18274   3.736   1.133   5.147
  152DOPC  H18Y18275   3.893   1.185   5.219
  152DOPC  H18Z18276   3.888   1.045   5.105
  153DOPC     N18277   5.433   6.474   7.031
  153DOPC   C1218278   5.541   6.426   6.935
  153DOPC  H12A18279   5.638   6.436   6.981
  153DOPC  H12B18280   5.542   6.492   6.850
  153DOPC   C1318281   5.406   6.370   7.136
  153DOPC  H13A18282   5.336   6.407   7.210
  153DOPC  H13B18283   5.363   6.282   7.090
  153DOPC  H13C18284   5.497   6.341   7.186
  153DOPC   C1418285   5.308   6.495   6.953
  153DOPC  H14A18286   5.323   6.572   6.878
  153DOPC  H14B18287   5.285   6.403   6.901
  153DOPC  H14C18288   5.225   6.521   7.017
  153DOPC   C1518289   5.476   6.602   7.096
  153DOPC  H15A18290   5.561   6.585   7.160
  153DOPC  H15B18291   5.398   6.642   7.159
  153DOPC  H15C18292   5.503   6.675   7.021
  153DOPC   C1118293   5.530   6.280   6.882
  153DOPC  H11A18294   5.607   6.267   6.802
  153DOPC  H11B18295   5.559   6.213   6.965
  153DOPC     P18296   5.328   6.118   6.867
  153DOPC   O1318297   5.262   6.137   6.998
  153DOPC   O1418298   5.427   6.008   6.860
  153DOPC   O1218299   5.401   6.252   6.827
  153DOPC   O1118300   5.219   6.101   6.754
  153DOPC    C118301   5.245   6.026   6.635
  153DOPC    HA18302   5.149   6.013   6.580
  153DOPC    HB18303   5.282   5.924   6.660
  153DOPC    C218304   5.345   6.095   6.539
  153DOPC    HS18305   5.440   6.108   6.596
  153DOPC   O2118306   5.293   6.222   6.497
  153DOPC   C2118307   5.383   6.305   6.447
  153DOPC   O2218308   5.504   6.288   6.448
  153DOPC   C2218309   5.313   6.429   6.391
  153DOPC   H2R18310   5.318   6.508   6.470
  153DOPC   H2S18311   5.207   6.404   6.372
  153DOPC    C318312   5.378   6.004   6.416
  153DOPC    HX18313   5.419   5.909   6.457
  153DOPC    HY18314   5.460   6.050   6.358
  153DOPC   O3118315   5.262   5.972   6.335
  153DOPC   C3118316   5.245   6.053   6.230
  153DOPC   O3218317   5.313   6.150   6.204
  153DOPC   C3218318   5.132   6.001   6.141
  153DOPC   H2X18319   5.152   5.895   6.118
  153DOPC   H2Y18320   5.036   6.010   6.196
  153DOPC   C2318321   5.378   6.481   6.260
  153DOPC   H3R18322   5.367   6.403   6.181
  153DOPC   H3S18323   5.487   6.496   6.275
  153DOPC   C2418324   5.315   6.612   6.212
  153DOPC   H4R18325   5.320   6.686   6.295
  153DOPC   H4S18326   5.208   6.595   6.189
  153DOPC   C2518327   5.384   6.673   6.088
  153DOPC   H5R18328   5.489   6.701   6.115
  153DOPC   H5S18329   5.331   6.767   6.061
  153DOPC   C2618330   5.390   6.582   5.965
  153DOPC   H6R18331   5.456   6.494   5.988
  153DOPC   H6S18332   5.438   6.637   5.882
  153DOPC   C2718333   5.253   6.531   5.918
  153DOPC   H7R18334   5.186   6.619   5.905
  153DOPC   H7S18335   5.209   6.466   5.996
  153DOPC   C2818336   5.258   6.454   5.784
  153DOPC   H8R18337   5.294   6.524   5.705
  153DOPC   H8S18338   5.155   6.425   5.757
  153DOPC   C2918339   5.345   6.331   5.794
  153DOPC   H9R18340   5.328   6.270   5.883
  153DOPC  C21018341   5.439   6.292   5.706
  153DOPC  H10R18342   5.493   6.198   5.724
  153DOPC  C21118343   5.478   6.364   5.579
  153DOPC  H11R18344   5.582   6.337   5.551
  153DOPC  H11S18345   5.479   6.474   5.596
  153DOPC  C21218346   5.384   6.336   5.460
  153DOPC  H12R18347   5.421   6.393   5.373
  153DOPC  H12S18348   5.283   6.373   5.485
  153DOPC  C21318349   5.373   6.188   5.419
  153DOPC  H13R18350   5.301   6.180   5.335
  153DOPC  H13S18351   5.332   6.128   5.504
  153DOPC  C21418352   5.506   6.125   5.375
  153DOPC  H14R18353   5.579   6.130   5.459
  153DOPC  H14S18354   5.548   6.184   5.290
  153DOPC  C21518355   5.491   5.978   5.333
  153DOPC  H15R18356   5.422   5.972   5.246
  153DOPC  H15S18357   5.445   5.921   5.416
  153DOPC  C21618358   5.626   5.917   5.295
  153DOPC  H16R18359   5.695   5.926   5.382
  153DOPC  H16S18360   5.669   5.976   5.212
  153DOPC  C21718361   5.622   5.769   5.252
  153DOPC  H17R18362   5.723   5.739   5.218
  153DOPC  H17S18363   5.556   5.760   5.163
  153DOPC  C21818364   5.576   5.673   5.361
  153DOPC  H18R18365   5.580   5.568   5.325
  153DOPC  H18S18366   5.472   5.695   5.393
  153DOPC  H18T18367   5.643   5.682   5.450
  153DOPC   C3318368   5.129   6.084   6.010
  153DOPC   H3X18369   5.231   6.088   5.968
  153DOPC   H3Y18370   5.098   6.188   6.032
  153DOPC   C3418371   5.039   6.027   5.900
  153DOPC   H4X18372   4.933   6.026   5.933
  153DOPC   H4Y18373   5.069   5.922   5.879
  153DOPC   C3518374   5.054   6.109   5.771
  153DOPC   H5X18375   5.162   6.119   5.749
  153DOPC   H5Y18376   5.014   6.212   5.788
  153DOPC   C3618377   4.987   6.048   5.648
  153DOPC   H6X18378   5.028   5.946   5.633
  153DOPC   H6Y18379   4.877   6.039   5.663
  153DOPC   C3718380   5.016   6.132   5.522
  153DOPC   H7X18381   4.942   6.214   5.513
  153DOPC   H7Y18382   5.116   6.179   5.534
  153DOPC   C3818383   5.021   6.049   5.391
  153DOPC   H8X18384   5.088   5.962   5.406
  153DOPC   H8Y18385   5.066   6.112   5.312
  153DOPC   C3918386   4.883   6.005   5.352
  153DOPC   H9X18387   4.812   5.993   5.436
  153DOPC  C31018388   4.841   5.977   5.228
  153DOPC  H10X18389   4.739   5.940   5.213
  153DOPC  C31118390   4.925   5.982   5.103
  153DOPC  H11X18391   4.885   5.907   5.031
  153DOPC  H11Y18392   5.029   5.951   5.126
  153DOPC  C31218393   4.931   6.116   5.028
  153DOPC  H12X18394   4.976   6.192   5.095
  153DOPC  H12Y18395   4.830   6.150   5.000
  153DOPC  C31318396   5.018   6.100   4.901
  153DOPC  H13X18397   5.111   6.047   4.929
  153DOPC  H13Y18398   4.964   6.035   4.829
  153DOPC  C31418399   5.056   6.231   4.831
  153DOPC  H14X18400   5.119   6.204   4.743
  153DOPC  H14Y18401   4.964   6.281   4.792
  153DOPC  C31518402   5.135   6.332   4.917
  153DOPC  H15X18403   5.065   6.384   4.985
  153DOPC  H15Y18404   5.178   6.408   4.849
  153DOPC  C31618405   5.248   6.268   5.000
  153DOPC  H16X18406   5.203   6.212   5.085
  153DOPC  H16Y18407   5.303   6.195   4.938
  153DOPC  C31718408   5.349   6.370   5.056
  153DOPC  H17X18409   5.423   6.316   5.118
  153DOPC  H17Y18410   5.404   6.416   4.970
  153DOPC  C31818411   5.286   6.482   5.139
  153DOPC  H18X18412   5.231   6.439   5.226
  153DOPC  H18Y18413   5.364   6.551   5.178
  153DOPC  H18Z18414   5.214   6.541   5.078
  154DOPC     N18415   6.969   3.717   7.075
  154DOPC   C1218416   6.914   3.854   7.039
  154DOPC  H12A18417   6.996   3.916   7.007
  154DOPC  H12B18418   6.873   3.899   7.128
  154DOPC   C1318419   7.082   3.735   7.172
  154DOPC  H13A18420   7.126   3.639   7.197
  154DOPC  H13B18421   7.160   3.796   7.128
  154DOPC  H13C18422   7.047   3.782   7.262
  154DOPC   C1418423   7.021   3.648   6.952
  154DOPC  H14A18424   7.092   3.708   6.898
  154DOPC  H14B18425   7.065   3.552   6.976
  154DOPC  H14C18426   6.940   3.628   6.883
  154DOPC   C1518427   6.861   3.635   7.137
  154DOPC  H15A18428   6.832   3.674   7.233
  154DOPC  H15B18429   6.889   3.531   7.149
  154DOPC  H15C18430   6.773   3.640   7.075
  154DOPC   C1118431   6.803   3.859   6.932
  154DOPC  H11A18432   6.796   3.964   6.898
  154DOPC  H11B18433   6.830   3.797   6.843
  154DOPC     P18434   6.547   3.836   6.910
  154DOPC   O1318435   6.548   3.976   6.863
  154DOPC   O1418436   6.438   3.795   7.002
  154DOPC   O1218437   6.681   3.814   6.990
  154DOPC   O1118438   6.563   3.730   6.792
  154DOPC    C118439   6.589   3.595   6.835
  154DOPC    HA18440   6.510   3.558   6.903
  154DOPC    HB18441   6.686   3.591   6.890
  154DOPC    C218442   6.603   3.491   6.719
  154DOPC    HS18443   6.663   3.406   6.758
  154DOPC   O2118444   6.667   3.549   6.604
  154DOPC   C2118445   6.795   3.577   6.620
  154DOPC   O2218446   6.864   3.548   6.716
  154DOPC   C2218447   6.847   3.646   6.493
  154DOPC   H2R18448   6.917   3.726   6.524
  154DOPC   H2S18449   6.760   3.693   6.442
  154DOPC    C318450   6.466   3.431   6.675
  154DOPC    HX18451   6.407   3.412   6.768
  154DOPC    HY18452   6.486   3.331   6.630
  154DOPC   O3118453   6.389   3.517   6.588
  154DOPC   C3118454   6.410   3.496   6.458
  154DOPC   O3218455   6.479   3.408   6.410
  154DOPC   C3218456   6.328   3.596   6.378
  154DOPC   H2X18457   6.221   3.582   6.407
  154DOPC   H2Y18458   6.359   3.699   6.408
  154DOPC   C2318459   6.918   3.545   6.400
  154DOPC   H3R18460   6.853   3.455   6.387
  154DOPC   H3S18461   7.012   3.511   6.447
  154DOPC   C2418462   6.948   3.600   6.260
  154DOPC   H4R18463   7.007   3.524   6.204
  154DOPC   H4S18464   7.009   3.692   6.268
  154DOPC   C2518465   6.822   3.629   6.177
  154DOPC   H5R18466   6.762   3.708   6.226
  154DOPC   H5S18467   6.759   3.538   6.171
  154DOPC   C2618468   6.854   3.676   6.034
  154DOPC   H6R18469   6.913   3.598   5.980
  154DOPC   H6S18470   6.916   3.768   6.039
  154DOPC   C2718471   6.726   3.707   5.955
  154DOPC   H7R18472   6.662   3.771   6.019
  154DOPC   H7S18473   6.670   3.613   5.936
  154DOPC   C2818474   6.750   3.782   5.823
  154DOPC   H8R18475   6.812   3.872   5.843
  154DOPC   H8S18476   6.652   3.820   5.788
  154DOPC   C2918477   6.812   3.700   5.713
  154DOPC   H9R18478   6.922   3.700   5.709
  154DOPC  C21018479   6.743   3.628   5.622
  154DOPC  H10R18480   6.797   3.574   5.543
  154DOPC  C21118481   6.592   3.618   5.617
  154DOPC  H11R18482   6.550   3.710   5.572
  154DOPC  H11S18483   6.549   3.608   5.718
  154DOPC  C21218484   6.545   3.498   5.532
  154DOPC  H12R18485   6.582   3.511   5.428
  154DOPC  H12S18486   6.434   3.500   5.528
  154DOPC  C21318487   6.590   3.361   5.584
  154DOPC  H13R18488   6.556   3.349   5.690
  154DOPC  H13S18489   6.701   3.358   5.585
  154DOPC  C21418490   6.540   3.240   5.502
  154DOPC  H14R18491   6.430   3.228   5.514
  154DOPC  H14S18492   6.588   3.149   5.546
  154DOPC  C21518493   6.574   3.245   5.352
  154DOPC  H15R18494   6.594   3.142   5.317
  154DOPC  H15S18495   6.667   3.304   5.337
  154DOPC  C21618496   6.461   3.303   5.265
  154DOPC  H16R18497   6.436   3.405   5.300
  154DOPC  H16S18498   6.370   3.240   5.278
  154DOPC  C21718499   6.498   3.310   5.117
  154DOPC  H17R18500   6.512   3.207   5.078
  154DOPC  H17S18501   6.594   3.364   5.105
  154DOPC  C21818502   6.391   3.381   5.033
  154DOPC  H18R18503   6.293   3.330   5.043
  154DOPC  H18S18504   6.419   3.382   4.925
  154DOPC  H18T18505   6.379   3.486   5.067
  154DOPC   C3318506   6.343   3.579   6.225
  154DOPC   H3X18507   6.331   3.472   6.197
  154DOPC   H3Y18508   6.446   3.609   6.194
  154DOPC   C3418509   6.240   3.662   6.148
  154DOPC   H4X18510   6.247   3.767   6.182
  154DOPC   H4Y18511   6.138   3.626   6.173
  154DOPC   C3518512   6.258   3.659   5.996
  154DOPC   H5X18513   6.240   3.556   5.959
  154DOPC   H5Y18514   6.362   3.687   5.970
  154DOPC   C3618515   6.162   3.757   5.926
  154DOPC   H6X18516   6.058   3.737   5.961
  154DOPC   H6Y18517   6.187   3.861   5.956
  154DOPC   C3718518   6.164   3.745   5.773
  154DOPC   H7X18519   6.268   3.746   5.735
  154DOPC   H7Y18520   6.121   3.646   5.747
  154DOPC   C3818521   6.079   3.854   5.704
  154DOPC   H8X18522   5.993   3.878   5.769
  154DOPC   H8Y18523   6.036   3.809   5.611
  154DOPC   C3918524   6.159   3.978   5.672
  154DOPC   H9X18525   6.201   4.030   5.759
  154DOPC  C31018526   6.182   4.028   5.549
  154DOPC  H10X18527   6.243   4.119   5.539
  154DOPC  C31118528   6.132   3.970   5.419
  154DOPC  H11X18529   6.137   4.046   5.339
  154DOPC  H11Y18530   6.025   3.942   5.428
  154DOPC  C31218531   6.209   3.844   5.372
  154DOPC  H12X18532   6.158   3.805   5.282
  154DOPC  H12Y18533   6.205   3.765   5.450
  154DOPC  C31318534   6.356   3.872   5.336
  154DOPC  H13X18535   6.361   3.958   5.265
  154DOPC  H13Y18536   6.412   3.900   5.428
  154DOPC  C31418537   6.423   3.751   5.271
  154DOPC  H14X18538   6.418   3.664   5.340
  154DOPC  H14Y18539   6.367   3.724   5.179
  154DOPC  C31518540   6.570   3.777   5.233
  154DOPC  H15X18541   6.629   3.798   5.325
  154DOPC  H15Y18542   6.575   3.866   5.168
  154DOPC  C31618543   6.633   3.658   5.159
  154DOPC  H16X18544   6.634   3.569   5.226
  154DOPC  H16Y18545   6.569   3.633   5.072
  154DOPC  C31718546   6.775   3.686   5.110
  154DOPC  H17X18547   6.774   3.778   5.048
  154DOPC  H17Y18548   6.841   3.706   5.198
  154DOPC  C31818549   6.834   3.570   5.028
  154DOPC  H18X18550   6.769   3.548   4.941
  154DOPC  H18Y18551   6.935   3.597   4.990
  154DOPC  H18Z18552   6.842   3.479   5.090
  155DOPC     N18553   1.783   1.767   6.876
  155DOPC   C1218554   1.890   1.717   6.973
  155DOPC  H12A18555   1.938   1.802   7.019
  155DOPC  H12B18556   1.965   1.664   6.918
  155DOPC   C1318557   1.665   1.818   6.953
  155DOPC  H13A18558   1.620   1.739   7.011
  155DOPC  H13B18559   1.696   1.893   7.024
  155DOPC  H13C18560   1.590   1.862   6.888
  155DOPC   C1418561   1.742   1.653   6.787
  155DOPC  H14A18562   1.706   1.572   6.848
  155DOPC  H14B18563   1.666   1.682   6.716
  155DOPC  H14C18564   1.828   1.614   6.735
  155DOPC   C1518565   1.838   1.879   6.794
  155DOPC  H15A18566   1.922   1.845   6.735
  155DOPC  H15B18567   1.873   1.958   6.858
  155DOPC  H15C18568   1.763   1.920   6.729
  155DOPC   C1118569   1.845   1.622   7.088
  155DOPC  H11A18570   1.932   1.602   7.153
  155DOPC  H11B18571   1.771   1.675   7.152
  155DOPC     P18572   1.884   1.383   6.994
  155DOPC   O1318573   1.804   1.278   6.928
  155DOPC   O1418574   1.963   1.343   7.112
  155DOPC   O1218575   1.786   1.500   7.039
  155DOPC   O1118576   1.977   1.459   6.890
  155DOPC    C118577   2.051   1.385   6.793
  155DOPC    HA18578   1.985   1.350   6.711
  155DOPC    HB18579   2.101   1.296   6.838
  155DOPC    C218580   2.164   1.472   6.729
  155DOPC    HS18581   2.229   1.506   6.812
  155DOPC   O2118582   2.104   1.586   6.662
  155DOPC   C2118583   2.189   1.684   6.630
  155DOPC   O2218584   2.306   1.689   6.660
  155DOPC   C2218585   2.108   1.801   6.570
  155DOPC   H2R18586   2.098   1.874   6.654
  155DOPC   H2S18587   2.007   1.765   6.541
  155DOPC    C318588   2.252   1.385   6.634
  155DOPC    HX18589   2.295   1.304   6.696
  155DOPC    HY18590   2.340   1.443   6.597
  155DOPC   O3118591   2.175   1.324   6.528
  155DOPC   C3118592   2.169   1.395   6.416
  155DOPC   O3218593   2.224   1.503   6.398
  155DOPC   C3218594   2.085   1.324   6.310
  155DOPC   H2X18595   2.136   1.341   6.213
  155DOPC   H2Y18596   2.085   1.215   6.331
  155DOPC   C2318597   2.174   1.875   6.451
  155DOPC   H3R18598   2.285   1.877   6.460
  155DOPC   H3S18599   2.140   1.981   6.456
  155DOPC   C2418600   2.132   1.822   6.313
  155DOPC   H4R18601   2.024   1.794   6.318
  155DOPC   H4S18602   2.190   1.730   6.289
  155DOPC   C2518603   2.146   1.925   6.200
  155DOPC   H5R18604   2.253   1.954   6.187
  155DOPC   H5S18605   2.090   2.016   6.229
  155DOPC   C2618606   2.089   1.876   6.065
  155DOPC   H6R18607   2.069   1.965   6.001
  155DOPC   H6S18608   1.992   1.826   6.083
  155DOPC   C2718609   2.183   1.781   5.987
  155DOPC   H7R18610   2.221   1.706   6.059
  155DOPC   H7S18611   2.270   1.839   5.950
  155DOPC   C2818612   2.117   1.706   5.869
  155DOPC   H8R18613   2.036   1.641   5.910
  155DOPC   H8S18614   2.193   1.637   5.827
  155DOPC   C2918615   2.061   1.795   5.761
  155DOPC   H9R18616   2.033   1.896   5.794
  155DOPC  C21018617   2.042   1.763   5.631
  155DOPC  H10R18618   2.000   1.839   5.564
  155DOPC  C21118619   2.072   1.631   5.564
  155DOPC  H11R18620   1.978   1.587   5.524
  155DOPC  H11S18621   2.111   1.556   5.637
  155DOPC  C21218622   2.175   1.641   5.450
  155DOPC  H12R18623   2.201   1.538   5.416
  155DOPC  H12S18624   2.268   1.686   5.490
  155DOPC  C21318625   2.131   1.723   5.326
  155DOPC  H13R18626   2.218   1.737   5.259
  155DOPC  H13S18627   2.100   1.824   5.361
  155DOPC  C21418628   2.016   1.662   5.244
  155DOPC  H14R18629   1.956   1.746   5.203
  155DOPC  H14S18630   1.948   1.603   5.309
  155DOPC  C21518631   2.060   1.576   5.124
  155DOPC  H15R18632   2.123   1.637   5.056
  155DOPC  H15S18633   1.968   1.548   5.067
  155DOPC  C21618634   2.135   1.448   5.161
  155DOPC  H16R18635   2.082   1.400   5.247
  155DOPC  H16S18636   2.237   1.473   5.196
  155DOPC  C21718637   2.143   1.345   5.047
  155DOPC  H17R18638   2.039   1.319   5.016
  155DOPC  H17S18639   2.190   1.252   5.086
  155DOPC  C21818640   2.221   1.392   4.924
  155DOPC  H18R18641   2.171   1.480   4.878
  155DOPC  H18S18642   2.226   1.311   4.848
  155DOPC  H18T18643   2.324   1.420   4.952
  155DOPC   C3318644   1.940   1.377   6.301
  155DOPC   H3X18645   1.879   1.335   6.384
  155DOPC   H3Y18646   1.897   1.341   6.206
  155DOPC   C3418647   1.932   1.530   6.306
  155DOPC   H4X18648   2.013   1.573   6.243
  155DOPC   H4Y18649   1.951   1.563   6.411
  155DOPC   C3518650   1.798   1.590   6.260
  155DOPC   H5X18651   1.792   1.692   6.302
  155DOPC   H5Y18652   1.712   1.532   6.300
  155DOPC   C3618653   1.788   1.602   6.107
  155DOPC   H6X18654   1.890   1.626   6.069
  155DOPC   H6Y18655   1.758   1.506   6.062
  155DOPC   C3718656   1.695   1.715   6.062
  155DOPC   H7X18657   1.589   1.684   6.075
  155DOPC   H7Y18658   1.713   1.802   6.129
  155DOPC   C3818659   1.722   1.765   5.918
  155DOPC   H8X18660   1.828   1.745   5.894
  155DOPC   H8Y18661   1.711   1.876   5.918
  155DOPC   C3918662   1.631   1.709   5.812
  155DOPC   H9X18663   1.540   1.768   5.793
  155DOPC  C31018664   1.651   1.597   5.740
  155DOPC  H10X18665   1.577   1.570   5.663
  155DOPC  C31118666   1.767   1.502   5.752
  155DOPC  H11X18667   1.757   1.442   5.845
  155DOPC  H11Y18668   1.864   1.557   5.759
  155DOPC  C31218669   1.773   1.406   5.633
  155DOPC  H12X18670   1.793   1.463   5.539
  155DOPC  H12Y18671   1.675   1.355   5.620
  155DOPC  C31318672   1.879   1.296   5.650
  155DOPC  H13X18673   1.981   1.340   5.651
  155DOPC  H13Y18674   1.863   1.246   5.748
  155DOPC  C31418675   1.871   1.189   5.539
  155DOPC  H14X18676   1.929   1.099   5.568
  155DOPC  H14Y18677   1.765   1.157   5.531
  155DOPC  C31518678   1.921   1.239   5.403
  155DOPC  H15X18679   2.028   1.210   5.392
  155DOPC  H15Y18680   1.917   1.350   5.399
  155DOPC  C31618681   1.842   1.183   5.283
  155DOPC  H16X18682   1.898   1.204   5.190
  155DOPC  H16Y18683   1.834   1.073   5.293
  155DOPC  C31718684   1.700   1.243   5.267
  155DOPC  H17X18685   1.649   1.186   5.186
  155DOPC  H17Y18686   1.642   1.227   5.360
  155DOPC  C31818687   1.698   1.391   5.229
  155DOPC  H18X18688   1.593   1.425   5.213
  155DOPC  H18Y18689   1.742   1.454   5.310
  155DOPC  H18Z18690   1.756   1.409   5.136
  156DOPC     N18691   6.119   5.611   6.984
  156DOPC   C1218692   6.194   5.707   6.892
  156DOPC  H12A18693   6.157   5.693   6.792
  156DOPC  H12B18694   6.298   5.679   6.891
  156DOPC   C1318695   6.153   5.469   6.953
  156DOPC  H13A18696   6.104   5.401   7.021
  156DOPC  H13B18697   6.116   5.441   6.855
  156DOPC  H13C18698   6.259   5.449   6.955
  156DOPC   C1418699   5.971   5.627   6.964
  156DOPC  H14A18700   5.945   5.732   6.967
  156DOPC  H14B18701   5.939   5.586   6.869
  156DOPC  H14C18702   5.915   5.574   7.040
  156DOPC   C1518703   6.150   5.640   7.128
  156DOPC  H15A18704   6.092   5.576   7.193
  156DOPC  H15B18705   6.125   5.743   7.151
  156DOPC  H15C18706   6.255   5.625   7.150
  156DOPC   C1118707   6.184   5.858   6.926
  156DOPC  H11A18708   6.231   5.876   7.026
  156DOPC  H11B18709   6.244   5.914   6.851
  156DOPC     P18710   6.013   6.052   6.956
  156DOPC   O1318711   6.103   6.100   7.062
  156DOPC   O1418712   5.868   6.061   6.984
  156DOPC   O1218713   6.048   5.901   6.925
  156DOPC   O1118714   6.045   6.127   6.820
  156DOPC    C118715   5.970   6.099   6.701
  156DOPC    HA18716   5.981   6.185   6.631
  156DOPC    HB18717   5.861   6.090   6.721
  156DOPC    C218718   6.020   5.971   6.627
  156DOPC    HS18719   6.096   5.925   6.693
  156DOPC   O2118720   6.079   6.008   6.501
  156DOPC   C2118721   6.164   5.917   6.453
  156DOPC   O2218722   6.203   5.819   6.514
  156DOPC   C2218723   6.213   5.961   6.315
  156DOPC   H2R18724   6.318   5.995   6.327
  156DOPC   H2S18725   6.153   6.048   6.281
  156DOPC    C318726   5.906   5.867   6.609
  156DOPC    HX18727   5.856   5.854   6.707
  156DOPC    HY18728   5.950   5.768   6.584
  156DOPC   O3118729   5.808   5.913   6.513
  156DOPC   C3118730   5.827   5.867   6.389
  156DOPC   O3218731   5.906   5.781   6.357
  156DOPC   C3218732   5.740   5.945   6.290
  156DOPC   H2X18733   5.660   5.998   6.347
  156DOPC   H2Y18734   5.805   6.021   6.243
  156DOPC   C2318735   6.208   5.849   6.208
  156DOPC   H3R18736   6.189   5.750   6.254
  156DOPC   H3S18737   6.307   5.843   6.157
  156DOPC   C2418738   6.101   5.877   6.102
  156DOPC   H4R18739   6.123   5.972   6.049
  156DOPC   H4S18740   6.003   5.891   6.154
  156DOPC   C2518741   6.084   5.764   6.000
  156DOPC   H5R18742   5.989   5.780   5.945
  156DOPC   H5S18743   6.074   5.666   6.053
  156DOPC   C2618744   6.197   5.757   5.897
  156DOPC   H6R18745   6.294   5.733   5.947
  156DOPC   H6S18746   6.207   5.856   5.849
  156DOPC   C2718747   6.168   5.651   5.790
  156DOPC   H7R18748   6.063   5.666   5.755
  156DOPC   H7S18749   6.172   5.551   5.837
  156DOPC   C2818750   6.262   5.654   5.668
  156DOPC   H8R18751   6.237   5.567   5.603
  156DOPC   H8S18752   6.366   5.636   5.704
  156DOPC   C2918753   6.256   5.781   5.587
  156DOPC   H9R18754   6.344   5.846   5.598
  156DOPC  C21018755   6.155   5.821   5.507
  156DOPC  H10R18756   6.165   5.916   5.453
  156DOPC  C21118757   6.026   5.750   5.478
  156DOPC  H11R18758   5.942   5.824   5.478
  156DOPC  H11S18759   6.001   5.676   5.557
  156DOPC  C21218760   6.026   5.674   5.344
  156DOPC  H12R18761   5.924   5.632   5.330
  156DOPC  H12S18762   6.096   5.589   5.350
  156DOPC  C21318763   6.060   5.759   5.219
  156DOPC  H13R18764   6.039   5.696   5.130
  156DOPC  H13S18765   6.169   5.782   5.218
  156DOPC  C21418766   5.981   5.890   5.208
  156DOPC  H14R18767   6.035   5.969   5.265
  156DOPC  H14S18768   5.883   5.876   5.258
  156DOPC  C21518769   5.955   5.934   5.063
  156DOPC  H15R18770   5.893   5.856   5.015
  156DOPC  H15S18771   6.051   5.940   5.007
  156DOPC  C21618772   5.882   6.069   5.054
  156DOPC  H16R18773   5.954   6.149   5.028
  156DOPC  H16S18774   5.842   6.094   5.155
  156DOPC  C21718775   5.765   6.070   4.955
  156DOPC  H17R18776   5.706   6.163   4.969
  156DOPC  H17S18777   5.697   5.985   4.978
  156DOPC  C21818778   5.807   6.062   4.808
  156DOPC  H18R18779   5.867   5.970   4.789
  156DOPC  H18S18780   5.869   6.150   4.781
  156DOPC  H18T18781   5.718   6.060   4.741
  156DOPC   C3318782   5.679   5.854   6.181
  156DOPC   H3X18783   5.619   5.773   6.230
  156DOPC   H3Y18784   5.761   5.804   6.125
  156DOPC   C3418785   5.587   5.928   6.082
  156DOPC   H4X18786   5.498   5.964   6.137
  156DOPC   H4Y18787   5.553   5.855   6.006
  156DOPC   C3518788   5.651   6.048   6.011
  156DOPC   H5X18789   5.680   6.124   6.086
  156DOPC   H5Y18790   5.575   6.095   5.945
  156DOPC   C3618791   5.773   6.012   5.925
  156DOPC   H6X18792   5.848   5.959   5.988
  156DOPC   H6Y18793   5.743   5.942   5.844
  156DOPC   C3718794   5.841   6.136   5.864
  156DOPC   H7X18795   5.768   6.189   5.800
  156DOPC   H7Y18796   5.869   6.204   5.947
  156DOPC   C3818797   5.966   6.100   5.782
  156DOPC   H8X18798   5.935   6.038   5.696
  156DOPC   H8Y18799   6.033   6.037   5.844
  156DOPC   C3918800   6.039   6.225   5.739
  156DOPC   H9X18801   6.088   6.280   5.821
  156DOPC  C31018802   6.048   6.275   5.614
  156DOPC  H10X18803   6.104   6.368   5.598
  156DOPC  C31118804   5.987   6.215   5.490
  156DOPC  H11X18805   5.884   6.255   5.476
  156DOPC  H11Y18806   5.978   6.104   5.497
  156DOPC  C31218807   6.069   6.248   5.364
  156DOPC  H12X18808   6.070   6.358   5.347
  156DOPC  H12Y18809   6.016   6.202   5.278
  156DOPC  C31318810   6.213   6.194   5.369
  156DOPC  H13X18811   6.282   6.271   5.410
  156DOPC  H13Y18812   6.214   6.110   5.442
  156DOPC  C31418813   6.265   6.141   5.234
  156DOPC  H14X18814   6.180   6.101   5.175
  156DOPC  H14Y18815   6.310   6.224   5.175
  156DOPC  C31518816   6.367   6.028   5.251
  156DOPC  H15X18817   6.325   5.949   5.316
  156DOPC  H15Y18818   6.458   6.067   5.301
  156DOPC  C31618819   6.405   5.964   5.117
  156DOPC  H16X18820   6.314   5.923   5.068
  156DOPC  H16Y18821   6.446   6.043   5.050
  156DOPC  C31718822   6.510   5.852   5.131
  156DOPC  H17X18823   6.548   5.828   5.030
  156DOPC  H17Y18824   6.596   5.891   5.191
  156DOPC  C31818825   6.456   5.724   5.195
  156DOPC  H18X18826   6.419   5.743   5.299
  156DOPC  H18Y18827   6.372   5.683   5.136
  156DOPC  H18Z18828   6.536   5.646   5.201
  157DOPC     N18829   6.001   1.731   7.067
  157DOPC   C1218830   6.097   1.670   6.965
  157DOPC  H12A18831   6.181   1.737   6.952
  157DOPC  H12B18832   6.045   1.665   6.870
  157DOPC   C1318833   6.057   1.712   7.205
  157DOPC  H13A18834   6.155   1.757   7.215
  157DOPC  H13B18835   5.991   1.752   7.279
  157DOPC  H13C18836   6.069   1.606   7.224
  157DOPC   C1418837   5.869   1.659   7.060
  157DOPC  H14A18838   5.887   1.553   7.074
  157DOPC  H14B18839   5.801   1.692   7.137
  157DOPC  H14C18840   5.822   1.671   6.964
  157DOPC   C1518841   5.979   1.877   7.041
  157DOPC  H15A18842   5.929   1.892   6.946
  157DOPC  H15B18843   6.072   1.932   7.040
  157DOPC  H15C18844   5.917   1.919   7.118
  157DOPC   C1118845   6.153   1.528   6.994
  157DOPC  H11A18846   6.213   1.501   6.905
  157DOPC  H11B18847   6.222   1.532   7.081
  157DOPC     P18848   6.057   1.285   6.967
  157DOPC   O1318849   5.944   1.209   7.025
  157DOPC   O1418850   6.193   1.232   6.993
  157DOPC   O1218851   6.049   1.434   7.020
  157DOPC   O1118852   6.037   1.304   6.811
  157DOPC    C118853   5.933   1.393   6.767
  157DOPC    HA18854   5.969   1.498   6.774
  157DOPC    HB18855   5.842   1.383   6.829
  157DOPC    C218856   5.891   1.367   6.619
  157DOPC    HS18857   5.874   1.258   6.610
  157DOPC   O2118858   5.997   1.408   6.531
  157DOPC   C2118859   5.976   1.384   6.402
  157DOPC   O2218860   5.883   1.321   6.354
  157DOPC   C2218861   6.088   1.452   6.323
  157DOPC   H2R18862   6.183   1.407   6.359
  157DOPC   H2S18863   6.089   1.560   6.350
  157DOPC    C318864   5.756   1.441   6.587
  157DOPC    HX18865   5.686   1.427   6.672
  157DOPC    HY18866   5.709   1.389   6.500
  157DOPC   O3118867   5.776   1.580   6.552
  157DOPC   C3118868   5.780   1.667   6.651
  157DOPC   O3218869   5.755   1.643   6.768
  157DOPC   C3218870   5.830   1.801   6.598
  157DOPC   H2X18871   5.810   1.808   6.489
  157DOPC   H2Y18872   5.772   1.880   6.650
  157DOPC   C2318873   6.077   1.435   6.170
  157DOPC   H3R18874   6.049   1.331   6.143
  157DOPC   H3S18875   6.179   1.453   6.128
  157DOPC   C2418876   5.983   1.535   6.102
  157DOPC   H4R18877   6.004   1.637   6.140
  157DOPC   H4S18878   5.878   1.510   6.126
  157DOPC   C2518879   6.003   1.536   5.949
  157DOPC   H5R18880   5.974   1.437   5.907
  157DOPC   H5S18881   6.111   1.550   5.929
  157DOPC   C2618882   5.927   1.649   5.877
  157DOPC   H6R18883   5.968   1.661   5.775
  157DOPC   H6S18884   5.946   1.744   5.931
  157DOPC   C2718885   5.775   1.627   5.865
  157DOPC   H7R18886   5.731   1.722   5.830
  157DOPC   H7S18887   5.733   1.604   5.965
  157DOPC   C2818888   5.738   1.516   5.764
  157DOPC   H8R18889   5.773   1.418   5.804
  157DOPC   H8S18890   5.793   1.535   5.670
  157DOPC   C2918891   5.589   1.511   5.741
  157DOPC   H9R18892   5.527   1.534   5.829
  157DOPC  C21018893   5.528   1.479   5.625
  157DOPC  H10R18894   5.418   1.478   5.623
  157DOPC  C21118895   5.595   1.441   5.496
  157DOPC  H11R18896   5.628   1.335   5.504
  157DOPC  H11S18897   5.687   1.501   5.477
  157DOPC  C21218898   5.503   1.452   5.372
  157DOPC  H12R18899   5.527   1.545   5.316
  157DOPC  H12S18900   5.397   1.460   5.403
  157DOPC  C21318901   5.510   1.331   5.276
  157DOPC  H13R18902   5.440   1.348   5.191
  157DOPC  H13S18903   5.473   1.242   5.331
  157DOPC  C21418904   5.648   1.299   5.217
  157DOPC  H14R18905   5.724   1.292   5.298
  157DOPC  H14S18906   5.679   1.380   5.148
  157DOPC  C21518907   5.645   1.165   5.141
  157DOPC  H15R18908   5.568   1.168   5.061
  157DOPC  H15S18909   5.615   1.086   5.213
  157DOPC  C21618910   5.780   1.126   5.080
  157DOPC  H16R18911   5.859   1.147   5.156
  157DOPC  H16S18912   5.802   1.188   4.991
  157DOPC  C21718913   5.786   0.977   5.044
  157DOPC  H17R18914   5.713   0.957   4.962
  157DOPC  H17S18915   5.752   0.918   5.132
  157DOPC  C21818916   5.925   0.928   5.002
  157DOPC  H18R18917   5.924   0.818   4.985
  157DOPC  H18S18918   5.999   0.949   5.082
  157DOPC  H18T18919   5.959   0.977   4.909
  157DOPC   C3318920   5.981   1.820   6.626
  157DOPC   H3X18921   6.039   1.748   6.564
  157DOPC   H3Y18922   6.002   1.797   6.733
  157DOPC   C3418923   6.031   1.963   6.599
  157DOPC   H4X18924   6.139   1.968   6.623
  157DOPC   H4Y18925   5.979   2.033   6.668
  157DOPC   C3518926   6.010   2.013   6.455
  157DOPC   H5X18927   6.058   2.113   6.449
  157DOPC   H5Y18928   5.902   2.026   6.434
  157DOPC   C3618929   6.073   1.922   6.348
  157DOPC   H6X18930   6.167   1.879   6.388
  157DOPC   H6Y18931   6.004   1.838   6.325
  157DOPC   C3718932   6.109   1.998   6.218
  157DOPC   H7X18933   6.192   2.067   6.242
  157DOPC   H7Y18934   6.147   1.926   6.143
  157DOPC   C3818935   5.995   2.082   6.157
  157DOPC   H8X18936   6.042   2.147   6.080
  157DOPC   H8Y18937   5.955   2.151   6.234
  157DOPC   C3918938   5.883   1.999   6.098
  157DOPC   H9X18939   5.846   1.919   6.163
  157DOPC  C31018940   5.827   2.015   5.976
  157DOPC  H10X18941   5.747   1.946   5.946
  157DOPC  C31118942   5.863   2.119   5.873
  157DOPC  H11X18943   5.933   2.195   5.913
  157DOPC  H11Y18944   5.773   2.175   5.842
  157DOPC  C31218945   5.928   2.057   5.748
  157DOPC  H12X18946   6.012   1.989   5.776
  157DOPC  H12Y18947   5.973   2.140   5.689
  157DOPC  C31318948   5.828   1.984   5.657
  157DOPC  H13X18949   5.803   1.885   5.701
  157DOPC  H13Y18950   5.735   2.044   5.653
  157DOPC  C31418951   5.878   1.965   5.513
  157DOPC  H14X18952   5.798   1.916   5.453
  157DOPC  H14Y18953   5.896   2.065   5.468
  157DOPC  C31518954   6.006   1.881   5.502
  157DOPC  H15X18955   5.986   1.779   5.542
  157DOPC  H15Y18956   6.087   1.927   5.562
  157DOPC  C31618957   6.053   1.871   5.356
  157DOPC  H16X18958   5.970   1.830   5.294
  157DOPC  H16Y18959   6.076   1.972   5.318
  157DOPC  C31718960   6.176   1.781   5.339
  157DOPC  H17X18961   6.259   1.823   5.399
  157DOPC  H17Y18962   6.153   1.680   5.380
  157DOPC  C31818963   6.219   1.768   5.193
  157DOPC  H18X18964   6.136   1.727   5.132
  157DOPC  H18Y18965   6.247   1.868   5.152
  157DOPC  H18Z18966   6.306   1.700   5.184
  158DOPC     N18967   4.240   7.142   6.916
  158DOPC   C1218968   4.114   7.127   6.831
  158DOPC  H12A18969   4.052   7.049   6.872
  158DOPC  H12B18970   4.143   7.097   6.732
  158DOPC   C1318971   4.321   7.016   6.914
  158DOPC  H13A18972   4.265   6.932   6.953
  158DOPC  H13B18973   4.355   6.993   6.814
  158DOPC  H13C18974   4.410   7.026   6.975
  158DOPC   C1418975   4.201   7.173   7.058
  158DOPC  H14A18976   4.287   7.197   7.119
  158DOPC  H14B18977   4.133   7.258   7.057
  158DOPC  H14C18978   4.147   7.091   7.103
  158DOPC   C1518979   4.325   7.255   6.866
  158DOPC  H15A18980   4.271   7.348   6.870
  158DOPC  H15B18981   4.357   7.240   6.763
  158DOPC  H15C18982   4.416   7.268   6.922
  158DOPC   C1118983   4.023   7.251   6.819
  158DOPC  H11A18984   4.083   7.339   6.786
  158DOPC  H11B18985   3.950   7.233   6.737
  158DOPC     P18986   3.810   7.240   6.972
  158DOPC   O1318987   3.774   7.286   7.109
  158DOPC   O1418988   3.792   7.096   6.945
  158DOPC   O1218989   3.960   7.281   6.943
  158DOPC   O1118990   3.724   7.321   6.869
  158DOPC    C118991   3.765   7.445   6.811
  158DOPC    HA18992   3.875   7.461   6.813
  158DOPC    HB18993   3.719   7.530   6.866
  158DOPC    C218994   3.721   7.452   6.662
  158DOPC    HS18995   3.610   7.466   6.661
  158DOPC   O2118996   3.763   7.334   6.592
  158DOPC   C2118997   3.667   7.257   6.546
  158DOPC   O2218998   3.551   7.258   6.583
  158DOPC   C2218999   3.724   7.173   6.430
  158DOPC   H2R19000   3.772   7.245   6.360
  158DOPC   H2S19001   3.639   7.125   6.377
  158DOPC    C319002   3.782   7.575   6.591
  158DOPC    HX19003   3.741   7.666   6.640
  158DOPC    HY19004   3.745   7.577   6.486
  158DOPC   O3119005   3.926   7.578   6.599
  158DOPC   C3119006   3.990   7.509   6.505
  158DOPC   O3219007   3.939   7.453   6.410
  158DOPC   C3219008   4.140   7.512   6.533
  158DOPC   H2X19009   4.183   7.598   6.477
  158DOPC   H2Y19010   4.157   7.529   6.642
  158DOPC   C2319011   3.829   7.068   6.473
  158DOPC   H3R19012   3.779   6.980   6.519
  158DOPC   H3S19013   3.897   7.112   6.549
  158DOPC   C2419014   3.919   7.019   6.357
  158DOPC   H4R19015   3.992   6.947   6.399
  158DOPC   H4S19016   3.976   7.104   6.316
  158DOPC   C2519017   3.843   6.949   6.243
  158DOPC   H5R19018   3.739   6.925   6.276
  158DOPC   H5S19019   3.893   6.852   6.221
  158DOPC   C2619020   3.838   7.031   6.113
  158DOPC   H6R19021   3.942   7.051   6.079
  158DOPC   H6S19022   3.789   7.128   6.133
  158DOPC   C2719023   3.761   6.958   6.001
  158DOPC   H7R19024   3.658   6.940   6.038
  158DOPC   H7S19025   3.807   6.859   5.981
  158DOPC   C2819026   3.751   7.039   5.870
  158DOPC   H8R19027   3.714   7.141   5.894
  158DOPC   H8S19028   3.674   6.990   5.806
  158DOPC   C2919029   3.882   7.048   5.795
  158DOPC   H9R19030   3.971   7.017   5.851
  158DOPC  C21019031   3.896   7.090   5.667
  158DOPC  H10R19032   3.997   7.093   5.623
  158DOPC  C21119033   3.785   7.135   5.576
  158DOPC  H11R19034   3.688   7.087   5.603
  158DOPC  H11S19035   3.807   7.105   5.471
  158DOPC  C21219036   3.766   7.288   5.581
  158DOPC  H12R19037   3.858   7.339   5.547
  158DOPC  H12S19038   3.748   7.318   5.686
  158DOPC  C21319039   3.645   7.337   5.499
  158DOPC  H13R19040   3.627   7.444   5.525
  158DOPC  H13S19041   3.555   7.280   5.529
  158DOPC  C21419042   3.662   7.329   5.346
  158DOPC  H14R19043   3.571   7.372   5.300
  158DOPC  H14S19044   3.668   7.223   5.313
  158DOPC  C21519045   3.784   7.406   5.293
  158DOPC  H15R19046   3.874   7.340   5.297
  158DOPC  H15S19047   3.803   7.493   5.359
  158DOPC  C21619048   3.763   7.459   5.150
  158DOPC  H16R19049   3.673   7.524   5.150
  158DOPC  H16S19050   3.744   7.375   5.080
  158DOPC  C21719051   3.882   7.543   5.100
  158DOPC  H17R19052   3.969   7.476   5.085
  158DOPC  H17S19053   3.909   7.617   5.178
  158DOPC  C21819054   3.851   7.617   4.969
  158DOPC  H18R19055   3.940   7.675   4.935
  158DOPC  H18S19056   3.767   7.688   4.985
  158DOPC  H18T19057   3.822   7.546   4.889
  158DOPC   C3319058   4.209   7.381   6.487
  158DOPC   H3X19059   4.186   7.365   6.380
  158DOPC   H3Y19060   4.168   7.295   6.544
  158DOPC   C3419061   4.362   7.386   6.505
  158DOPC   H4X19062   4.387   7.408   6.611
  158DOPC   H4Y19063   4.402   7.470   6.444
  158DOPC   C3519064   4.432   7.256   6.463
  158DOPC   H5X19065   4.402   7.174   6.532
  158DOPC   H5Y19066   4.542   7.270   6.475
  158DOPC   C3619067   4.404   7.210   6.319
  158DOPC   H6X19068   4.462   7.117   6.299
  158DOPC   H6Y19069   4.296   7.184   6.308
  158DOPC   C3719070   4.442   7.315   6.213
  158DOPC   H7X19071   4.384   7.408   6.227
  158DOPC   H7Y19072   4.549   7.340   6.228
  158DOPC   C3819073   4.424   7.265   6.068
  158DOPC   H8X19074   4.472   7.165   6.060
  158DOPC   H8Y19075   4.480   7.333   6.001
  158DOPC   C3919076   4.280   7.259   6.022
  158DOPC   H9X19077   4.209   7.313   6.086
  158DOPC  C31019078   4.236   7.196   5.912
  158DOPC  H10X19079   4.129   7.202   5.887
  158DOPC  C31119080   4.321   7.119   5.814
  158DOPC  H11X19081   4.263   7.035   5.770
  158DOPC  H11Y19082   4.409   7.073   5.864
  158DOPC  C31219083   4.375   7.206   5.698
  158DOPC  H12X19084   4.439   7.142   5.633
  158DOPC  H12Y19085   4.440   7.286   5.739
  158DOPC  C31319086   4.265   7.270   5.611
  158DOPC  H13X19087   4.198   7.192   5.571
  158DOPC  H13Y19088   4.204   7.336   5.676
  158DOPC  C31419089   4.321   7.357   5.496
  158DOPC  H14X19090   4.239   7.420   5.456
  158DOPC  H14Y19091   4.397   7.425   5.538
  158DOPC  C31519092   4.384   7.278   5.380
  158DOPC  H15X19093   4.469   7.217   5.419
  158DOPC  H15Y19094   4.427   7.351   5.308
  158DOPC  C31619095   4.288   7.185   5.303
  158DOPC  H16X19096   4.346   7.133   5.224
  158DOPC  H16Y19097   4.248   7.107   5.371
  158DOPC  C31719098   4.171   7.259   5.236
  158DOPC  H17X19099   4.109   7.307   5.315
  158DOPC  H17Y19100   4.212   7.340   5.172
  158DOPC  C31819101   4.083   7.168   5.151
  158DOPC  H18X19102   4.142   7.121   5.069
  158DOPC  H18Y19103   4.039   7.087   5.213
  158DOPC  H18Z19104   4.000   7.225   5.105
  159DOPC     N19105   6.641   2.096   7.190
  159DOPC   C1219106   6.708   2.058   7.059
  159DOPC  H12A19107   6.659   1.970   7.019
  159DOPC  H12B19108   6.811   2.030   7.078
  159DOPC   C1319109   6.677   1.997   7.296
  159DOPC  H13A19110   6.629   2.021   7.390
  159DOPC  H13B19111   6.648   1.898   7.267
  159DOPC  H13C19112   6.784   1.997   7.312
  159DOPC   C1419113   6.492   2.096   7.171
  159DOPC  H14A19114   6.458   1.999   7.137
  159DOPC  H14B19115   6.438   2.125   7.259
  159DOPC  H14C19116   6.467   2.165   7.091
  159DOPC   C1519117   6.683   2.234   7.232
  159DOPC  H15A19118   6.790   2.238   7.249
  159DOPC  H15B19119   6.632   2.265   7.321
  159DOPC  H15C19120   6.658   2.303   7.152
  159DOPC   C1119121   6.707   2.161   6.944
  159DOPC  H11A19122   6.762   2.253   6.974
  159DOPC  H11B19123   6.763   2.118   6.858
  159DOPC     P19124   6.488   2.095   6.818
  159DOPC   O1319125   6.348   2.141   6.825
  159DOPC   O1419126   6.516   1.957   6.865
  159DOPC   O1219127   6.573   2.196   6.907
  159DOPC   O1119128   6.549   2.118   6.674
  159DOPC    C119129   6.570   2.250   6.622
  159DOPC    HA19130   6.574   2.327   6.702
  159DOPC    HB19131   6.484   2.277   6.557
  159DOPC    C219132   6.700   2.266   6.537
  159DOPC    HS19133   6.750   2.356   6.578
  159DOPC   O2119134   6.661   2.288   6.400
  159DOPC   C2119135   6.753   2.349   6.327
  159DOPC   O2219136   6.859   2.394   6.369
  159DOPC   C2219137   6.703   2.361   6.183
  159DOPC   H2R19138   6.619   2.434   6.183
  159DOPC   H2S19139   6.664   2.262   6.152
  159DOPC    C319140   6.803   2.148   6.550
  159DOPC    HX19141   6.830   2.140   6.658
  159DOPC    HY19142   6.897   2.174   6.497
  159DOPC   O3119143   6.751   2.020   6.508
  159DOPC   C3119144   6.767   1.989   6.381
  159DOPC   O3219145   6.824   2.057   6.297
  159DOPC   C3219146   6.706   1.850   6.359
  159DOPC   H2X19147   6.757   1.780   6.427
  159DOPC   H2Y19148   6.600   1.857   6.388
  159DOPC   C2319149   6.812   2.408   6.083
  159DOPC   H3R19150   6.889   2.328   6.073
  159DOPC   H3S19151   6.863   2.498   6.123
  159DOPC   C2419152   6.756   2.443   5.944
  159DOPC   H4R19153   6.841   2.477   5.880
  159DOPC   H4S19154   6.686   2.529   5.953
  159DOPC   C2519155   6.684   2.327   5.874
  159DOPC   H5R19156   6.597   2.297   5.936
  159DOPC   H5S19157   6.752   2.240   5.867
  159DOPC   C2619158   6.630   2.363   5.734
  159DOPC   H6R19159   6.564   2.452   5.743
  159DOPC   H6S19160   6.568   2.279   5.697
  159DOPC   C2719161   6.738   2.393   5.627
  159DOPC   H7R19162   6.798   2.481   5.659
  159DOPC   H7S19163   6.684   2.421   5.534
  159DOPC   C2819164   6.829   2.273   5.598
  159DOPC   H8R19165   6.764   2.186   5.575
  159DOPC   H8S19166   6.886   2.249   5.691
  159DOPC   C2919167   6.923   2.296   5.482
  159DOPC   H9R19168   6.896   2.378   5.414
  159DOPC  C21019169   7.033   2.223   5.456
  159DOPC  H10R19170   7.094   2.247   5.368
  159DOPC  C21119171   7.081   2.107   5.539
  159DOPC  H11R19172   7.054   2.122   5.646
  159DOPC  H11S19173   7.192   2.102   5.536
  159DOPC  C21219174   7.024   1.969   5.498
  159DOPC  H12R19175   6.917   1.978   5.469
  159DOPC  H12S19176   7.029   1.904   5.587
  159DOPC  C21319177   7.103   1.899   5.387
  159DOPC  H13R19178   7.211   1.897   5.416
  159DOPC  H13S19179   7.094   1.956   5.292
  159DOPC  C21419180   7.056   1.754   5.365
  159DOPC  H14R19181   6.960   1.755   5.310
  159DOPC  H14S19182   7.036   1.709   5.464
  159DOPC  C21519183   7.158   1.665   5.293
  159DOPC  H15R19184   7.116   1.562   5.285
  159DOPC  H15S19185   7.250   1.658   5.356
  159DOPC  C21619186   7.199   1.712   5.153
  159DOPC  H16R19187   7.270   1.637   5.110
  159DOPC  H16S19188   7.254   1.808   5.160
  159DOPC  C21719189   7.082   1.728   5.055
  159DOPC  H17R19190   7.019   1.814   5.086
  159DOPC  H17S19191   7.018   1.637   5.060
  159DOPC  C21819192   7.128   1.748   4.910
  159DOPC  H18R19193   7.189   1.662   4.876
  159DOPC  H18S19194   7.189   1.840   4.901
  159DOPC  H18T19195   7.040   1.757   4.842
  159DOPC   C3319196   6.716   1.800   6.213
  159DOPC   H3X19197   6.670   1.873   6.143
  159DOPC   H3Y19198   6.658   1.706   6.205
  159DOPC   C3419199   6.860   1.769   6.168
  159DOPC   H4X19200   6.913   1.714   6.250
  159DOPC   H4Y19201   6.915   1.864   6.152
  159DOPC   C3519202   6.867   1.684   6.041
  159DOPC   H5X19203   6.825   1.584   6.063
  159DOPC   H5Y19204   6.974   1.670   6.012
  159DOPC   C3619205   6.790   1.739   5.920
  159DOPC   H6X19206   6.808   1.672   5.834
  159DOPC   H6Y19207   6.681   1.738   5.941
  159DOPC   C3719208   6.831   1.882   5.880
  159DOPC   H7X19209   6.795   1.955   5.956
  159DOPC   H7Y19210   6.942   1.886   5.879
  159DOPC   C3819211   6.781   1.920   5.740
  159DOPC   H8X19212   6.828   1.850   5.667
  159DOPC   H8Y19213   6.822   2.021   5.716
  159DOPC   C3919214   6.631   1.922   5.725
  159DOPC   H9X19215   6.580   2.003   5.779
  159DOPC  C31019216   6.558   1.835   5.652
  159DOPC  H10X19217   6.449   1.847   5.647
  159DOPC  C31119218   6.614   1.719   5.573
  159DOPC  H11X19219   6.537   1.640   5.560
  159DOPC  H11Y19220   6.698   1.671   5.627
  159DOPC  C31219221   6.665   1.760   5.433
  159DOPC  H12X19222   6.720   1.675   5.389
  159DOPC  H12Y19223   6.737   1.844   5.444
  159DOPC  C31319224   6.553   1.800   5.337
  159DOPC  H13X19225   6.483   1.715   5.328
  159DOPC  H13Y19226   6.496   1.886   5.379
  159DOPC  C31419227   6.603   1.837   5.196
  159DOPC  H14X19228   6.659   1.751   5.154
  159DOPC  H14Y19229   6.515   1.855   5.130
  159DOPC  C31519230   6.693   1.963   5.190
  159DOPC  H15X19231   6.722   1.979   5.084
  159DOPC  H15Y19232   6.786   1.946   5.248
  159DOPC  C31619233   6.624   2.091   5.241
  159DOPC  H16X19234   6.525   2.101   5.192
  159DOPC  H16Y19235   6.607   2.081   5.350
  159DOPC  C31719236   6.706   2.218   5.215
  159DOPC  H17X19237   6.662   2.301   5.273
  159DOPC  H17Y19238   6.809   2.201   5.253
  159DOPC  C31819239   6.715   2.260   5.068
  159DOPC  H18X19240   6.613   2.273   5.025
  159DOPC  H18Y19241   6.770   2.356   5.058
  159DOPC  H18Z19242   6.768   2.183   5.008
  160DOPC     N19243   1.880   6.978   7.062
  160DOPC   C1219244   1.784   6.863   7.087
  160DOPC  H12A19245   1.743   6.833   6.992
  160DOPC  H12B19246   1.704   6.898   7.150
  160DOPC   C1319247   2.002   6.932   6.988
  160DOPC  H13A19248   2.053   6.856   7.045
  160DOPC  H13B19249   1.972   6.883   6.897
  160DOPC  H13C19250   2.068   7.014   6.964
  160DOPC   C1419251   1.919   7.039   7.193
  160DOPC  H14A19252   1.975   6.967   7.252
  160DOPC  H14B19253   1.981   7.127   7.180
  160DOPC  H14C19254   1.832   7.067   7.250
  160DOPC   C1519255   1.813   7.082   6.979
  160DOPC  H15A19256   1.883   7.162   6.957
  160DOPC  H15B19257   1.727   7.125   7.028
  160DOPC  H15C19258   1.782   7.041   6.884
  160DOPC   C1119259   1.843   6.734   7.149
  160DOPC  H11A19260   1.901   6.760   7.240
  160DOPC  H11B19261   1.760   6.667   7.183
  160DOPC     P19262   1.874   6.599   6.927
  160DOPC   O1319263   1.736   6.550   6.951
  160DOPC   O1419264   1.976   6.501   6.884
  160DOPC   O1219265   1.929   6.666   7.058
  160DOPC   O1119266   1.864   6.724   6.827
  160DOPC    C119267   1.858   6.694   6.686
  160DOPC    HA19268   1.783   6.614   6.666
  160DOPC    HB19269   1.956   6.657   6.650
  160DOPC    C219270   1.811   6.815   6.598
  160DOPC    HS19271   1.785   6.774   6.498
  160DOPC   O2119272   1.913   6.916   6.587
  160DOPC   C2119273   2.002   6.888   6.492
  160DOPC   O2219274   2.018   6.780   6.440
  160DOPC   C2219275   2.071   7.019   6.453
  160DOPC   H2R19276   2.156   7.032   6.524
  160DOPC   H2S19277   2.000   7.102   6.468
  160DOPC    C319278   1.683   6.885   6.650
  160DOPC    HX19279   1.707   6.926   6.750
  160DOPC    HY19280   1.603   6.809   6.666
  160DOPC   O3119281   1.642   6.993   6.563
  160DOPC   C3119282   1.566   6.955   6.459
  160DOPC   O3219283   1.521   6.843   6.445
  160DOPC   C3219284   1.536   7.072   6.366
  160DOPC   H2X19285   1.427   7.090   6.372
  160DOPC   H2Y19286   1.589   7.163   6.403
  160DOPC   C2319287   2.124   7.023   6.308
  160DOPC   H3R19288   2.192   6.937   6.288
  160DOPC   H3S19289   2.187   7.114   6.297
  160DOPC   C2419290   2.016   7.030   6.199
  160DOPC   H4R19291   2.067   7.058   6.104
  160DOPC   H4S19292   1.942   7.109   6.221
  160DOPC   C2519293   1.944   6.896   6.173
  160DOPC   H5R19294   1.866   6.879   6.250
  160DOPC   H5S19295   2.018   6.814   6.181
  160DOPC   C2619296   1.881   6.888   6.033
  160DOPC   H6R19297   1.963   6.900   5.959
  160DOPC   H6S19298   1.810   6.971   6.019
  160DOPC   C2719299   1.809   6.754   6.010
  160DOPC   H7R19300   1.727   6.745   6.084
  160DOPC   H7S19301   1.879   6.670   6.029
  160DOPC   C2819302   1.748   6.738   5.869
  160DOPC   H8R19303   1.675   6.820   5.854
  160DOPC   H8S19304   1.690   6.643   5.867
  160DOPC   C2919305   1.853   6.742   5.760
  160DOPC   H9R19306   1.924   6.825   5.768
  160DOPC  C21019307   1.865   6.660   5.654
  160DOPC  H10R19308   1.946   6.679   5.582
  160DOPC  C21119309   1.776   6.544   5.616
  160DOPC  H11R19310   1.693   6.528   5.688
  160DOPC  H11S19311   1.836   6.450   5.615
  160DOPC  C21219312   1.716   6.565   5.476
  160DOPC  H12R19313   1.666   6.472   5.442
  160DOPC  H12S19314   1.798   6.585   5.403
  160DOPC  C21319315   1.614   6.680   5.470
  160DOPC  H13R19316   1.661   6.772   5.511
  160DOPC  H13S19317   1.526   6.656   5.533
  160DOPC  C21419318   1.567   6.710   5.326
  160DOPC  H14R19319   1.506   6.626   5.287
  160DOPC  H14S19320   1.657   6.720   5.262
  160DOPC  C21519321   1.487   6.840   5.317
  160DOPC  H15R19322   1.543   6.918   5.374
  160DOPC  H15S19323   1.389   6.827   5.366
  160DOPC  C21619324   1.469   6.889   5.173
  160DOPC  H16R19325   1.420   6.809   5.113
  160DOPC  H16S19326   1.569   6.908   5.128
  160DOPC  C21719327   1.385   7.018   5.162
  160DOPC  H17R19328   1.283   6.997   5.200
  160DOPC  H17S19329   1.376   7.044   5.055
  160DOPC  C21819330   1.444   7.139   5.235
  160DOPC  H18R19331   1.385   7.230   5.212
  160DOPC  H18S19332   1.549   7.156   5.204
  160DOPC  H18T19333   1.442   7.124   5.345
  160DOPC   C3319334   1.573   7.047   6.218
  160DOPC   H3X19335   1.520   6.958   6.179
  160DOPC   H3Y19336   1.682   7.028   6.208
  160DOPC   C3419337   1.535   7.169   6.134
  160DOPC   H4X19338   1.593   7.256   6.171
  160DOPC   H4Y19339   1.428   7.193   6.148
  160DOPC   C3519340   1.563   7.157   5.983
  160DOPC   H5X19341   1.667   7.121   5.967
  160DOPC   H5Y19342   1.556   7.259   5.939
  160DOPC   C3619343   1.462   7.067   5.908
  160DOPC   H6X19344   1.481   6.960   5.928
  160DOPC   H6Y19345   1.362   7.091   5.949
  160DOPC   C3719346   1.455   7.094   5.757
  160DOPC   H7X19347   1.353   7.065   5.723
  160DOPC   H7Y19348   1.465   7.203   5.738
  160DOPC   C3819349   1.554   7.016   5.669
  160DOPC   H8X19350   1.523   7.031   5.563
  160DOPC   H8Y19351   1.542   6.907   5.689
  160DOPC   C3919352   1.698   7.056   5.689
  160DOPC   H9X19353   1.736   7.037   5.790
  160DOPC  C31019354   1.784   7.107   5.598
  160DOPC  H10X19355   1.886   7.132   5.631
  160DOPC  C31119356   1.757   7.136   5.453
  160DOPC  H11X19357   1.747   7.245   5.437
  160DOPC  H11Y19358   1.663   7.089   5.418
  160DOPC  C31219359   1.871   7.084   5.362
  160DOPC  H12X19360   1.965   7.139   5.384
  160DOPC  H12Y19361   1.843   7.105   5.257
  160DOPC  C31319362   1.897   6.933   5.378
  160DOPC  H13X19363   1.931   6.912   5.481
  160DOPC  H13Y19364   1.802   6.879   5.362
  160DOPC  C31419365   2.003   6.879   5.280
  160DOPC  H14X19366   2.099   6.933   5.293
  160DOPC  H14Y19367   2.021   6.773   5.308
  160DOPC  C31519368   1.958   6.886   5.134
  160DOPC  H15X19369   1.962   6.992   5.099
  160DOPC  H15Y19370   1.852   6.854   5.127
  160DOPC  C31619371   2.042   6.800   5.038
  160DOPC  H16X19372   2.001   6.811   4.936
  160DOPC  H16Y19373   2.146   6.839   5.036
  160DOPC  C31719374   2.045   6.650   5.073
  160DOPC  H17X19375   2.094   6.596   4.989
  160DOPC  H17Y19376   2.108   6.634   5.162
  160DOPC  C31819377   1.907   6.589   5.099
  160DOPC  H18X19378   1.914   6.479   5.111
  160DOPC  H18Y19379   1.863   6.631   5.192
  160DOPC  H18Z19380   1.839   6.611   5.015
  161DOPC     N19381   3.950   0.311   7.159
  161DOPC   C1219382   3.885   0.352   7.027
  161DOPC  H12A19383   3.929   0.446   6.996
  161DOPC  H12B19384   3.780   0.370   7.044
  161DOPC   C1319385   4.098   0.295   7.138
  161DOPC  H13A19386   4.140   0.388   7.101
  161DOPC  H13B19387   4.151   0.267   7.228
  161DOPC  H13C19388   4.116   0.224   7.060
  161DOPC   C1419389   3.892   0.183   7.210
  161DOPC  H14A19390   3.906   0.104   7.138
  161DOPC  H14B19391   3.940   0.152   7.302
  161DOPC  H14C19392   3.786   0.192   7.230
  161DOPC   C1519393   3.930   0.422   7.259
  161DOPC  H15A19394   3.825   0.440   7.277
  161DOPC  H15B19395   3.973   0.513   7.220
  161DOPC  H15C19396   3.979   0.399   7.352
  161DOPC   C1119397   3.901   0.257   6.905
  161DOPC  H11A19398   3.867   0.155   6.932
  161DOPC  H11B19399   3.835   0.293   6.823
  161DOPC     P19400   4.108   0.377   6.797
  161DOPC   O1319401   4.240   0.389   6.862
  161DOPC   O1419402   4.017   0.494   6.814
  161DOPC   O1219403   4.036   0.250   6.859
  161DOPC   O1119404   4.124   0.339   6.644
  161DOPC    C119405   4.010   0.295   6.570
  161DOPC    HA19406   3.944   0.382   6.547
  161DOPC    HB19407   3.951   0.220   6.628
  161DOPC    C219408   4.049   0.227   6.436
  161DOPC    HS19409   4.128   0.152   6.457
  161DOPC   O2119410   4.095   0.327   6.344
  161DOPC   C2119411   4.143   0.281   6.230
  161DOPC   O2219412   4.196   0.173   6.212
  161DOPC   C2219413   4.108   0.380   6.118
  161DOPC   H2R19414   4.105   0.323   6.023
  161DOPC   H2S19415   4.190   0.455   6.113
  161DOPC    C319416   3.924   0.154   6.377
  161DOPC    HX19417   3.854   0.232   6.338
  161DOPC    HY19418   3.873   0.103   6.461
  161DOPC   O3119419   3.958   0.059   6.274
  161DOPC   C3119420   3.854  -0.007   6.225
  161DOPC   O3219421   3.739   0.004   6.265
  161DOPC   C3219422   3.898  -0.102   6.114
  161DOPC   H2X19423   3.986  -0.159   6.151
  161DOPC   H2Y19424   3.815  -0.173   6.095
  161DOPC   C2319425   3.972   0.449   6.145
  161DOPC   H3R19426   3.979   0.505   6.240
  161DOPC   H3S19427   3.893   0.372   6.159
  161DOPC   C2419428   3.927   0.549   6.038
  161DOPC   H4R19429   4.013   0.586   5.977
  161DOPC   H4S19430   3.887   0.635   6.095
  161DOPC   C2519431   3.813   0.499   5.949
  161DOPC   H5R19432   3.746   0.437   6.013
  161DOPC   H5S19433   3.850   0.433   5.867
  161DOPC   C2619434   3.727   0.614   5.893
  161DOPC   H6R19435   3.726   0.697   5.966
  161DOPC   H6S19436   3.622   0.579   5.884
  161DOPC   C2719437   3.774   0.666   5.756
  161DOPC   H7R19438   3.885   0.672   5.757
  161DOPC   H7S19439   3.736   0.769   5.741
  161DOPC   C2819440   3.727   0.578   5.638
  161DOPC   H8R19441   3.754   0.472   5.660
  161DOPC   H8S19442   3.786   0.608   5.549
  161DOPC   C2919443   3.579   0.590   5.612
  161DOPC   H9R19444   3.514   0.586   5.702
  161DOPC  C21019445   3.521   0.603   5.492
  161DOPC  H10R19446   3.411   0.611   5.485
  161DOPC  C21119447   3.595   0.607   5.361
  161DOPC  H11R19448   3.662   0.519   5.353
  161DOPC  H11S19449   3.659   0.697   5.355
  161DOPC  C21219450   3.499   0.607   5.240
  161DOPC  H12R19451   3.438   0.700   5.243
  161DOPC  H12S19452   3.429   0.521   5.244
  161DOPC  C21319453   3.575   0.604   5.107
  161DOPC  H13R19454   3.662   0.672   5.114
  161DOPC  H13S19455   3.509   0.642   5.026
  161DOPC  C21419456   3.623   0.463   5.067
  161DOPC  H14R19457   3.537   0.397   5.047
  161DOPC  H14S19458   3.679   0.420   5.154
  161DOPC  C21519459   3.719   0.464   4.947
  161DOPC  H15R19460   3.774   0.368   4.942
  161DOPC  H15S19461   3.793   0.545   4.966
  161DOPC  C21619462   3.653   0.493   4.811
  161DOPC  H16R19463   3.733   0.518   4.737
  161DOPC  H16S19464   3.589   0.584   4.820
  161DOPC  C21719465   3.570   0.378   4.754
  161DOPC  H17R19466   3.514   0.416   4.666
  161DOPC  H17S19467   3.496   0.345   4.829
  161DOPC  C21819468   3.654   0.257   4.708
  161DOPC  H18R19469   3.589   0.180   4.663
  161DOPC  H18S19470   3.707   0.212   4.794
  161DOPC  H18T19471   3.729   0.289   4.633
  161DOPC   C3319472   3.935  -0.028   5.983
  161DOPC   H3X19473   3.968  -0.104   5.909
  161DOPC   H3Y19474   4.022   0.040   6.001
  161DOPC   C3419475   3.818   0.051   5.924
  161DOPC   H4X19476   3.802   0.143   5.984
  161DOPC   H4Y19477   3.725  -0.011   5.932
  161DOPC   C3519478   3.836   0.090   5.777
  161DOPC   H5X19479   3.748   0.151   5.745
  161DOPC   H5Y19480   3.837  -0.002   5.714
  161DOPC   C3619481   3.963   0.171   5.749
  161DOPC   H6X19482   3.967   0.258   5.818
  161DOPC   H6Y19483   4.052   0.107   5.770
  161DOPC   C3719484   3.971   0.219   5.603
  161DOPC   H7X19485   3.981   0.129   5.538
  161DOPC   H7Y19486   3.876   0.269   5.574
  161DOPC   C3819487   4.091   0.312   5.575
  161DOPC   H8X19488   4.109   0.310   5.466
  161DOPC   H8Y19489   4.181   0.270   5.623
  161DOPC   C3919490   4.068   0.453   5.625
  161DOPC   H9X19491   4.038   0.461   5.731
  161DOPC  C31019492   4.079   0.565   5.552
  161DOPC  H10X19493   4.057   0.662   5.599
  161DOPC  C31119494   4.117   0.572   5.406
  161DOPC  H11X19495   4.193   0.494   5.383
  161DOPC  H11Y19496   4.165   0.670   5.384
  161DOPC  C31219497   3.999   0.553   5.310
  161DOPC  H12X19498   3.936   0.645   5.309
  161DOPC  H12Y19499   3.934   0.470   5.345
  161DOPC  C31319500   4.042   0.519   5.166
  161DOPC  H13X19501   4.090   0.418   5.167
  161DOPC  H13Y19502   3.952   0.511   5.102
  161DOPC  C31419503   4.141   0.619   5.103
  161DOPC  H14X19504   4.098   0.721   5.104
  161DOPC  H14Y19505   4.233   0.620   5.165
  161DOPC  C31519506   4.182   0.580   4.960
  161DOPC  H15X19507   4.200   0.471   4.956
  161DOPC  H15Y19508   4.278   0.630   4.935
  161DOPC  C31619509   4.079   0.622   4.854
  161DOPC  H16X19510   3.978   0.591   4.887
  161DOPC  H16Y19511   4.079   0.733   4.847
  161DOPC  C31719512   4.104   0.561   4.715
  161DOPC  H17X19513   4.040   0.616   4.642
  161DOPC  H17Y19514   4.209   0.578   4.686
  161DOPC  C31819515   4.070   0.412   4.705
  161DOPC  H18X19516   4.135   0.352   4.772
  161DOPC  H18Y19517   3.964   0.394   4.734
  161DOPC  H18Z19518   4.085   0.376   4.601
  162DOPC     N19519   1.336   6.542   6.968
  162DOPC   C1219520   1.353   6.414   6.887
  162DOPC  H12A19521   1.451   6.373   6.906
  162DOPC  H12B19522   1.350   6.438   6.782
  162DOPC   C1319523   1.201   6.604   6.946
  162DOPC  H13A19524   1.186   6.631   6.842
  162DOPC  H13B19525   1.123   6.535   6.974
  162DOPC  H13C19526   1.189   6.693   7.006
  162DOPC   C1419527   1.443   6.642   6.935
  162DOPC  H14A19528   1.436   6.675   6.833
  162DOPC  H14B19529   1.435   6.727   7.001
  162DOPC  H14C19530   1.541   6.599   6.950
  162DOPC   C1519531   1.350   6.509   7.113
  162DOPC  H15A19532   1.329   6.592   7.178
  162DOPC  H15B19533   1.450   6.475   7.135
  162DOPC  H15C19534   1.284   6.427   7.138
  162DOPC   C1119535   1.254   6.298   6.913
  162DOPC  H11A19536   1.150   6.334   6.897
  162DOPC  H11B19537   1.271   6.217   6.838
  162DOPC     P19538   1.383   6.150   7.085
  162DOPC   O1319539   1.351   6.014   7.038
  162DOPC   O1419540   1.405   6.164   7.231
  162DOPC   O1219541   1.265   6.248   7.045
  162DOPC   O1119542   1.511   6.210   7.010
  162DOPC    C119543   1.605   6.124   6.943
  162DOPC    HA19544   1.554   6.040   6.892
  162DOPC    HB19545   1.676   6.081   7.016
  162DOPC    C219546   1.690   6.195   6.831
  162DOPC    HS19547   1.770   6.251   6.882
  162DOPC   O2119548   1.603   6.290   6.767
  162DOPC   C2119549   1.653   6.370   6.674
  162DOPC   O2219550   1.769   6.374   6.637
  162DOPC   C2219551   1.537   6.458   6.624
  162DOPC   H2R19552   1.516   6.533   6.702
  162DOPC   H2S19553   1.449   6.391   6.612
  162DOPC    C319554   1.761   6.090   6.734
  162DOPC    HX19555   1.824   6.026   6.800
  162DOPC    HY19556   1.830   6.144   6.666
  162DOPC   O3119557   1.672   6.003   6.658
  162DOPC   C3119558   1.729   5.918   6.571
  162DOPC   O3219559   1.849   5.910   6.552
  162DOPC   C3219560   1.623   5.829   6.501
  162DOPC   H2X19561   1.640   5.723   6.532
  162DOPC   H2Y19562   1.522   5.856   6.539
  162DOPC   C2319563   1.558   6.532   6.489
  162DOPC   H3R19564   1.627   6.475   6.424
  162DOPC   H3S19565   1.608   6.630   6.506
  162DOPC   C2419566   1.426   6.551   6.412
  162DOPC   H4R19567   1.369   6.637   6.454
  162DOPC   H4S19568   1.363   6.461   6.423
  162DOPC   C2519569   1.450   6.574   6.261
  162DOPC   H5R19570   1.528   6.504   6.224
  162DOPC   H5S19571   1.489   6.677   6.247
  162DOPC   C2619572   1.323   6.557   6.175
  162DOPC   H6R19573   1.339   6.608   6.078
  162DOPC   H6S19574   1.239   6.608   6.226
  162DOPC   C2719575   1.284   6.410   6.146
  162DOPC   H7R19576   1.180   6.408   6.107
  162DOPC   H7S19577   1.283   6.354   6.242
  162DOPC   C2819578   1.376   6.337   6.045
  162DOPC   H8R19579   1.354   6.229   6.052
  162DOPC   H8S19580   1.482   6.350   6.078
  162DOPC   C2919581   1.360   6.384   5.903
  162DOPC   H9R19582   1.312   6.482   5.890
  162DOPC  C21019583   1.399   6.315   5.794
  162DOPC  H10R19584   1.381   6.358   5.694
  162DOPC  C21119585   1.466   6.180   5.797
  162DOPC  H11R19586   1.397   6.104   5.840
  162DOPC  H11S19587   1.556   6.183   5.861
  162DOPC  C21219588   1.509   6.129   5.657
  162DOPC  H12R19589   1.419   6.120   5.591
  162DOPC  H12S19590   1.552   6.028   5.669
  162DOPC  C21319591   1.614   6.219   5.589
  162DOPC  H13R19592   1.695   6.240   5.662
  162DOPC  H13S19593   1.567   6.315   5.561
  162DOPC  C21419594   1.678   6.157   5.463
  162DOPC  H14R19595   1.730   6.063   5.491
  162DOPC  H14S19596   1.755   6.227   5.424
  162DOPC  C21519597   1.578   6.126   5.351
  162DOPC  H15R19598   1.518   6.218   5.330
  162DOPC  H15S19599   1.508   6.047   5.384
  162DOPC  C21619600   1.646   6.080   5.221
  162DOPC  H16R19601   1.707   5.989   5.241
  162DOPC  H16S19602   1.715   6.160   5.185
  162DOPC  C21719603   1.545   6.049   5.109
  162DOPC  H17R19604   1.483   6.140   5.091
  162DOPC  H17S19605   1.477   5.968   5.144
  162DOPC  C21819606   1.609   6.006   4.977
  162DOPC  H18R19607   1.680   6.084   4.941
  162DOPC  H18S19608   1.532   5.990   4.899
  162DOPC  H18T19609   1.665   5.911   4.990
  162DOPC   C3319610   1.614   5.824   6.346
  162DOPC   H3X19611   1.709   5.780   6.309
  162DOPC   H3Y19612   1.605   5.926   6.302
  162DOPC   C3419613   1.493   5.742   6.296
  162DOPC   H4X19614   1.447   5.685   6.379
  162DOPC   H4Y19615   1.532   5.667   6.224
  162DOPC   C3519616   1.384   5.823   6.221
  162DOPC   H5X19617   1.354   5.762   6.133
  162DOPC   H5Y19618   1.427   5.917   6.180
  162DOPC   C3619619   1.255   5.852   6.300
  162DOPC   H6X19620   1.229   5.763   6.361
  162DOPC   H6Y19621   1.267   5.931   6.377
  162DOPC   C3719622   1.134   5.891   6.213
  162DOPC   H7X19623   1.113   5.810   6.140
  162DOPC   H7Y19624   1.046   5.900   6.279
  162DOPC   C3819625   1.155   6.023   6.136
  162DOPC   H8X19626   1.242   6.011   6.067
  162DOPC   H8Y19627   1.183   6.103   6.208
  162DOPC   C3919628   1.030   6.063   6.061
  162DOPC   H9X19629   0.949   6.100   6.125
  162DOPC  C31019630   1.008   6.055   5.929
  162DOPC  H10X19631   0.912   6.090   5.889
  162DOPC  C31119632   1.104   6.005   5.823
  162DOPC  H11X19633   1.201   5.972   5.865
  162DOPC  H11Y19634   1.127   6.089   5.754
  162DOPC  C31219635   1.045   5.888   5.742
  162DOPC  H12X19636   0.941   5.910   5.709
  162DOPC  H12Y19637   1.040   5.799   5.809
  162DOPC  C31319638   1.129   5.853   5.618
  162DOPC  H13X19639   1.236   5.850   5.648
  162DOPC  H13Y19640   1.102   5.752   5.582
  162DOPC  C31419641   1.109   5.953   5.504
  162DOPC  H14X19642   1.009   5.939   5.458
  162DOPC  H14Y19643   1.112   6.057   5.545
  162DOPC  C31519644   1.218   5.944   5.396
  162DOPC  H15X19645   1.214   5.846   5.345
  162DOPC  H15Y19646   1.316   5.952   5.447
  162DOPC  C31619647   1.209   6.059   5.294
  162DOPC  H16X19648   1.179   6.152   5.347
  162DOPC  H16Y19649   1.309   6.078   5.250
  162DOPC  C31719650   1.111   6.033   5.178
  162DOPC  H17X19651   1.014   5.995   5.219
  162DOPC  H17Y19652   1.090   6.130   5.128
  162DOPC  C31819653   1.165   5.935   5.073
  162DOPC  H18X19654   1.095   5.926   4.988
  162DOPC  H18Y19655   1.263   5.971   5.034
  162DOPC  H18Z19656   1.180   5.834   5.117
  163DOPC     N19657   0.365   2.825   6.816
  163DOPC   C1219658   0.489   2.750   6.767
  163DOPC  H12A19659   0.487   2.747   6.659
  163DOPC  H12B19660   0.484   2.648   6.799
  163DOPC   C1319661   0.242   2.771   6.750
  163DOPC  H13A19662   0.155   2.830   6.775
  163DOPC  H13B19663   0.254   2.771   6.643
  163DOPC  H13C19664   0.225   2.668   6.780
  163DOPC   C1419665   0.378   2.970   6.779
  163DOPC  H14A19666   0.459   3.014   6.834
  163DOPC  H14B19667   0.403   2.983   6.675
  163DOPC  H14C19668   0.287   3.025   6.800
  163DOPC   C1519669   0.353   2.815   6.965
  163DOPC  H15A19670   0.269   2.871   7.002
  163DOPC  H15B19671   0.443   2.855   7.009
  163DOPC  H15C19672   0.347   2.712   6.997
  163DOPC   C1119673   0.629   2.801   6.811
  163DOPC  H11A19674   0.707   2.742   6.757
  163DOPC  H11B19675   0.643   2.906   6.779
  163DOPC     P19676   0.677   2.652   7.022
  163DOPC   O1319677   0.608   2.648   7.153
  163DOPC   O1419678   0.824   2.632   7.026
  163DOPC   O1219679   0.646   2.791   6.953
  163DOPC   O1119680   0.610   2.546   6.925
  163DOPC    C119681   0.688   2.441   6.866
  163DOPC    HA19682   0.677   2.349   6.928
  163DOPC    HB19683   0.796   2.463   6.860
  163DOPC    C219684   0.642   2.409   6.721
  163DOPC    HS19685   0.692   2.314   6.692
  163DOPC   O2119686   0.680   2.520   6.636
  163DOPC   C2119687   0.727   2.485   6.517
  163DOPC   O2219688   0.737   2.371   6.475
  163DOPC   C2219689   0.766   2.609   6.437
  163DOPC   H2R19690   0.866   2.589   6.392
  163DOPC   H2S19691   0.775   2.696   6.506
  163DOPC    C319692   0.488   2.385   6.716
  163DOPC    HX19693   0.436   2.472   6.762
  163DOPC    HY19694   0.466   2.299   6.782
  163DOPC   O3119695   0.442   2.355   6.583
  163DOPC   C3119696   0.390   2.456   6.514
  163DOPC   O3219697   0.362   2.566   6.560
  163DOPC   C3219698   0.375   2.416   6.368
  163DOPC   H2X19699   0.476   2.392   6.330
  163DOPC   H2Y19700   0.312   2.325   6.362
  163DOPC   C2319701   0.664   2.641   6.325
  163DOPC   H3R19702   0.570   2.678   6.372
  163DOPC   H3S19703   0.640   2.548   6.268
  163DOPC   C2419704   0.715   2.745   6.225
  163DOPC   H4R19705   0.799   2.701   6.167
  163DOPC   H4S19706   0.755   2.833   6.280
  163DOPC   C2519707   0.604   2.792   6.130
  163DOPC   H5R19708   0.574   2.896   6.156
  163DOPC   H5S19709   0.514   2.729   6.146
  163DOPC   C2619710   0.639   2.786   5.980
  163DOPC   H6R19711   0.742   2.747   5.965
  163DOPC   H6S19712   0.638   2.890   5.939
  163DOPC   C2719713   0.539   2.699   5.901
  163DOPC   H7R19714   0.436   2.737   5.917
  163DOPC   H7S19715   0.544   2.596   5.942
  163DOPC   C2819716   0.567   2.690   5.749
  163DOPC   H8R19717   0.498   2.614   5.705
  163DOPC   H8S19718   0.670   2.651   5.734
  163DOPC   C2919719   0.552   2.823   5.681
  163DOPC   H9R19720   0.645   2.881   5.676
  163DOPC  C21019721   0.440   2.876   5.629
  163DOPC  H10R19722   0.445   2.977   5.585
  163DOPC  C21119723   0.303   2.814   5.624
  163DOPC  H11R19724   0.241   2.846   5.711
  163DOPC  H11S19725   0.310   2.703   5.628
  163DOPC  C21219726   0.231   2.854   5.494
  163DOPC  H12R19727   0.306   2.853   5.411
  163DOPC  H12S19728   0.192   2.957   5.502
  163DOPC  C21319729   0.118   2.757   5.456
  163DOPC  H13R19730   0.033   2.769   5.528
  163DOPC  H13S19731   0.155   2.653   5.467
  163DOPC  C21419732   0.066   2.774   5.312
  163DOPC  H14R19733   0.008   2.868   5.305
  163DOPC  H14S19734  -0.005   2.690   5.291
  163DOPC  C21519735   0.174   2.774   5.202
  163DOPC  H15R19736   0.230   2.870   5.208
  163DOPC  H15S19737   0.126   2.772   5.102
  163DOPC  C21619738   0.275   2.658   5.212
  163DOPC  H16R19739   0.222   2.562   5.195
  163DOPC  H16S19740   0.315   2.655   5.316
  163DOPC  C21719741   0.395   2.671   5.117
  163DOPC  H17R19742   0.488   2.667   5.178
  163DOPC  H17S19743   0.393   2.770   5.068
  163DOPC  C21819744   0.402   2.561   5.011
  163DOPC  H18R19745   0.402   2.460   5.058
  163DOPC  H18S19746   0.494   2.571   4.950
  163DOPC  H18T19747   0.314   2.567   4.943
  163DOPC   C3319748   0.313   2.529   6.281
  163DOPC   H3X19749   0.357   2.627   6.311
  163DOPC   H3Y19750   0.203   2.536   6.299
  163DOPC   C3419751   0.340   2.514   6.131
  163DOPC   H4X19752   0.450   2.502   6.114
  163DOPC   H4Y19753   0.309   2.609   6.082
  163DOPC   C3519754   0.265   2.400   6.061
  163DOPC   H5X19755   0.246   2.431   5.956
  163DOPC   H5Y19756   0.166   2.384   6.109
  163DOPC   C3619757   0.344   2.268   6.056
  163DOPC   H6X19758   0.442   2.285   6.009
  163DOPC   H6Y19759   0.363   2.233   6.160
  163DOPC   C3719760   0.269   2.156   5.981
  163DOPC   H7X19761   0.320   2.060   6.000
  163DOPC   H7Y19762   0.167   2.149   6.025
  163DOPC   C3819763   0.255   2.177   5.829
  163DOPC   H8X19764   0.204   2.274   5.810
  163DOPC   H8Y19765   0.188   2.098   5.790
  163DOPC   C3919766   0.387   2.170   5.757
  163DOPC   H9X19767   0.470   2.129   5.816
  163DOPC  C31019768   0.410   2.208   5.630
  163DOPC  H10X19769   0.511   2.196   5.589
  163DOPC  C31119770   0.309   2.266   5.534
  163DOPC  H11X19771   0.205   2.260   5.575
  163DOPC  H11Y19772   0.308   2.204   5.442
  163DOPC  C31219773   0.336   2.412   5.495
  163DOPC  H12X19774   0.323   2.477   5.584
  163DOPC  H12Y19775   0.259   2.442   5.420
  163DOPC  C31319776   0.475   2.440   5.434
  163DOPC  H13X19777   0.477   2.545   5.396
  163DOPC  H13Y19778   0.552   2.434   5.513
  163DOPC  C31419779   0.514   2.345   5.319
  163DOPC  H14X19780   0.528   2.243   5.361
  163DOPC  H14Y19781   0.431   2.340   5.246
  163DOPC  C31519782   0.643   2.387   5.248
  163DOPC  H15X19783   0.716   2.421   5.324
  163DOPC  H15Y19784   0.623   2.474   5.182
  163DOPC  C31619785   0.707   2.274   5.166
  163DOPC  H16X19786   0.805   2.308   5.127
  163DOPC  H16Y19787   0.727   2.188   5.234
  163DOPC  C31719788   0.621   2.226   5.049
  163DOPC  H17X19789   0.519   2.203   5.086
  163DOPC  H17Y19790   0.611   2.308   4.975
  163DOPC  C31819791   0.677   2.101   4.980
  163DOPC  H18X19792   0.678   2.015   5.050
  163DOPC  H18Y19793   0.615   2.074   4.892
  163DOPC  H18Z19794   0.781   2.119   4.945
  164DOPC     N19795   1.223   1.339   7.150
  164DOPC   C1219796   1.301   1.363   7.021
  164DOPC  H12A19797   1.399   1.403   7.046
  164DOPC  H12B19798   1.250   1.438   6.963
  164DOPC   C1319799   1.288   1.230   7.231
  164DOPC  H13A19800   1.390   1.254   7.255
  164DOPC  H13B19801   1.234   1.215   7.324
  164DOPC  H13C19802   1.285   1.137   7.177
  164DOPC   C1419803   1.084   1.295   7.116
  164DOPC  H14A19804   1.031   1.372   7.061
  164DOPC  H14B19805   1.089   1.209   7.051
  164DOPC  H14C19806   1.027   1.269   7.204
  164DOPC   C1519807   1.215   1.464   7.232
  164DOPC  H15A19808   1.159   1.541   7.182
  164DOPC  H15B19809   1.313   1.502   7.256
  164DOPC  H15C19810   1.163   1.445   7.325
  164DOPC   C1119811   1.320   1.242   6.925
  164DOPC  H11A19812   1.387   1.273   6.841
  164DOPC  H11B19813   1.372   1.160   6.979
  164DOPC     P19814   1.155   1.053   6.845
  164DOPC   O1319815   1.009   1.047   6.823
  164DOPC   O1419816   1.208   0.973   6.958
  164DOPC   O1219817   1.194   1.203   6.872
  164DOPC   O1119818   1.237   1.017   6.713
  164DOPC    C119819   1.366   0.955   6.726
  164DOPC    HA19820   1.353   0.847   6.745
  164DOPC    HB19821   1.423   0.998   6.811
  164DOPC    C219822   1.458   0.973   6.601
  164DOPC    HS19823   1.558   0.935   6.633
  164DOPC   O2119824   1.466   1.113   6.566
  164DOPC   C2119825   1.569   1.141   6.488
  164DOPC   O2219826   1.669   1.072   6.477
  164DOPC   C2219827   1.542   1.269   6.409
  164DOPC   H2R19828   1.596   1.353   6.457
  164DOPC   H2S19829   1.432   1.288   6.413
  164DOPC    C319830   1.413   0.888   6.478
  164DOPC    HX19831   1.412   0.782   6.511
  164DOPC    HY19832   1.490   0.894   6.399
  164DOPC   O3119833   1.280   0.924   6.433
  164DOPC   C3119834   1.273   0.991   6.319
  164DOPC   O3219835   1.365   1.012   6.243
  164DOPC   C3219836   1.129   1.042   6.301
  164DOPC   H2X19837   1.061   0.955   6.311
  164DOPC   H2Y19838   1.110   1.112   6.385
  164DOPC   C2319839   1.585   1.251   6.262
  164DOPC   H3R19840   1.570   1.145   6.232
  164DOPC   H3S19841   1.694   1.270   6.251
  164DOPC   C2419842   1.506   1.338   6.165
  164DOPC   H4R19843   1.526   1.445   6.186
  164DOPC   H4S19844   1.397   1.320   6.179
  164DOPC   C2519845   1.540   1.309   6.018
  164DOPC   H5R19846   1.650   1.315   6.003
  164DOPC   H5S19847   1.493   1.388   5.956
  164DOPC   C2619848   1.491   1.171   5.969
  164DOPC   H6R19849   1.381   1.163   5.981
  164DOPC   H6S19850   1.537   1.093   6.033
  164DOPC   C2719851   1.530   1.138   5.823
  164DOPC   H7R19852   1.542   1.028   5.816
  164DOPC   H7S19853   1.629   1.183   5.799
  164DOPC   C2819854   1.425   1.178   5.718
  164DOPC   H8R19855   1.329   1.129   5.745
  164DOPC   H8S19856   1.457   1.135   5.621
  164DOPC   C2919857   1.408   1.327   5.704
  164DOPC   H9R19858   1.490   1.386   5.747
  164DOPC  C21019859   1.305   1.390   5.644
  164DOPC  H10R19860   1.305   1.500   5.639
  164DOPC  C21119861   1.187   1.322   5.580
  164DOPC  H11R19862   1.094   1.372   5.614
  164DOPC  H11S19863   1.179   1.216   5.610
  164DOPC  C21219864   1.192   1.327   5.426
  164DOPC  H12R19865   1.176   1.430   5.390
  164DOPC  H12S19866   1.108   1.265   5.388
  164DOPC  C21319867   1.323   1.272   5.366
  164DOPC  H13R19868   1.354   1.183   5.425
  164DOPC  H13S19869   1.403   1.348   5.376
  164DOPC  C21419870   1.310   1.228   5.219
  164DOPC  H14R19871   1.230   1.151   5.211
  164DOPC  H14S19872   1.406   1.181   5.188
  164DOPC  C21519873   1.278   1.343   5.123
  164DOPC  H15R19874   1.361   1.418   5.130
  164DOPC  H15S19875   1.185   1.393   5.157
  164DOPC  C21619876   1.261   1.301   4.977
  164DOPC  H16R19877   1.357   1.262   4.937
  164DOPC  H16S19878   1.235   1.391   4.918
  164DOPC  C21719879   1.151   1.196   4.955
  164DOPC  H17R19880   1.063   1.222   5.018
  164DOPC  H17S19881   1.187   1.097   4.989
  164DOPC  C21819882   1.105   1.186   4.809
  164DOPC  H18R19883   1.188   1.150   4.744
  164DOPC  H18S19884   1.071   1.285   4.772
  164DOPC  H18T19885   1.020   1.116   4.799
  164DOPC   C3319886   1.105   1.115   6.166
  164DOPC   H3X19887   1.187   1.187   6.144
  164DOPC   H3Y19888   1.011   1.174   6.177
  164DOPC   C3419889   1.086   1.018   6.049
  164DOPC   H4X19890   1.016   0.938   6.083
  164DOPC   H4Y19891   1.182   0.969   6.025
  164DOPC   C3519892   1.029   1.083   5.921
  164DOPC   H5X19893   1.109   1.085   5.844
  164DOPC   H5Y19894   1.003   1.189   5.942
  164DOPC   C3619895   0.904   1.012   5.865
  164DOPC   H6X19896   0.887   0.919   5.923
  164DOPC   H6Y19897   0.815   1.078   5.881
  164DOPC   C3719898   0.910   0.974   5.716
  164DOPC   H7X19899   0.870   1.058   5.656
  164DOPC   H7Y19900   1.016   0.960   5.687
  164DOPC   C3819901   0.832   0.843   5.687
  164DOPC   H8X19902   0.732   0.853   5.735
  164DOPC   H8Y19903   0.884   0.759   5.738
  164DOPC   C3919904   0.813   0.815   5.540
  164DOPC   H9X19905   0.761   0.895   5.486
  164DOPC  C31019906   0.853   0.707   5.469
  164DOPC  H10X19907   0.829   0.704   5.362
  164DOPC  C31119908   0.928   0.585   5.518
  164DOPC  H11X19909   0.855   0.506   5.548
  164DOPC  H11Y19910   0.990   0.608   5.607
  164DOPC  C31219911   1.019   0.526   5.408
  164DOPC  H12X19912   1.101   0.597   5.384
  164DOPC  H12Y19913   0.958   0.513   5.315
  164DOPC  C31319914   1.079   0.388   5.442
  164DOPC  H13X19915   0.997   0.324   5.480
  164DOPC  H13Y19916   1.116   0.341   5.349
  164DOPC  C31419917   1.193   0.391   5.545
  164DOPC  H14X19918   1.176   0.309   5.618
  164DOPC  H14Y19919   1.190   0.486   5.601
  164DOPC  C31519920   1.334   0.369   5.485
  164DOPC  H15X19921   1.333   0.274   5.427
  164DOPC  H15Y19922   1.407   0.357   5.568
  164DOPC  C31619923   1.383   0.484   5.395
  164DOPC  H16X19924   1.311   0.497   5.311
  164DOPC  H16Y19925   1.384   0.578   5.454
  164DOPC  C31719926   1.524   0.466   5.336
  164DOPC  H17X19927   1.543   0.551   5.267
  164DOPC  H17Y19928   1.598   0.474   5.418
  164DOPC  C31819929   1.548   0.334   5.261
  164DOPC  H18X19930   1.543   0.248   5.330
  164DOPC  H18Y19931   1.471   0.320   5.181
  164DOPC  H18Z19932   1.648   0.335   5.212
  165DOPC     N19933   6.070   0.804   7.120
  165DOPC   C1219934   6.111   0.694   7.023
  165DOPC  H12A19935   6.034   0.617   7.023
  165DOPC  H12B19936   6.200   0.646   7.060
  165DOPC   C1319937   6.159   0.924   7.106
  165DOPC  H13A19938   6.262   0.899   7.124
  165DOPC  H13B19939   6.150   0.964   7.006
  165DOPC  H13C19940   6.128   1.003   7.172
  165DOPC   C1419941   6.078   0.751   7.260
  165DOPC  H14A19942   6.175   0.708   7.280
  165DOPC  H14B19943   6.058   0.830   7.332
  165DOPC  H14C19944   6.005   0.673   7.277
  165DOPC   C1519945   5.931   0.851   7.092
  165DOPC  H15A19946   5.922   0.877   6.988
  165DOPC  H15B19947   5.908   0.940   7.150
  165DOPC  H15C19948   5.857   0.775   7.113
  165DOPC   C1119949   6.132   0.732   6.874
  165DOPC  H11A19950   6.210   0.811   6.866
  165DOPC  H11B19951   6.172   0.644   6.820
  165DOPC     P19952   5.894   0.679   6.780
  165DOPC   O1319953   5.765   0.741   6.820
  165DOPC   O1419954   5.921   0.549   6.847
  165DOPC   O1219955   6.012   0.779   6.815
  165DOPC   O1119956   5.900   0.661   6.624
  165DOPC    C119957   6.025   0.656   6.554
  165DOPC    HA19958   6.011   0.592   6.464
  165DOPC    HB19959   6.105   0.609   6.614
  165DOPC    C219960   6.072   0.795   6.502
  165DOPC    HS19961   6.077   0.865   6.588
  165DOPC   O2119962   5.976   0.837   6.404
  165DOPC   C2119963   5.965   0.966   6.383
  165DOPC   O2219964   6.030   1.054   6.438
  165DOPC   C2219965   5.855   0.991   6.279
  165DOPC   H2R19966   5.880   1.085   6.225
  165DOPC   H2S19967   5.761   1.007   6.336
  165DOPC    C319968   6.215   0.780   6.440
  165DOPC    HX19969   6.205   0.709   6.355
  165DOPC    HY19970   6.281   0.731   6.515
  165DOPC   O3119971   6.271   0.903   6.391
  165DOPC   C3119972   6.337   0.976   6.479
  165DOPC   O3219973   6.356   0.948   6.597
  165DOPC   C3219974   6.400   1.100   6.413
  165DOPC   H2X19975   6.341   1.189   6.444
  165DOPC   H2Y19976   6.502   1.109   6.455
  165DOPC   C2319977   5.835   0.875   6.178
  165DOPC   H3R19978   5.743   0.892   6.119
  165DOPC   H3S19979   5.823   0.779   6.231
  165DOPC   C2419980   5.953   0.866   6.080
  165DOPC   H4R19981   6.047   0.881   6.137
  165DOPC   H4S19982   5.946   0.949   6.007
  165DOPC   C2519983   5.969   0.731   6.007
  165DOPC   H5R19984   5.992   0.654   6.084
  165DOPC   H5S19985   6.058   0.737   5.941
  165DOPC   C2619986   5.849   0.682   5.923
  165DOPC   H6R19987   5.765   0.662   5.993
  165DOPC   H6S19988   5.877   0.586   5.876
  165DOPC   C2719989   5.799   0.778   5.813
  165DOPC   H7R19990   5.760   0.870   5.862
  165DOPC   H7S19991   5.711   0.729   5.766
  165DOPC   C2819992   5.900   0.812   5.701
  165DOPC   H8R19993   5.849   0.793   5.604
  165DOPC   H8S19994   5.984   0.740   5.707
  165DOPC   C2919995   5.952   0.954   5.706
  165DOPC   H9R19996   5.981   0.987   5.807
  165DOPC  C21019997   5.968   1.040   5.604
  165DOPC  H10R19998   6.007   1.140   5.627
  165DOPC  C21119999   5.938   1.019   5.457
  165DOPC  H11R20000   5.848   1.078   5.429
  165DOPC  H11S20001   5.917   0.913   5.433
  165DOPC  C21220002   6.055   1.068   5.369
  165DOPC  H12R20003   6.091   1.167   5.405
  165DOPC  H12S20004   6.019   1.083   5.265
  165DOPC  C21320005   6.173   0.971   5.362
  165DOPC  H13R20006   6.147   0.886   5.294
  165DOPC  H13S20007   6.192   0.928   5.463
  165DOPC  C21420008   6.301   1.039   5.312
  165DOPC  H14R20009   6.325   1.123   5.381
  165DOPC  H14S20010   6.282   1.083   5.212
  165DOPC  C21520011   6.421   0.945   5.304
  165DOPC  H15R20012   6.398   0.862   5.234
  165DOPC  H15S20013   6.441   0.900   5.404
  165DOPC  C21620014   6.546   1.019   5.257
  165DOPC  H16R20015   6.575   1.094   5.334
  165DOPC  H16S20016   6.521   1.076   5.164
  165DOPC  C21720017   6.666   0.929   5.227
  165DOPC  H17R20018   6.635   0.849   5.156
  165DOPC  H17S20019   6.699   0.879   5.321
  165DOPC  C21820020   6.783   1.007   5.166
  165DOPC  H18R20021   6.868   0.940   5.142
  165DOPC  H18S20022   6.819   1.085   5.236
  165DOPC  H18T20023   6.751   1.056   5.072
  165DOPC   C3320024   6.410   1.094   6.258
  165DOPC   H3X20025   6.424   0.989   6.225
  165DOPC   H3Y20026   6.499   1.151   6.226
  165DOPC   C3420027   6.288   1.156   6.189
  165DOPC   H4X20028   6.281   1.261   6.222
  165DOPC   H4Y20029   6.195   1.104   6.222
  165DOPC   C3520030   6.296   1.154   6.036
  165DOPC   H5X20031   6.392   1.200   6.003
  165DOPC   H5Y20032   6.214   1.218   5.995
  165DOPC   C3620033   6.281   1.014   5.975
  165DOPC   H6X20034   6.357   0.945   6.017
  165DOPC   H6Y20035   6.181   0.974   6.002
  165DOPC   C3720036   6.292   1.014   5.822
  165DOPC   H7X20037   6.390   1.056   5.791
  165DOPC   H7Y20038   6.214   1.082   5.781
  165DOPC   C3820039   6.272   0.875   5.758
  165DOPC   H8X20040   6.263   0.891   5.648
  165DOPC   H8Y20041   6.174   0.835   5.792
  165DOPC   C3920042   6.380   0.773   5.782
  165DOPC   H9X20043   6.478   0.814   5.809
  165DOPC  C31020044   6.365   0.640   5.768
  165DOPC  H10X20045   6.452   0.575   5.785
  165DOPC  C31120046   6.240   0.567   5.725
  165DOPC  H11X20047   6.149   0.608   5.776
  165DOPC  H11Y20048   6.248   0.461   5.757
  165DOPC  C31220049   6.216   0.570   5.573
  165DOPC  H12X20050   6.312   0.547   5.522
  165DOPC  H12Y20051   6.188   0.673   5.542
  165DOPC  C31320052   6.113   0.466   5.523
  165DOPC  H13X20053   6.157   0.412   5.436
  165DOPC  H13Y20054   6.096   0.391   5.603
  165DOPC  C31420055   5.978   0.523   5.477
  165DOPC  H14X20056   5.912   0.438   5.449
  165DOPC  H14Y20057   5.929   0.576   5.562
  165DOPC  C31520058   5.989   0.618   5.357
  165DOPC  H15X20059   6.050   0.570   5.277
  165DOPC  H15Y20060   6.044   0.709   5.389
  165DOPC  C31620061   5.853   0.663   5.299
  165DOPC  H16X20062   5.789   0.697   5.383
  165DOPC  H16Y20063   5.871   0.751   5.233
  165DOPC  C31720064   5.779   0.556   5.217
  165DOPC  H17X20065   5.764   0.466   5.279
  165DOPC  H17Y20066   5.678   0.597   5.192
  165DOPC  C31820067   5.848   0.517   5.085
  165DOPC  H18X20068   5.860   0.606   5.020
  165DOPC  H18Y20069   5.948   0.474   5.104
  165DOPC  H18Z20070   5.787   0.442   5.031
  166DOPC     N20071   7.300   2.692   6.870
  166DOPC   C1220072   7.319   2.643   7.013
  166DOPC  H12A20073   7.227   2.595   7.045
  166DOPC  H12B20074   7.334   2.728   7.078
  166DOPC   C1320075   7.207   2.809   6.863
  166DOPC  H13A20076   7.111   2.786   6.908
  166DOPC  H13B20077   7.246   2.897   6.913
  166DOPC  H13C20078   7.190   2.840   6.761
  166DOPC   C1420079   7.240   2.580   6.790
  166DOPC  H14A20080   7.218   2.609   6.689
  166DOPC  H14B20081   7.311   2.498   6.787
  166DOPC  H14C20082   7.152   2.540   6.838
  166DOPC   C1520083   7.430   2.726   6.806
  166DOPC  H15A20084   7.495   2.639   6.809
  166DOPC  H15B20085   7.481   2.808   6.855
  166DOPC  H15C20086   7.417   2.753   6.702
  166DOPC   C1120087   7.431   2.539   7.039
  166DOPC  H11A20088   7.530   2.582   7.009
  166DOPC  H11B20089   7.438   2.521   7.149
  166DOPC     P20090   7.299   2.316   7.017
  166DOPC   O1320091   7.173   2.390   7.035
  166DOPC   O1420092   7.351   2.240   7.134
  166DOPC   O1220093   7.410   2.417   6.969
  166DOPC   O1120094   7.285   2.218   6.892
  166DOPC    C120095   7.404   2.184   6.819
  166DOPC    HA20096   7.463   2.108   6.874
  166DOPC    HB20097   7.470   2.272   6.803
  166DOPC    C220098   7.374   2.130   6.675
  166DOPC    HS20099   7.466   2.142   6.613
  166DOPC   O2120100   7.264   2.198   6.614
  166DOPC   C2120101   7.285   2.324   6.578
  166DOPC   O2220102   7.383   2.391   6.607
  166DOPC   C2220103   7.170   2.373   6.491
  166DOPC   H2R20104   7.145   2.478   6.520
  166DOPC   H2S20105   7.080   2.310   6.512
  166DOPC    C320106   7.344   1.977   6.677
  166DOPC    HX20107   7.268   1.954   6.755
  166DOPC    HY20108   7.437   1.925   6.708
  166DOPC   O3120109   7.307   1.931   6.546
  166DOPC   C3120110   7.177   1.944   6.517
  166DOPC   O3220111   7.088   1.962   6.598
  166DOPC   C3220112   7.158   1.944   6.365
  166DOPC   H2X20113   7.122   1.844   6.332
  166DOPC   H2Y20114   7.078   2.018   6.344
  166DOPC   C2320115   7.203   2.367   6.340
  166DOPC   H3R20116   7.109   2.379   6.283
  166DOPC   H3S20117   7.243   2.266   6.315
  166DOPC   C2420118   7.303   2.474   6.294
  166DOPC   H4R20119   7.385   2.483   6.367
  166DOPC   H4S20120   7.251   2.572   6.289
  166DOPC   C2520121   7.366   2.443   6.157
  166DOPC   H5R20122   7.424   2.348   6.165
  166DOPC   H5S20123   7.438   2.523   6.132
  166DOPC   C2620124   7.266   2.428   6.042
  166DOPC   H6R20125   7.207   2.522   6.032
  166DOPC   H6S20126   7.194   2.346   6.064
  166DOPC   C2720127   7.335   2.399   5.908
  166DOPC   H7R20128   7.391   2.303   5.919
  166DOPC   H7S20129   7.410   2.479   5.888
  166DOPC   C2820130   7.237   2.389   5.790
  166DOPC   H8R20131   7.189   2.488   5.776
  166DOPC   H8S20132   7.157   2.317   5.815
  166DOPC   C2920133   7.310   2.343   5.666
  166DOPC   H9R20134   7.356   2.244   5.676
  166DOPC  C21020135   7.322   2.408   5.548
  166DOPC  H10R20136   7.378   2.359   5.467
  166DOPC  C21120137   7.263   2.542   5.514
  166DOPC  H11R20138   7.325   2.624   5.555
  166DOPC  H11S20139   7.162   2.552   5.559
  166DOPC  C21220140   7.248   2.564   5.362
  166DOPC  H12R20141   7.190   2.657   5.345
  166DOPC  H12S20142   7.190   2.481   5.317
  166DOPC  C21320143   7.383   2.579   5.289
  166DOPC  H13R20144   7.444   2.488   5.308
  166DOPC  H13S20145   7.438   2.666   5.330
  166DOPC  C21420146   7.368   2.597   5.137
  166DOPC  H14R20147   7.310   2.690   5.117
  166DOPC  H14S20148   7.308   2.512   5.097
  166DOPC  C21520149   7.501   2.602   5.061
  166DOPC  H15R20150   7.557   2.694   5.089
  166DOPC  H15S20151   7.479   2.609   4.952
  166DOPC  C21620152   7.590   2.479   5.086
  166DOPC  H16R20153   7.529   2.388   5.074
  166DOPC  H16S20154   7.629   2.481   5.190
  166DOPC  C21720155   7.710   2.470   4.990
  166DOPC  H17R20156   7.771   2.562   4.999
  166DOPC  H17S20157   7.671   2.466   4.886
  166DOPC  C21820158   7.797   2.347   5.016
  166DOPC  H18R20159   7.841   2.351   5.118
  166DOPC  H18S20160   7.880   2.341   4.942
  166DOPC  H18T20161   7.736   2.255   5.008
  166DOPC   C3320162   7.286   1.986   6.287
  166DOPC   H3X20163   7.360   1.903   6.284
  166DOPC   H3Y20164   7.334   2.070   6.341
  166DOPC   C3420165   7.256   2.036   6.145
  166DOPC   H4X20166   7.335   2.110   6.117
  166DOPC   H4Y20167   7.159   2.090   6.143
  166DOPC   C3520168   7.257   1.927   6.037
  166DOPC   H5X20169   7.181   1.849   6.061
  166DOPC   H5Y20170   7.357   1.877   6.039
  166DOPC   C3620171   7.230   1.986   5.898
  166DOPC   H6X20172   7.123   2.014   5.892
  166DOPC   H6Y20173   7.288   2.080   5.887
  166DOPC   C3720174   7.266   1.892   5.781
  166DOPC   H7X20175   7.207   1.799   5.789
  166DOPC   H7Y20176   7.234   1.943   5.687
  166DOPC   C3820177   7.415   1.858   5.766
  166DOPC   H8X20178   7.429   1.803   5.670
  166DOPC   H8Y20179   7.444   1.787   5.847
  166DOPC   C3920180   7.505   1.979   5.772
  166DOPC   H9X20181   7.542   2.003   5.872
  166DOPC  C31020182   7.542   2.058   5.669
  166DOPC  H10X20183   7.609   2.143   5.690
  166DOPC  C31120184   7.502   2.044   5.525
  166DOPC  H11X20185   7.411   2.105   5.505
  166DOPC  H11Y20186   7.476   1.939   5.499
  166DOPC  C31220187   7.613   2.094   5.430
  166DOPC  H12X20188   7.699   2.024   5.435
  166DOPC  H12Y20189   7.648   2.194   5.463
  166DOPC  C31320190   7.567   2.108   5.284
  166DOPC  H13X20191   7.483   2.180   5.280
  166DOPC  H13Y20192   7.650   2.150   5.224
  166DOPC  C31420193   7.524   1.974   5.221
  166DOPC  H14X20194   7.607   1.902   5.232
  166DOPC  H14Y20195   7.436   1.934   5.276
  166DOPC  C31520196   7.488   1.984   5.071
  166DOPC  H15X20197   7.445   1.887   5.038
  166DOPC  H15Y20198   7.582   1.999   5.013
  166DOPC  C31620199   7.390   2.097   5.035
  166DOPC  H16X20200   7.440   2.195   5.056
  166DOPC  H16Y20201   7.370   2.094   4.926
  166DOPC  C31720202   7.256   2.093   5.110
  166DOPC  H17X20203   7.198   2.006   5.074
  166DOPC  H17Y20204   7.274   2.079   5.219
  166DOPC  C31820205   7.173   2.220   5.091
  166DOPC  H18X20206   7.223   2.307   5.140
  166DOPC  H18Y20207   7.163   2.242   4.983
  166DOPC  H18Z20208   7.072   2.208   5.135
  167DOPC     N20209   6.507   1.250   6.869
  167DOPC   C1220210   6.649   1.241   6.817
  167DOPC  H12A20211   6.705   1.324   6.858
  167DOPC  H12B20212   6.647   1.250   6.710
  167DOPC   C1320213   6.434   1.368   6.811
  167DOPC  H13A20214   6.482   1.461   6.840
  167DOPC  H13B20215   6.427   1.362   6.704
  167DOPC  H13C20216   6.334   1.368   6.850
  167DOPC   C1420217   6.507   1.268   7.018
  167DOPC  H14A20218   6.406   1.265   7.056
  167DOPC  H14B20219   6.566   1.189   7.063
  167DOPC  H14C20220   6.553   1.362   7.046
  167DOPC   C1520221   6.426   1.128   6.838
  167DOPC  H15A20222   6.415   1.108   6.733
  167DOPC  H15B20223   6.327   1.139   6.879
  167DOPC  H15C20224   6.471   1.041   6.884
  167DOPC   C1120225   6.728   1.113   6.853
  167DOPC  H11A20226   6.669   1.024   6.822
  167DOPC  H11B20227   6.820   1.109   6.792
  167DOPC     P20228   6.878   1.186   7.049
  167DOPC   O1320229   6.910   1.137   7.185
  167DOPC   O1420230   6.850   1.330   7.030
  167DOPC   O1220231   6.755   1.104   6.993
  167DOPC   O1120232   6.993   1.138   6.954
  167DOPC    C120233   7.101   1.222   6.913
  167DOPC    HA20234   7.190   1.201   6.977
  167DOPC    HB20235   7.079   1.330   6.924
  167DOPC    C220236   7.142   1.195   6.765
  167DOPC    HS20237   7.226   1.263   6.740
  167DOPC   O2120238   7.032   1.218   6.675
  167DOPC   C2120239   6.994   1.342   6.658
  167DOPC   O2220240   7.042   1.441   6.711
  167DOPC   C2220241   6.879   1.344   6.557
  167DOPC   H2R20242   6.796   1.404   6.602
  167DOPC   H2S20243   6.844   1.240   6.541
  167DOPC    C320244   7.194   1.049   6.744
  167DOPC    HX20245   7.236   1.009   6.838
  167DOPC    HY20246   7.280   1.057   6.674
  167DOPC   O3120247   7.097   0.961   6.682
  167DOPC   C3120248   7.027   0.880   6.760
  167DOPC   O3220249   7.037   0.867   6.880
  167DOPC   C3220250   6.930   0.800   6.672
  167DOPC   H2X20251   6.993   0.749   6.595
  167DOPC   H2Y20252   6.884   0.722   6.736
  167DOPC   C2320253   6.921   1.407   6.422
  167DOPC   H3R20254   7.019   1.366   6.389
  167DOPC   H3S20255   6.934   1.517   6.436
  167DOPC   C2420256   6.817   1.382   6.312
  167DOPC   H4R20257   6.832   1.457   6.231
  167DOPC   H4S20258   6.716   1.399   6.354
  167DOPC   C2520259   6.824   1.241   6.250
  167DOPC   H5R20260   6.729   1.221   6.196
  167DOPC   H5S20261   6.833   1.166   6.332
  167DOPC   C2620262   6.940   1.220   6.150
  167DOPC   H6R20263   6.945   1.112   6.125
  167DOPC   H6S20264   7.037   1.247   6.196
  167DOPC   C2720265   6.920   1.296   6.019
  167DOPC   H7R20266   6.934   1.405   6.039
  167DOPC   H7S20267   6.816   1.280   5.983
  167DOPC   C2820268   7.018   1.254   5.908
  167DOPC   H8R20269   7.010   1.144   5.893
  167DOPC   H8S20270   7.122   1.274   5.943
  167DOPC   C2920271   6.989   1.328   5.779
  167DOPC   H9R20272   6.938   1.424   5.792
  167DOPC  C21020273   7.020   1.287   5.655
  167DOPC  H10R20274   6.990   1.349   5.569
  167DOPC  C21120275   7.091   1.158   5.619
  167DOPC  H11R20276   7.139   1.113   5.709
  167DOPC  H11S20277   7.174   1.187   5.551
  167DOPC  C21220278   7.009   1.040   5.548
  167DOPC  H12R20279   6.931   1.060   5.623
  167DOPC  H12S20280   7.112   1.000   5.531
  167DOPC  C21320281   6.992   0.894   5.616
  167DOPC  H13R20282   6.891   0.856   5.592
  167DOPC  H13S20283   6.998   0.907   5.726
  167DOPC  C21420284   7.096   0.785   5.582
  167DOPC  H14R20285   7.100   0.713   5.667
  167DOPC  H14S20286   7.198   0.829   5.580
  167DOPC  C21520287   7.071   0.702   5.454
  167DOPC  H15R20288   6.990   0.628   5.474
  167DOPC  H15S20289   7.163   0.643   5.433
  167DOPC  C21620290   7.033   0.783   5.330
  167DOPC  H16R20291   7.107   0.864   5.313
  167DOPC  H16S20292   6.934   0.830   5.348
  167DOPC  C21720293   7.024   0.695   5.204
  167DOPC  H17R20294   6.961   0.747   5.128
  167DOPC  H17S20295   6.973   0.600   5.229
  167DOPC  C21820296   7.159   0.665   5.138
  167DOPC  H18R20297   7.145   0.600   5.049
  167DOPC  H18S20298   7.227   0.614   5.209
  167DOPC  H18T20299   7.207   0.759   5.104
  167DOPC   C3320300   6.821   0.886   6.605
  167DOPC   H3X20301   6.856   0.991   6.595
  167DOPC   H3Y20302   6.730   0.887   6.670
  167DOPC   C3420303   6.781   0.840   6.465
  167DOPC   H4X20304   6.699   0.906   6.428
  167DOPC   H4Y20305   6.740   0.736   6.468
  167DOPC   C3520306   6.898   0.847   6.365
  167DOPC   H5X20307   6.961   0.757   6.376
  167DOPC   H5Y20308   6.960   0.935   6.392
  167DOPC   C3620309   6.855   0.865   6.219
  167DOPC   H6X20310   6.802   0.962   6.212
  167DOPC   H6Y20311   6.945   0.871   6.155
  167DOPC   C3720312   6.763   0.755   6.163
  167DOPC   H7X20313   6.817   0.658   6.165
  167DOPC   H7Y20314   6.673   0.743   6.228
  167DOPC   C3820315   6.719   0.783   6.018
  167DOPC   H8X20316   6.660   0.697   5.981
  167DOPC   H8Y20317   6.809   0.794   5.955
  167DOPC   C3920318   6.635   0.908   6.016
  167DOPC   H9X20319   6.564   0.915   6.100
  167DOPC  C31020320   6.636   1.008   5.926
  167DOPC  H10X20321   6.567   1.092   5.943
  167DOPC  C31120322   6.721   1.020   5.803
  167DOPC  H11X20323   6.756   0.920   5.769
  167DOPC  H11Y20324   6.812   1.081   5.825
  167DOPC  C31220325   6.648   1.087   5.684
  167DOPC  H12X20326   6.557   1.028   5.658
  167DOPC  H12Y20327   6.714   1.084   5.595
  167DOPC  C31320328   6.609   1.235   5.709
  167DOPC  H13X20329   6.546   1.241   5.800
  167DOPC  H13Y20330   6.700   1.295   5.728
  167DOPC  C31420331   6.528   1.297   5.594
  167DOPC  H14X20332   6.450   1.225   5.562
  167DOPC  H14Y20333   6.476   1.388   5.632
  167DOPC  C31520334   6.613   1.339   5.474
  167DOPC  H15X20335   6.673   1.252   5.440
  167DOPC  H15Y20336   6.684   1.419   5.503
  167DOPC  C31620337   6.526   1.389   5.357
  167DOPC  H16X20338   6.449   1.312   5.334
  167DOPC  H16Y20339   6.473   1.481   5.387
  167DOPC  C31720340   6.607   1.415   5.230
  167DOPC  H17X20341   6.685   1.492   5.251
  167DOPC  H17Y20342   6.659   1.321   5.201
  167DOPC  C31820343   6.522   1.462   5.112
  167DOPC  H18X20344   6.585   1.488   5.025
  167DOPC  H18Y20345   6.451   1.382   5.081
  167DOPC  H18Z20346   6.463   1.553   5.140
  168DOPC     N20347   2.082   7.615   6.956
  168DOPC   C1220348   2.010   7.649   6.826
  168DOPC  H12A20349   1.980   7.557   6.777
  168DOPC  H12B20350   2.078   7.700   6.760
  168DOPC   C1320351   2.230   7.599   6.937
  168DOPC  H13A20352   2.278   7.577   7.031
  168DOPC  H13B20353   2.255   7.520   6.868
  168DOPC  H13C20354   2.276   7.691   6.902
  168DOPC   C1420355   2.026   7.489   7.014
  168DOPC  H14A20356   2.042   7.403   6.950
  168DOPC  H14B20357   2.068   7.468   7.112
  168DOPC  H14C20358   1.919   7.499   7.028
  168DOPC   C1520359   2.059   7.723   7.057
  168DOPC  H15A20360   2.101   7.818   7.025
  168DOPC  H15B20361   2.100   7.697   7.153
  168DOPC  H15C20362   1.953   7.737   7.071
  168DOPC   C1120363   1.880   7.735   6.834
  168DOPC  H11A20364   1.907   7.838   6.866
  168DOPC  H11B20365   1.837   7.745   6.732
  168DOPC     P20366   1.700   7.553   6.887
  168DOPC   O1320367   1.565   7.587   6.839
  168DOPC   O1420368   1.709   7.464   7.006
  168DOPC   O1220369   1.782   7.683   6.925
  168DOPC   O1120370   1.785   7.488   6.770
  168DOPC    C120371   1.779   7.345   6.761
  168DOPC    HA20372   1.674   7.310   6.755
  168DOPC    HB20373   1.826   7.301   6.852
  168DOPC    C220374   1.851   7.287   6.635
  168DOPC    HS20375   1.841   7.176   6.639
  168DOPC   O2120376   1.990   7.324   6.627
  168DOPC   C2120377   2.073   7.280   6.717
  168DOPC   O2220378   2.045   7.220   6.820
  168DOPC   C2220379   2.216   7.309   6.672
  168DOPC   H2R20380   2.276   7.222   6.707
  168DOPC   H2S20381   2.252   7.400   6.724
  168DOPC    C320382   1.784   7.335   6.504
  168DOPC    HX20383   1.675   7.320   6.514
  168DOPC    HY20384   1.823   7.270   6.423
  168DOPC   O3120385   1.814   7.474   6.478
  168DOPC   C3120386   1.770   7.511   6.359
  168DOPC   O3220387   1.713   7.438   6.279
  168DOPC   C3220388   1.803   7.658   6.334
  168DOPC   H2X20389   1.873   7.694   6.413
  168DOPC   H2Y20390   1.855   7.661   6.236
  168DOPC   C2320391   2.237   7.323   6.519
  168DOPC   H3R20392   2.163   7.263   6.462
  168DOPC   H3S20393   2.337   7.283   6.492
  168DOPC   C2420394   2.231   7.467   6.466
  168DOPC   H4R20395   2.301   7.533   6.522
  168DOPC   H4S20396   2.128   7.505   6.481
  168DOPC   C2520397   2.267   7.470   6.317
  168DOPC   H5R20398   2.238   7.371   6.276
  168DOPC   H5S20399   2.376   7.480   6.303
  168DOPC   C2620400   2.192   7.578   6.238
  168DOPC   H6R20401   2.235   7.678   6.262
  168DOPC   H6S20402   2.086   7.580   6.271
  168DOPC   C2720403   2.194   7.557   6.085
  168DOPC   H7R20404   2.297   7.574   6.048
  168DOPC   H7S20405   2.129   7.634   6.039
  168DOPC   C2820406   2.148   7.418   6.036
  168DOPC   H8R20407   2.226   7.343   6.062
  168DOPC   H8S20408   2.144   7.422   5.925
  168DOPC   C2920409   2.015   7.375   6.095
  168DOPC   H9R20410   2.012   7.373   6.205
  168DOPC  C21020411   1.905   7.338   6.028
  168DOPC  H10R20412   1.814   7.313   6.084
  168DOPC  C21120413   1.891   7.334   5.878
  168DOPC  H11R20414   1.819   7.255   5.849
  168DOPC  H11S20415   1.987   7.308   5.829
  168DOPC  C21220416   1.841   7.468   5.824
  168DOPC  H12R20417   1.907   7.551   5.857
  168DOPC  H12S20418   1.739   7.488   5.866
  168DOPC  C21320419   1.831   7.471   5.671
  168DOPC  H13R20420   1.765   7.555   5.641
  168DOPC  H13S20421   1.784   7.377   5.636
  168DOPC  C21420422   1.967   7.492   5.603
  168DOPC  H14R20423   2.042   7.422   5.646
  168DOPC  H14S20424   2.002   7.596   5.623
  168DOPC  C21520425   1.963   7.469   5.451
  168DOPC  H15R20426   1.951   7.360   5.432
  168DOPC  H15S20427   2.059   7.501   5.406
  168DOPC  C21620428   1.848   7.543   5.381
  168DOPC  H16R20429   1.851   7.650   5.410
  168DOPC  H16S20430   1.750   7.502   5.414
  168DOPC  C21720431   1.854   7.534   5.228
  168DOPC  H17R20432   1.950   7.578   5.194
  168DOPC  H17S20433   1.772   7.597   5.187
  168DOPC  C21820434   1.841   7.392   5.171
  168DOPC  H18R20435   1.927   7.329   5.203
  168DOPC  H18S20436   1.840   7.395   5.060
  168DOPC  H18T20437   1.748   7.345   5.206
  168DOPC   C3320438   1.676   7.745   6.331
  168DOPC   H3X20439   1.626   7.742   6.429
  168DOPC   H3Y20440   1.605   7.705   6.256
  168DOPC   C3420441   1.707   7.892   6.296
  168DOPC   H4X20442   1.766   7.936   6.379
  168DOPC   H4Y20443   1.612   7.949   6.289
  168DOPC   C3520444   1.785   7.911   6.165
  168DOPC   H5X20445   1.888   7.871   6.178
  168DOPC   H5Y20446   1.795   8.020   6.144
  168DOPC   C3620447   1.723   7.846   6.040
  168DOPC   H6X20448   1.691   7.742   6.061
  168DOPC   H6Y20449   1.633   7.904   6.010
  168DOPC   C3720450   1.824   7.842   5.925
  168DOPC   H7X20451   1.872   7.942   5.915
  168DOPC   H7Y20452   1.904   7.771   5.953
  168DOPC   C3820453   1.763   7.798   5.791
  168DOPC   H8X20454   1.695   7.713   5.809
  168DOPC   H8Y20455   1.846   7.760   5.728
  168DOPC   C3920456   1.691   7.909   5.718
  168DOPC   H9X20457   1.582   7.909   5.727
  168DOPC  C31020458   1.753   8.003   5.645
  168DOPC  H10X20459   1.692   8.079   5.594
  168DOPC  C31120460   1.902   8.016   5.626
  168DOPC  H11X20461   1.957   7.986   5.718
  168DOPC  H11Y20462   1.928   8.122   5.607
  168DOPC  C31220463   1.959   7.932   5.510
  168DOPC  H12X20464   1.943   7.824   5.528
  168DOPC  H12Y20465   2.069   7.949   5.509
  168DOPC  C31320466   1.900   7.970   5.373
  168DOPC  H13X20467   1.795   7.935   5.369
  168DOPC  H13Y20468   1.899   8.081   5.365
  168DOPC  C31420469   1.977   7.914   5.252
  168DOPC  H14X20470   1.972   7.803   5.252
  168DOPC  H14Y20471   1.927   7.950   5.160
  168DOPC  C31520472   2.125   7.957   5.250
  168DOPC  H15X20473   2.181   7.894   5.322
  168DOPC  H15Y20474   2.133   8.062   5.286
  168DOPC  C31620475   2.191   7.946   5.112
  168DOPC  H16X20476   2.301   7.961   5.125
  168DOPC  H16Y20477   2.177   7.843   5.073
  168DOPC  C31720478   2.141   8.047   5.007
  168DOPC  H17X20479   2.198   8.030   4.913
  168DOPC  H17Y20480   2.034   8.027   4.985
  168DOPC  C31820481   2.156   8.194   5.047
  168DOPC  H18X20482   2.262   8.217   5.072
  168DOPC  H18Y20483   2.124   8.260   4.964
  168DOPC  H18Z20484   2.093   8.218   5.136
  169DOPC     N20485   0.584   1.084   7.074
  169DOPC   C1220486   0.535   1.214   7.138
  169DOPC  H12A20487   0.532   1.291   7.063
  169DOPC  H12B20488   0.607   1.245   7.212
  169DOPC   C1320489   0.489   1.038   6.968
  169DOPC  H13A20490   0.525   0.950   6.916
  169DOPC  H13B20491   0.394   1.015   7.013
  169DOPC  H13C20492   0.469   1.116   6.896
  169DOPC   C1420493   0.591   0.977   7.179
  169DOPC  H14A20494   0.617   0.882   7.135
  169DOPC  H14B20495   0.665   1.000   7.255
  169DOPC  H14C20496   0.495   0.965   7.228
  169DOPC   C1520497   0.721   1.102   7.014
  169DOPC  H15A20498   0.719   1.173   6.932
  169DOPC  H15B20499   0.759   1.010   6.973
  169DOPC  H15C20500   0.792   1.137   7.088
  169DOPC   C1120501   0.394   1.213   7.203
  169DOPC  H11A20502   0.387   1.131   7.277
  169DOPC  H11B20503   0.380   1.307   7.261
  169DOPC     P20504   0.260   1.316   7.005
  169DOPC   O1320505   0.345   1.432   7.040
  169DOPC   O1420506   0.113   1.335   7.000
  169DOPC   O1220507   0.290   1.198   7.106
  169DOPC   O1120508   0.313   1.252   6.871
  169DOPC    C120509   0.299   1.320   6.746
  169DOPC    HA20510   0.201   1.372   6.738
  169DOPC    HB20511   0.303   1.244   6.664
  169DOPC    C220512   0.416   1.419   6.719
  169DOPC    HS20513   0.411   1.501   6.795
  169DOPC   O2120514   0.405   1.470   6.586
  169DOPC   C2120515   0.310   1.559   6.568
  169DOPC   O2220516   0.254   1.624   6.655
  169DOPC   C2220517   0.276   1.563   6.419
  169DOPC   H2R20518   0.173   1.605   6.408
  169DOPC   H2S20519   0.276   1.459   6.382
  169DOPC    C320520   0.555   1.351   6.735
  169DOPC    HX20521   0.554   1.294   6.830
  169DOPC    HY20522   0.632   1.430   6.747
  169DOPC   O3120523   0.583   1.259   6.626
  169DOPC   C3120524   0.655   1.312   6.527
  169DOPC   O3220525   0.714   1.419   6.531
  169DOPC   C3220526   0.646   1.225   6.401
  169DOPC   H2X20527   0.555   1.162   6.407
  169DOPC   H2Y20528   0.634   1.296   6.317
  169DOPC   C2320529   0.376   1.648   6.339
  169DOPC   H3R20530   0.479   1.634   6.377
  169DOPC   H3S20531   0.350   1.755   6.351
  169DOPC   C2420532   0.378   1.613   6.189
  169DOPC   H4R20533   0.424   1.698   6.134
  169DOPC   H4S20534   0.274   1.602   6.151
  169DOPC   C2520535   0.460   1.487   6.157
  169DOPC   H5R20536   0.409   1.397   6.198
  169DOPC   H5S20537   0.558   1.497   6.207
  169DOPC   C2620538   0.485   1.469   6.006
  169DOPC   H6R20539   0.559   1.387   5.991
  169DOPC   H6S20540   0.531   1.562   5.967
  169DOPC   C2720541   0.359   1.435   5.926
  169DOPC   H7R20542   0.279   1.509   5.947
  169DOPC   H7S20543   0.321   1.336   5.960
  169DOPC   C2820544   0.383   1.429   5.774
  169DOPC   H8R20545   0.292   1.389   5.725
  169DOPC   H8S20546   0.465   1.356   5.753
  169DOPC   C2920547   0.416   1.564   5.717
  169DOPC   H9R20548   0.362   1.647   5.764
  169DOPC  C21020549   0.503   1.593   5.619
  169DOPC  H10R20550   0.511   1.698   5.588
  169DOPC  C21120551   0.590   1.499   5.541
  169DOPC  H11R20552   0.629   1.552   5.452
  169DOPC  H11S20553   0.531   1.413   5.504
  169DOPC  C21220554   0.711   1.444   5.620
  169DOPC  H12R20555   0.675   1.369   5.693
  169DOPC  H12S20556   0.758   1.527   5.678
  169DOPC  C21320557   0.822   1.381   5.533
  169DOPC  H13R20558   0.888   1.324   5.602
  169DOPC  H13S20559   0.882   1.461   5.487
  169DOPC  C21420560   0.774   1.284   5.423
  169DOPC  H14R20561   0.675   1.243   5.452
  169DOPC  H14S20562   0.844   1.198   5.418
  169DOPC  C21520563   0.766   1.346   5.282
  169DOPC  H15R20564   0.708   1.441   5.287
  169DOPC  H15S20565   0.711   1.277   5.215
  169DOPC  C21620566   0.903   1.372   5.219
  169DOPC  H16R20567   0.954   1.274   5.205
  169DOPC  H16S20568   0.966   1.432   5.289
  169DOPC  C21720569   0.897   1.446   5.085
  169DOPC  H17R20570   0.825   1.395   5.018
  169DOPC  H17S20571   0.997   1.439   5.036
  169DOPC  C21820572   0.861   1.594   5.099
  169DOPC  H18R20573   0.927   1.643   5.174
  169DOPC  H18S20574   0.756   1.606   5.131
  169DOPC  H18T20575   0.874   1.647   5.002
  169DOPC   C3320576   0.773   1.140   6.376
  169DOPC   H3X20577   0.860   1.180   6.433
  169DOPC   H3Y20578   0.801   1.148   6.268
  169DOPC   C3420579   0.755   0.991   6.408
  169DOPC   H4X20580   0.727   0.981   6.515
  169DOPC   H4Y20581   0.854   0.941   6.396
  169DOPC   C3520582   0.653   0.914   6.321
  169DOPC   H5X20583   0.550   0.948   6.344
  169DOPC   H5Y20584   0.661   0.808   6.351
  169DOPC   C3620585   0.677   0.920   6.169
  169DOPC   H6X20586   0.786   0.932   6.151
  169DOPC   H6Y20587   0.648   0.823   6.123
  169DOPC   C3720588   0.601   1.032   6.096
  169DOPC   H7X20589   0.613   1.127   6.151
  169DOPC   H7Y20590   0.646   1.048   5.996
  169DOPC   C3820591   0.450   1.006   6.076
  169DOPC   H8X20592   0.401   1.105   6.058
  169DOPC   H8Y20593   0.406   0.968   6.170
  169DOPC   C3920594   0.420   0.913   5.961
  169DOPC   H9X20595   0.408   0.807   5.988
  169DOPC  C31020596   0.409   0.947   5.832
  169DOPC  H10X20597   0.386   0.868   5.758
  169DOPC  C31120598   0.423   1.085   5.773
  169DOPC  H11X20599   0.454   1.158   5.852
  169DOPC  H11Y20600   0.326   1.120   5.733
  169DOPC  C31220601   0.530   1.091   5.662
  169DOPC  H12X20602   0.629   1.062   5.704
  169DOPC  H12Y20603   0.539   1.196   5.628
  169DOPC  C31320604   0.501   1.004   5.538
  169DOPC  H13X20605   0.582   1.021   5.464
  169DOPC  H13Y20606   0.506   0.897   5.568
  169DOPC  C31420607   0.365   1.030   5.471
  169DOPC  H14X20608   0.355   0.956   5.388
  169DOPC  H14Y20609   0.284   1.010   5.543
  169DOPC  C31520610   0.347   1.170   5.411
  169DOPC  H15X20611   0.377   1.248   5.484
  169DOPC  H15Y20612   0.239   1.185   5.389
  169DOPC  C31620613   0.425   1.188   5.280
  169DOPC  H16X20614   0.532   1.163   5.297
  169DOPC  H16Y20615   0.386   1.114   5.206
  169DOPC  C31720616   0.417   1.328   5.217
  169DOPC  H17X20617   0.462   1.402   5.287
  169DOPC  H17Y20618   0.478   1.328   5.125
  169DOPC  C31820619   0.275   1.373   5.182
  169DOPC  H18X20620   0.226   1.299   5.116
  169DOPC  H18Y20621   0.214   1.385   5.274
  169DOPC  H18Z20622   0.277   1.471   5.129
  170DOPC     N20623   7.000   7.102   6.819
  170DOPC   C1220624   6.987   7.010   6.940
  170DOPC  H12A20625   6.967   7.072   7.027
  170DOPC  H12B20626   7.083   6.962   6.956
  170DOPC   C1320627   7.126   7.182   6.833
  170DOPC  H13A20628   7.143   7.245   6.747
  170DOPC  H13B20629   7.124   7.243   6.922
  170DOPC  H13C20630   7.211   7.115   6.841
  170DOPC   C1420631   6.883   7.194   6.813
  170DOPC  H14A20632   6.793   7.135   6.807
  170DOPC  H14B20633   6.876   7.252   6.904
  170DOPC  H14C20634   6.888   7.261   6.729
  170DOPC   C1520635   7.008   7.020   6.694
  170DOPC  H15A20636   7.014   7.081   6.606
  170DOPC  H15B20637   6.922   6.955   6.687
  170DOPC  H15C20638   7.096   6.957   6.696
  170DOPC   C1120639   6.879   6.899   6.937
  170DOPC  H11A20640   6.901   6.829   6.853
  170DOPC  H11B20641   6.886   6.838   7.029
  170DOPC     P20642   6.670   7.011   7.043
  170DOPC   O1320643   6.740   7.132   7.091
  170DOPC   O1420644   6.642   6.903   7.140
  170DOPC   O1220645   6.748   6.952   6.919
  170DOPC   O1120646   6.532   7.052   6.977
  170DOPC    C120647   6.524   7.160   6.883
  170DOPC    HA20648   6.619   7.216   6.872
  170DOPC    HB20649   6.449   7.232   6.920
  170DOPC    C220650   6.479   7.113   6.741
  170DOPC    HS20651   6.379   7.066   6.752
  170DOPC   O2120652   6.574   7.022   6.683
  170DOPC   C2120653   6.554   6.894   6.712
  170DOPC   O2220654   6.462   6.851   6.781
  170DOPC   C2220655   6.661   6.808   6.647
  170DOPC   H2R20656   6.697   6.737   6.725
  170DOPC   H2S20657   6.747   6.872   6.616
  170DOPC    C320658   6.461   7.234   6.646
  170DOPC    HX20659   6.398   7.310   6.697
  170DOPC    HY20660   6.404   7.200   6.557
  170DOPC   O3120661   6.589   7.293   6.614
  170DOPC   C3120662   6.634   7.269   6.491
  170DOPC   O3220663   6.569   7.222   6.400
  170DOPC   C3220664   6.781   7.308   6.482
  170DOPC   H2X20665   6.838   7.234   6.543
  170DOPC   H2Y20666   6.811   7.295   6.376
  170DOPC   C2320667   6.606   6.728   6.527
  170DOPC   H3R20668   6.514   6.674   6.556
  170DOPC   H3S20669   6.681   6.651   6.499
  170DOPC   C2420670   6.580   6.816   6.404
  170DOPC   H4R20671   6.674   6.864   6.372
  170DOPC   H4S20672   6.508   6.897   6.430
  170DOPC   C2520673   6.523   6.734   6.288
  170DOPC   H5R20674   6.425   6.690   6.319
  170DOPC   H5S20675   6.592   6.649   6.268
  170DOPC   C2620676   6.504   6.812   6.157
  170DOPC   H6R20677   6.456   6.744   6.083
  170DOPC   H6S20678   6.604   6.839   6.117
  170DOPC   C2720679   6.419   6.939   6.170
  170DOPC   H7R20680   6.477   7.017   6.224
  170DOPC   H7S20681   6.329   6.916   6.232
  170DOPC   C2820682   6.371   6.996   6.035
  170DOPC   H8R20683   6.314   7.089   6.054
  170DOPC   H8S20684   6.298   6.924   5.991
  170DOPC   C2920685   6.484   7.018   5.938
  170DOPC   H9R20686   6.519   6.927   5.887
  170DOPC  C21020687   6.544   7.135   5.909
  170DOPC  H10R20688   6.624   7.135   5.834
  170DOPC  C21120689   6.512   7.271   5.967
  170DOPC  H11R20690   6.606   7.322   5.997
  170DOPC  H11S20691   6.451   7.262   6.060
  170DOPC  C21220692   6.436   7.359   5.866
  170DOPC  H12R20693   6.411   7.456   5.915
  170DOPC  H12S20694   6.340   7.309   5.841
  170DOPC  C21320695   6.512   7.389   5.736
  170DOPC  H13R20696   6.440   7.435   5.665
  170DOPC  H13S20697   6.547   7.294   5.689
  170DOPC  C21420698   6.630   7.486   5.752
  170DOPC  H14R20699   6.704   7.446   5.825
  170DOPC  H14S20700   6.590   7.581   5.793
  170DOPC  C21520701   6.700   7.514   5.618
  170DOPC  H15R20702   6.745   7.616   5.621
  170DOPC  H15S20703   6.623   7.514   5.538
  170DOPC  C21620704   6.808   7.412   5.582
  170DOPC  H16R20705   6.773   7.312   5.615
  170DOPC  H16S20706   6.901   7.435   5.638
  170DOPC  C21720707   6.837   7.405   5.431
  170DOPC  H17R20708   6.744   7.371   5.379
  170DOPC  H17S20709   6.914   7.327   5.413
  170DOPC  C21820710   6.883   7.536   5.367
  170DOPC  H18R20711   6.901   7.523   5.258
  170DOPC  H18S20712   6.978   7.571   5.414
  170DOPC  H18T20713   6.806   7.616   5.380
  170DOPC   C3320714   6.810   7.452   6.530
  170DOPC   H3X20715   6.763   7.471   6.628
  170DOPC   H3Y20716   6.765   7.524   6.458
  170DOPC   C3420717   6.960   7.484   6.543
  170DOPC   H4X20718   7.001   7.430   6.631
  170DOPC   H4Y20719   6.972   7.592   6.562
  170DOPC   C3520720   7.045   7.446   6.420
  170DOPC   H5X20721   7.048   7.335   6.410
  170DOPC   H5Y20722   7.150   7.479   6.437
  170DOPC   C3620723   6.994   7.505   6.288
  170DOPC   H6X20724   6.891   7.470   6.269
  170DOPC   H6Y20725   6.991   7.616   6.294
  170DOPC   C3720726   7.084   7.463   6.170
  170DOPC   H7X20727   7.171   7.532   6.168
  170DOPC   H7Y20728   7.122   7.361   6.188
  170DOPC   C3820729   7.016   7.466   6.032
  170DOPC   H8X20730   7.094   7.453   5.955
  170DOPC   H8Y20731   6.972   7.567   6.016
  170DOPC   C3920732   6.909   7.360   6.019
  170DOPC   H9X20733   6.816   7.381   6.074
  170DOPC  C31020734   6.919   7.246   5.949
  170DOPC  H10X20735   6.834   7.176   5.949
  170DOPC  C31120736   7.038   7.202   5.868
  170DOPC  H11X20737   7.127   7.193   5.934
  170DOPC  H11Y20738   7.063   7.277   5.790
  170DOPC  C31220739   7.015   7.066   5.799
  170DOPC  H12X20740   6.988   6.989   5.875
  170DOPC  H12Y20741   7.110   7.033   5.752
  170DOPC  C31320742   6.906   7.070   5.691
  170DOPC  H13X20743   6.812   7.111   5.733
  170DOPC  H13Y20744   6.939   7.139   5.610
  170DOPC  C31420745   6.875   6.933   5.630
  170DOPC  H14X20746   6.965   6.897   5.576
  170DOPC  H14Y20747   6.855   6.860   5.713
  170DOPC  C31520748   6.754   6.932   5.535
  170DOPC  H15X20749   6.661   6.945   5.594
  170DOPC  H15Y20750   6.749   6.832   5.486
  170DOPC  C31620751   6.757   7.041   5.427
  170DOPC  H16X20752   6.749   7.140   5.477
  170DOPC  H16Y20753   6.855   7.039   5.374
  170DOPC  C31720754   6.644   7.032   5.323
  170DOPC  H17X20755   6.547   7.027   5.376
  170DOPC  H17Y20756   6.644   7.125   5.263
  170DOPC  C31820757   6.657   6.913   5.227
  170DOPC  H18X20758   6.577   6.916   5.151
  170DOPC  H18Y20759   6.755   6.916   5.175
  170DOPC  H18Z20760   6.650   6.817   5.282
  171DOPC     N20761   3.943   2.985   2.931
  171DOPC   C1220762   3.829   2.987   3.032
  171DOPC  H12A20763   3.846   3.066   3.103
  171DOPC  H12B20764   3.828   2.894   3.086
  171DOPC   C1320765   3.912   2.893   2.817
  171DOPC  H13A20766   3.895   2.792   2.852
  171DOPC  H13B20767   3.824   2.927   2.766
  171DOPC  H13C20768   3.993   2.890   2.746
  171DOPC   C1420769   4.074   2.944   2.993
  171DOPC  H14A20770   4.077   2.841   3.022
  171DOPC  H14B20771   4.153   2.958   2.920
  171DOPC  H14C20772   4.101   3.009   3.075
  171DOPC   C1520773   3.965   3.122   2.874
  171DOPC  H15A20774   4.046   3.121   2.802
  171DOPC  H15B20775   3.991   3.193   2.951
  171DOPC  H15C20776   3.875   3.158   2.827
  171DOPC   C1120777   3.686   3.011   2.976
  171DOPC  H11A20778   3.659   2.929   2.906
  171DOPC  H11B20779   3.613   3.006   3.059
  171DOPC     P20780   3.667   3.273   2.986
  171DOPC   O1320781   3.526   3.318   2.977
  171DOPC   O1420782   3.773   3.362   2.935
  171DOPC   O1220783   3.677   3.136   2.907
  171DOPC   O1120784   3.700   3.231   3.135
  171DOPC    C120785   3.757   3.326   3.226
  171DOPC    HA20786   3.710   3.313   3.326
  171DOPC    HB20787   3.738   3.431   3.196
  171DOPC    C220788   3.910   3.305   3.242
  171DOPC    HS20789   3.951   3.296   3.139
  171DOPC   O2120790   3.933   3.184   3.318
  171DOPC   C2120791   4.054   3.134   3.303
  171DOPC   O2220792   4.136   3.172   3.222
  171DOPC   C2220793   4.078   3.014   3.396
  171DOPC   H2R20794   4.185   3.020   3.427
  171DOPC   H2S20795   4.063   2.922   3.337
  171DOPC    C320796   3.977   3.428   3.309
  171DOPC    HX20797   3.968   3.512   3.237
  171DOPC    HY20798   4.086   3.411   3.323
  171DOPC   O3120799   3.910   3.467   3.431
  171DOPC   C3120800   3.959   3.416   3.543
  171DOPC   O3220801   4.058   3.348   3.554
  171DOPC   C3220802   3.869   3.461   3.660
  171DOPC   H2X20803   3.922   3.435   3.754
  171DOPC   H2Y20804   3.859   3.571   3.653
  171DOPC   C2320805   3.989   3.010   3.523
  171DOPC   H3R20806   3.884   2.991   3.495
  171DOPC   H3S20807   3.993   3.109   3.575
  171DOPC   C2420808   4.037   2.903   3.622
  171DOPC   H4R20809   4.142   2.925   3.651
  171DOPC   H4S20810   4.035   2.804   3.572
  171DOPC   C2520811   3.951   2.898   3.748
  171DOPC   H5R20812   3.846   2.875   3.719
  171DOPC   H5S20813   3.951   2.999   3.796
  171DOPC   C2620814   3.999   2.794   3.850
  171DOPC   H6R20815   4.101   2.820   3.885
  171DOPC   H6S20816   4.005   2.695   3.798
  171DOPC   C2720817   3.905   2.778   3.970
  171DOPC   H7R20818   3.931   2.686   4.026
  171DOPC   H7S20819   3.802   2.765   3.931
  171DOPC   C2820820   3.904   2.899   4.067
  171DOPC   H8R20821   3.816   2.888   4.133
  171DOPC   H8S20822   3.888   2.992   4.009
  171DOPC   C2920823   4.029   2.907   4.152
  171DOPC   H9R20824   4.042   2.822   4.221
  171DOPC  C21020825   4.122   3.003   4.151
  171DOPC  H10R20826   4.207   2.996   4.221
  171DOPC  C21120827   4.124   3.126   4.063
  171DOPC  H11R20828   4.085   3.103   3.962
  171DOPC  H11S20829   4.229   3.160   4.049
  171DOPC  C21220830   4.043   3.244   4.120
  171DOPC  H12R20831   3.935   3.217   4.120
  171DOPC  H12S20832   4.055   3.331   4.052
  171DOPC  C21320833   4.084   3.288   4.262
  171DOPC  H13R20834   4.194   3.300   4.266
  171DOPC  H13S20835   4.056   3.208   4.334
  171DOPC  C21420836   4.018   3.420   4.306
  171DOPC  H14R20837   3.907   3.411   4.299
  171DOPC  H14S20838   4.049   3.499   4.235
  171DOPC  C21520839   4.057   3.462   4.448
  171DOPC  H15R20840   4.045   3.573   4.457
  171DOPC  H15S20841   4.164   3.439   4.466
  171DOPC  C21620842   3.969   3.397   4.556
  171DOPC  H16R20843   3.970   3.287   4.544
  171DOPC  H16S20844   3.865   3.432   4.540
  171DOPC  C21720845   4.011   3.432   4.700
  171DOPC  H17R20846   3.921   3.426   4.765
  171DOPC  H17S20847   4.047   3.537   4.703
  171DOPC  C21820848   4.118   3.338   4.757
  171DOPC  H18R20849   4.078   3.234   4.763
  171DOPC  H18S20850   4.148   3.370   4.859
  171DOPC  H18T20851   4.207   3.337   4.692
  171DOPC   C3320852   3.729   3.394   3.656
  171DOPC   H3X20853   3.737   3.287   3.685
  171DOPC   H3Y20854   3.690   3.398   3.552
  171DOPC   C3420855   3.626   3.466   3.745
  171DOPC   H4X20856   3.526   3.419   3.728
  171DOPC   H4Y20857   3.619   3.572   3.712
  171DOPC   C3520858   3.654   3.463   3.896
  171DOPC   H5X20859   3.588   3.537   3.945
  171DOPC   H5Y20860   3.759   3.493   3.915
  171DOPC   C3620861   3.625   3.326   3.959
  171DOPC   H6X20862   3.519   3.300   3.943
  171DOPC   H6Y20863   3.687   3.249   3.909
  171DOPC   C3720864   3.656   3.324   4.109
  171DOPC   H7X20865   3.764   3.350   4.121
  171DOPC   H7Y20866   3.598   3.402   4.162
  171DOPC   C3820867   3.626   3.186   4.173
  171DOPC   H8X20868   3.642   3.108   4.095
  171DOPC   H8Y20869   3.518   3.182   4.199
  171DOPC   C3920870   3.713   3.154   4.291
  171DOPC   H9X20871   3.793   3.081   4.271
  171DOPC  C31020872   3.706   3.208   4.414
  171DOPC  H10X20873   3.778   3.175   4.490
  171DOPC  C31120874   3.608   3.312   4.461
  171DOPC  H11X20875   3.523   3.324   4.392
  171DOPC  H11Y20876   3.658   3.411   4.467
  171DOPC  C31220877   3.556   3.276   4.601
  171DOPC  H12X20878   3.642   3.261   4.670
  171DOPC  H12Y20879   3.501   3.180   4.596
  171DOPC  C31320880   3.464   3.384   4.661
  171DOPC  H13X20881   3.524   3.477   4.674
  171DOPC  H13Y20882   3.383   3.406   4.588
  171DOPC  C31420883   3.399   3.345   4.795
  171DOPC  H14X20884   3.346   3.434   4.836
  171DOPC  H14Y20885   3.323   3.267   4.776
  171DOPC  C31520886   3.497   3.292   4.901
  171DOPC  H15X20887   3.544   3.198   4.864
  171DOPC  H15Y20888   3.439   3.265   4.993
  171DOPC  C31620889   3.607   3.392   4.940
  171DOPC  H16X20890   3.668   3.418   4.851
  171DOPC  H16Y20891   3.558   3.486   4.975
  171DOPC  C31720892   3.700   3.340   5.051
  171DOPC  H17X20893   3.763   3.425   5.086
  171DOPC  H17Y20894   3.637   3.308   5.137
  171DOPC  C31820895   3.790   3.225   5.008
  171DOPC  H18X20896   3.853   3.255   4.921
  171DOPC  H18Y20897   3.858   3.195   5.091
  171DOPC  H18Z20898   3.730   3.137   4.978
  172DOPC     N20899   3.133   4.372   2.905
  172DOPC   C1220900   3.087   4.365   3.050
  172DOPC  H12A20901   3.103   4.460   3.099
  172DOPC  H12B20902   3.149   4.294   3.104
  172DOPC   C1320903   3.099   4.246   2.831
  172DOPC  H13A20904   3.146   4.160   2.875
  172DOPC  H13B20905   2.992   4.230   2.830
  172DOPC  H13C20906   3.132   4.251   2.728
  172DOPC   C1420907   3.282   4.391   2.895
  172DOPC  H14A20908   3.334   4.309   2.941
  172DOPC  H14B20909   3.312   4.393   2.791
  172DOPC  H14C20910   3.313   4.483   2.942
  172DOPC   C1520911   3.066   4.487   2.834
  172DOPC  H15A20912   3.097   4.582   2.874
  172DOPC  H15B20913   2.959   4.480   2.850
  172DOPC  H15C20914   3.086   4.485   2.728
  172DOPC   C1120915   2.939   4.328   3.077
  172DOPC  H11A20916   2.917   4.229   3.032
  172DOPC  H11B20917   2.924   4.317   3.186
  172DOPC     P20918   2.816   4.558   3.101
  172DOPC   O1320919   2.700   4.531   3.188
  172DOPC   O1420920   2.800   4.664   2.999
  172DOPC   O1220921   2.849   4.425   3.022
  172DOPC   O1120922   2.949   4.582   3.185
  172DOPC    C120923   2.997   4.716   3.205
  172DOPC    HA20924   2.930   4.772   3.272
  172DOPC    HB20925   3.004   4.771   3.109
  172DOPC    C220926   3.139   4.716   3.268
  172DOPC    HS20927   3.205   4.650   3.206
  172DOPC   O2120928   3.132   4.673   3.405
  172DOPC   C2120929   3.155   4.545   3.428
  172DOPC   O2220930   3.189   4.462   3.345
  172DOPC   C2220931   3.136   4.519   3.578
  172DOPC   H2R20932   3.152   4.410   3.597
  172DOPC   H2S20933   3.030   4.543   3.601
  172DOPC    C320934   3.202   4.858   3.264
  172DOPC    HX20935   3.212   4.888   3.157
  172DOPC    HY20936   3.306   4.852   3.305
  172DOPC   O3120937   3.119   4.954   3.333
  172DOPC   C3120938   3.144   4.964   3.464
  172DOPC   O3220939   3.248   4.933   3.518
  172DOPC   C3220940   3.018   5.011   3.536
  172DOPC   H2X20941   3.041   5.108   3.586
  172DOPC   H2Y20942   2.937   5.026   3.462
  172DOPC   C2320943   3.229   4.603   3.669
  172DOPC   H3R20944   3.235   4.706   3.628
  172DOPC   H3S20945   3.332   4.562   3.668
  172DOPC   C2420946   3.179   4.617   3.814
  172DOPC   H4R20947   3.073   4.649   3.811
  172DOPC   H4S20948   3.236   4.699   3.864
  172DOPC   C2520949   3.190   4.490   3.900
  172DOPC   H5R20950   3.143   4.406   3.846
  172DOPC   H5S20951   3.130   4.506   3.993
  172DOPC   C2620952   3.333   4.450   3.943
  172DOPC   H6R20953   3.392   4.427   3.852
  172DOPC   H6S20954   3.326   4.356   4.002
  172DOPC   C2720955   3.410   4.554   4.028
  172DOPC   H7R20956   3.436   4.640   3.962
  172DOPC   H7S20957   3.506   4.508   4.060
  172DOPC   C2820958   3.337   4.609   4.152
  172DOPC   H8R20959   3.248   4.665   4.117
  172DOPC   H8S20960   3.404   4.684   4.199
  172DOPC   C2920961   3.294   4.504   4.251
  172DOPC   H9R20962   3.233   4.424   4.207
  172DOPC  C21020963   3.319   4.499   4.384
  172DOPC  H10R20964   3.278   4.414   4.441
  172DOPC  C21120965   3.397   4.596   4.468
  172DOPC  H11R20966   3.447   4.673   4.406
  172DOPC  H11S20967   3.478   4.542   4.522
  172DOPC  C21220968   3.312   4.672   4.574
  172DOPC  H12R20969   3.235   4.731   4.520
  172DOPC  H12S20970   3.377   4.744   4.627
  172DOPC  C21320971   3.241   4.583   4.678
  172DOPC  H13R20972   3.179   4.508   4.625
  172DOPC  H13S20973   3.171   4.647   4.737
  172DOPC  C21420974   3.334   4.510   4.776
  172DOPC  H14R20975   3.416   4.462   4.719
  172DOPC  H14S20976   3.276   4.429   4.826
  172DOPC  C21520977   3.394   4.598   4.887
  172DOPC  H15R20978   3.439   4.690   4.844
  172DOPC  H15S20979   3.476   4.541   4.936
  172DOPC  C21620980   3.292   4.637   4.996
  172DOPC  H16R20981   3.240   4.545   5.031
  172DOPC  H16S20982   3.215   4.704   4.953
  172DOPC  C21720983   3.357   4.706   5.117
  172DOPC  H17R20984   3.405   4.800   5.083
  172DOPC  H17S20985   3.438   4.640   5.156
  172DOPC  C21820986   3.258   4.736   5.230
  172DOPC  H18R20987   3.212   4.642   5.267
  172DOPC  H18S20988   3.178   4.804   5.194
  172DOPC  H18T20989   3.310   4.786   5.315
  172DOPC   C3320990   2.974   4.907   3.642
  172DOPC   H3X20991   3.046   4.906   3.726
  172DOPC   H3Y20992   2.975   4.805   3.597
  172DOPC   C3420993   2.832   4.934   3.693
  172DOPC   H4X20994   2.763   4.932   3.607
  172DOPC   H4Y20995   2.828   5.035   3.739
  172DOPC   C3520996   2.785   4.829   3.795
  172DOPC   H5X20997   2.803   4.727   3.754
  172DOPC   H5Y20998   2.675   4.840   3.809
  172DOPC   C3620999   2.851   4.841   3.933
  172DOPC   H6X21000   2.959   4.815   3.921
  172DOPC   H6Y21001   2.846   4.946   3.968
  172DOPC   C3721002   2.787   4.750   4.039
  172DOPC   H7X21003   2.722   4.810   4.106
  172DOPC   H7Y21004   2.721   4.677   3.988
  172DOPC   C3821005   2.888   4.670   4.123
  172DOPC   H8X21006   2.942   4.602   4.054
  172DOPC   H8Y21007   2.831   4.606   4.193
  172DOPC   C3921008   2.987   4.759   4.195
  172DOPC   H9X21009   3.045   4.824   4.128
  172DOPC  C31021010   3.010   4.766   4.327
  172DOPC  H10X21011   3.088   4.835   4.362
  172DOPC  C31121012   2.944   4.686   4.436
  172DOPC  H11X21013   3.011   4.603   4.466
  172DOPC  H11Y21014   2.848   4.640   4.403
  172DOPC  C31221015   2.916   4.773   4.560
  172DOPC  H12X21016   2.838   4.848   4.536
  172DOPC  H12Y21017   3.009   4.828   4.589
  172DOPC  C31321018   2.871   4.688   4.680
  172DOPC  H13X21019   2.779   4.632   4.651
  172DOPC  H13Y21020   2.950   4.612   4.701
  172DOPC  C31421021   2.844   4.768   4.807
  172DOPC  H14X21022   2.755   4.834   4.791
  172DOPC  H14Y21023   2.818   4.696   4.887
  172DOPC  C31521024   2.961   4.854   4.856
  172DOPC  H15X21025   2.956   4.955   4.810
  172DOPC  H15Y21026   3.056   4.807   4.822
  172DOPC  C31621027   2.968   4.866   5.009
  172DOPC  H16X21028   2.972   4.763   5.050
  172DOPC  H16Y21029   3.063   4.916   5.038
  172DOPC  C31721030   2.851   4.941   5.074
  172DOPC  H17X21031   2.756   4.911   5.026
  172DOPC  H17Y21032   2.845   4.911   5.181
  172DOPC  C31821033   2.867   5.094   5.069
  172DOPC  H18X21034   2.778   5.144   5.114
  172DOPC  H18Y21035   2.957   5.125   5.126
  172DOPC  H18Z21036   2.879   5.128   4.965
  173DOPC     N21037   2.226   3.010   2.897
  173DOPC   C1221038   2.328   3.062   2.998
  173DOPC  H12A21039   2.396   3.129   2.947
  173DOPC  H12B21040   2.390   2.980   3.031
  173DOPC   C1321041   2.291   2.918   2.799
  173DOPC  H13A21042   2.220   2.878   2.728
  173DOPC  H13B21043   2.370   2.967   2.744
  173DOPC  H13C21044   2.336   2.832   2.847
  173DOPC   C1421045   2.169   3.128   2.824
  173DOPC  H14A21046   2.132   3.198   2.897
  173DOPC  H14B21047   2.245   3.178   2.766
  173DOPC  H14C21048   2.088   3.099   2.758
  173DOPC   C1521049   2.116   2.938   2.968
  173DOPC  H15A21050   2.071   3.005   3.040
  173DOPC  H15B21051   2.154   2.852   3.021
  173DOPC  H15C21052   2.040   2.905   2.899
  173DOPC   C1121053   2.273   3.136   3.124
  173DOPC  H11A21054   2.227   3.061   3.191
  173DOPC  H11B21055   2.359   3.180   3.177
  173DOPC     P21056   2.124   3.336   3.200
  173DOPC   O1321057   2.016   3.416   3.137
  173DOPC   O1421058   2.238   3.412   3.254
  173DOPC   O1221059   2.177   3.237   3.089
  173DOPC   O1121060   2.065   3.241   3.309
  173DOPC    C121061   1.956   3.151   3.288
  173DOPC    HA21062   1.966   3.069   3.362
  173DOPC    HB21063   1.960   3.103   3.187
  173DOPC    C221064   1.816   3.216   3.309
  173DOPC    HS21065   1.787   3.260   3.212
  173DOPC   O2121066   1.826   3.319   3.410
  173DOPC   C2121067   1.738   3.415   3.405
  173DOPC   O2221068   1.656   3.433   3.315
  173DOPC   C2221069   1.757   3.510   3.523
  173DOPC   H2R21070   1.709   3.464   3.612
  173DOPC   H2S21071   1.702   3.603   3.498
  173DOPC    C321072   1.707   3.111   3.351
  173DOPC    HX21073   1.695   3.041   3.265
  173DOPC    HY21074   1.609   3.161   3.365
  173DOPC   O3121075   1.747   3.035   3.467
  173DOPC   C3121076   1.722   3.090   3.585
  173DOPC   O3221077   1.660   3.193   3.604
  173DOPC   C3221078   1.783   3.001   3.695
  173DOPC   H2X21079   1.766   2.895   3.667
  173DOPC   H2Y21080   1.892   3.020   3.694
  173DOPC   C2321081   1.906   3.543   3.554
  173DOPC   H3R21082   1.911   3.644   3.600
  173DOPC   H3S21083   1.967   3.545   3.462
  173DOPC   C2421084   1.967   3.444   3.655
  173DOPC   H4R21085   1.961   3.341   3.616
  173DOPC   H4S21086   1.907   3.448   3.749
  173DOPC   C2521087   2.114   3.475   3.688
  173DOPC   H5R21088   2.128   3.584   3.700
  173DOPC   H5S21089   2.176   3.442   3.601
  173DOPC   C2621090   2.163   3.404   3.816
  173DOPC   H6R21091   2.274   3.403   3.817
  173DOPC   H6S21092   2.127   3.299   3.813
  173DOPC   C2721093   2.113   3.475   3.943
  173DOPC   H7R21094   2.004   3.495   3.934
  173DOPC   H7S21095   2.165   3.573   3.949
  173DOPC   C2821096   2.138   3.404   4.077
  173DOPC   H8R21097   2.091   3.466   4.156
  173DOPC   H8S21098   2.247   3.406   4.098
  173DOPC   C2921099   2.086   3.263   4.082
  173DOPC   H9R21100   2.153   3.187   4.037
  173DOPC  C21021101   1.969   3.223   4.133
  173DOPC  H10R21102   1.946   3.115   4.131
  173DOPC  C21121103   1.861   3.308   4.197
  173DOPC  H11R21104   1.766   3.293   4.141
  173DOPC  H11S21105   1.885   3.416   4.191
  173DOPC  C21221106   1.836   3.271   4.345
  173DOPC  H12R21107   1.752   3.333   4.383
  173DOPC  H12S21108   1.925   3.296   4.405
  173DOPC  C21321109   1.801   3.123   4.364
  173DOPC  H13R21110   1.891   3.062   4.338
  173DOPC  H13S21111   1.720   3.094   4.294
  173DOPC  C21421112   1.760   3.084   4.507
  173DOPC  H14R21113   1.662   3.129   4.532
  173DOPC  H14S21114   1.836   3.125   4.578
  173DOPC  C21521115   1.755   2.931   4.520
  173DOPC  H15R21116   1.857   2.892   4.500
  173DOPC  H15S21117   1.689   2.890   4.440
  173DOPC  C21621118   1.708   2.876   4.656
  173DOPC  H16R21119   1.724   2.766   4.656
  173DOPC  H16S21120   1.599   2.893   4.665
  173DOPC  C21721121   1.779   2.936   4.778
  173DOPC  H17R21122   1.740   2.887   4.869
  173DOPC  H17S21123   1.753   3.044   4.785
  173DOPC  C21821124   1.931   2.923   4.775
  173DOPC  H18R21125   1.976   2.983   4.693
  173DOPC  H18S21126   1.960   2.817   4.760
  173DOPC  H18T21127   1.975   2.958   4.871
  173DOPC   C3321128   1.726   3.030   3.836
  173DOPC   H3X21129   1.620   2.997   3.843
  173DOPC   H3Y21130   1.728   3.139   3.854
  173DOPC   C3421131   1.807   2.964   3.949
  173DOPC   H4X21132   1.775   3.006   4.047
  173DOPC   H4Y21133   1.914   2.991   3.935
  173DOPC   C3521134   1.795   2.811   3.958
  173DOPC   H5X21135   1.799   2.770   3.855
  173DOPC   H5Y21136   1.697   2.783   4.001
  173DOPC   C3621137   1.910   2.745   4.037
  173DOPC   H6X21138   1.905   2.635   4.021
  173DOPC   H6Y21139   2.006   2.781   3.996
  173DOPC   C3721140   1.910   2.771   4.189
  173DOPC   H7X21141   1.916   2.880   4.208
  173DOPC   H7Y21142   1.814   2.734   4.232
  173DOPC   C3821143   2.029   2.700   4.257
  173DOPC   H8X21144   2.123   2.740   4.211
  173DOPC   H8Y21145   2.024   2.593   4.228
  173DOPC   C3921146   2.033   2.708   4.407
  173DOPC   H9X21147   1.956   2.648   4.458
  173DOPC  C31021148   2.119   2.778   4.484
  173DOPC  H10X21149   2.109   2.772   4.593
  173DOPC  C31121150   2.231   2.868   4.437
  173DOPC  H11X21151   2.222   2.891   4.328
  173DOPC  H11Y21152   2.329   2.818   4.451
  173DOPC  C31221153   2.233   3.003   4.512
  173DOPC  H12X21154   2.132   3.049   4.511
  173DOPC  H12Y21155   2.300   3.072   4.456
  173DOPC  C31321156   2.285   2.994   4.656
  173DOPC  H13X21157   2.223   2.923   4.715
  173DOPC  H13Y21158   2.389   2.953   4.653
  173DOPC  C31421159   2.288   3.130   4.727
  173DOPC  H14X21160   2.338   3.203   4.659
  173DOPC  H14Y21161   2.184   3.167   4.742
  173DOPC  C31521162   2.364   3.130   4.861
  173DOPC  H15X21163   2.380   3.236   4.892
  173DOPC  H15Y21164   2.465   3.086   4.844
  173DOPC  C31621165   2.295   3.054   4.975
  173DOPC  H16X21166   2.274   2.951   4.941
  173DOPC  H16Y21167   2.365   3.048   5.061
  173DOPC  C31721168   2.164   3.118   5.025
  173DOPC  H17X21169   2.094   3.128   4.940
  173DOPC  H17Y21170   2.117   3.049   5.098
  173DOPC  C31821171   2.181   3.255   5.092
  173DOPC  H18X21172   2.251   3.248   5.178
  173DOPC  H18Y21173   2.221   3.330   5.020
  173DOPC  H18Z21174   2.083   3.292   5.130
  174DOPC     N21175   4.913   2.391   2.941
  174DOPC   C1221176   4.980   2.264   2.890
  174DOPC  H12A21177   5.069   2.291   2.834
  174DOPC  H12B21178   4.916   2.212   2.820
  174DOPC   C1321179   4.838   2.460   2.832
  174DOPC  H13A21180   4.804   2.558   2.863
  174DOPC  H13B21181   4.904   2.477   2.748
  174DOPC  H13C21182   4.754   2.402   2.797
  174DOPC   C1421183   5.018   2.485   2.991
  174DOPC  H14A21184   5.084   2.435   3.061
  174DOPC  H14B21185   5.081   2.518   2.909
  174DOPC  H14C21186   4.977   2.574   3.036
  174DOPC   C1521187   4.821   2.355   3.054
  174DOPC  H15A21188   4.880   2.302   3.128
  174DOPC  H15B21189   4.744   2.287   3.021
  174DOPC  H15C21190   4.777   2.442   3.099
  174DOPC   C1121191   5.024   2.158   2.996
  174DOPC  H11A21192   4.933   2.106   3.033
  174DOPC  H11B21193   5.085   2.080   2.947
  174DOPC     P21194   5.248   2.233   3.116
  174DOPC   O1321195   5.278   2.376   3.094
  174DOPC   O1421196   5.312   2.138   3.023
  174DOPC   O1221197   5.090   2.218   3.107
  174DOPC   O1121198   5.277   2.196   3.267
  174DOPC    C121199   5.169   2.176   3.359
  174DOPC    HA21200   5.209   2.136   3.454
  174DOPC    HB21201   5.099   2.098   3.320
  174DOPC    C221202   5.089   2.306   3.391
  174DOPC    HS21203   5.082   2.366   3.298
  174DOPC   O2121204   5.160   2.380   3.491
  174DOPC   C2121205   5.123   2.506   3.504
  174DOPC   O2221206   5.038   2.563   3.438
  174DOPC   C2221207   5.204   2.570   3.617
  174DOPC   H2R21208   5.245   2.666   3.579
  174DOPC   H2S21209   5.288   2.503   3.643
  174DOPC    C321210   4.942   2.274   3.432
  174DOPC    HX21211   4.899   2.218   3.346
  174DOPC    HY21212   4.885   2.369   3.444
  174DOPC   O3121213   4.936   2.198   3.555
  174DOPC   C3121214   4.821   2.132   3.570
  174DOPC   O3221215   4.730   2.131   3.490
  174DOPC   C3221216   4.818   2.059   3.705
  174DOPC   H2X21217   4.744   2.111   3.769
  174DOPC   H2Y21218   4.782   1.956   3.686
  174DOPC   C2321219   5.116   2.595   3.742
  174DOPC   H3R21220   5.037   2.669   3.718
  174DOPC   H3S21221   5.180   2.639   3.821
  174DOPC   C2421222   5.051   2.467   3.796
  174DOPC   H4R21223   5.127   2.386   3.805
  174DOPC   H4S21224   4.974   2.432   3.723
  174DOPC   C2521225   4.984   2.489   3.932
  174DOPC   H5R21226   4.898   2.420   3.943
  174DOPC   H5S21227   4.943   2.593   3.934
  174DOPC   C2621228   5.079   2.468   4.050
  174DOPC   H6R21229   5.180   2.506   4.025
  174DOPC   H6S21230   5.088   2.359   4.070
  174DOPC   C2721231   5.030   2.541   4.176
  174DOPC   H7R21232   4.921   2.527   4.187
  174DOPC   H7S21233   5.047   2.650   4.159
  174DOPC   C2821234   5.102   2.500   4.305
  174DOPC   H8R21235   5.094   2.584   4.377
  174DOPC   H8S21236   5.211   2.487   4.285
  174DOPC   C2921237   5.043   2.373   4.362
  174DOPC   H9R21238   5.071   2.281   4.308
  174DOPC  C21021239   4.960   2.363   4.467
  174DOPC  H10R21240   4.922   2.263   4.494
  174DOPC  C21121241   4.907   2.475   4.554
  174DOPC  H11R21242   4.799   2.490   4.534
  174DOPC  H11S21243   4.956   2.572   4.532
  174DOPC  C21221244   4.925   2.448   4.706
  174DOPC  H12R21245   4.882   2.534   4.761
  174DOPC  H12S21246   5.034   2.446   4.729
  174DOPC  C21321247   4.861   2.318   4.758
  174DOPC  H13R21248   4.883   2.308   4.866
  174DOPC  H13S21249   4.908   2.231   4.708
  174DOPC  C21421250   4.708   2.312   4.739
  174DOPC  H14R21251   4.682   2.333   4.633
  174DOPC  H14S21252   4.661   2.391   4.800
  174DOPC  C21521253   4.647   2.176   4.776
  174DOPC  H15R21254   4.538   2.189   4.793
  174DOPC  H15S21255   4.692   2.140   4.871
  174DOPC  C21621256   4.665   2.073   4.664
  174DOPC  H16R21257   4.774   2.059   4.646
  174DOPC  H16S21258   4.621   2.115   4.571
  174DOPC  C21721259   4.601   1.937   4.692
  174DOPC  H17R21260   4.598   1.879   4.597
  174DOPC  H17S21261   4.496   1.953   4.723
  174DOPC  C21821262   4.675   1.854   4.797
  174DOPC  H18R21263   4.619   1.761   4.820
  174DOPC  H18S21264   4.687   1.911   4.891
  174DOPC  H18T21265   4.776   1.826   4.760
  174DOPC   C3321266   4.954   2.054   3.778
  174DOPC   H3X21267   4.992   2.157   3.796
  174DOPC   H3Y21268   5.029   2.002   3.714
  174DOPC   C3421269   4.945   1.980   3.912
  174DOPC   H4X21270   4.889   1.885   3.896
  174DOPC   H4Y21271   4.887   2.041   3.985
  174DOPC   C3521272   5.082   1.944   3.971
  174DOPC   H5X21273   5.139   1.885   3.897
  174DOPC   H5Y21274   5.068   1.881   4.061
  174DOPC   C3621275   5.165   2.068   4.010
  174DOPC   H6X21276   5.173   2.137   3.924
  174DOPC   H6Y21277   5.113   2.122   4.092
  174DOPC   C3721278   5.307   2.030   4.055
  174DOPC   H7X21279   5.299   1.956   4.137
  174DOPC   H7Y21280   5.360   1.982   3.971
  174DOPC   C3821281   5.386   2.154   4.103
  174DOPC   H8X21282   5.328   2.203   4.184
  174DOPC   H8Y21283   5.391   2.227   4.019
  174DOPC   C3921284   5.524   2.117   4.150
  174DOPC   H9X21285   5.604   2.127   4.076
  174DOPC  C31021286   5.554   2.074   4.274
  174DOPC  H10X21287   5.659   2.051   4.299
  174DOPC  C31121288   5.455   2.054   4.386
  174DOPC  H11X21289   5.485   1.969   4.450
  174DOPC  H11Y21290   5.355   2.026   4.344
  174DOPC  C31221291   5.435   2.179   4.473
  174DOPC  H12X21292   5.415   2.267   4.408
  174DOPC  H12Y21293   5.527   2.200   4.531
  174DOPC  C31321294   5.315   2.162   4.567
  174DOPC  H13X21295   5.230   2.128   4.505
  174DOPC  H13Y21296   5.337   2.082   4.642
  174DOPC  C31421297   5.272   2.291   4.638
  174DOPC  H14X21298   5.251   2.369   4.560
  174DOPC  H14Y21299   5.177   2.272   4.692
  174DOPC  C31521300   5.374   2.348   4.737
  174DOPC  H15X21301   5.335   2.446   4.774
  174DOPC  H15Y21302   5.470   2.368   4.685
  174DOPC  C31621303   5.398   2.257   4.858
  174DOPC  H16X21304   5.300   2.227   4.902
  174DOPC  H16Y21305   5.449   2.164   4.825
  174DOPC  C31721306   5.483   2.325   4.966
  174DOPC  H17X21307   5.580   2.355   4.920
  174DOPC  H17Y21308   5.431   2.418   4.998
  174DOPC  C31821309   5.509   2.238   5.088
  174DOPC  H18X21310   5.563   2.145   5.059
  174DOPC  H18Y21311   5.570   2.292   5.163
  174DOPC  H18Z21312   5.413   2.208   5.136
  175DOPC     N21313   3.174   5.762   2.975
  175DOPC   C1221314   3.179   5.914   2.973
  175DOPC  H12A21315   3.109   5.949   2.899
  175DOPC  H12B21316   3.278   5.945   2.941
  175DOPC   C1321317   3.212   5.710   2.839
  175DOPC  H13A21318   3.146   5.748   2.763
  175DOPC  H13B21319   3.313   5.738   2.813
  175DOPC  H13C21320   3.204   5.602   2.836
  175DOPC   C1421321   3.035   5.716   3.004
  175DOPC  H14A21322   3.026   5.609   2.997
  175DOPC  H14B21323   3.005   5.753   3.102
  175DOPC  H14C21324   2.966   5.762   2.935
  175DOPC   C1521325   3.268   5.705   3.077
  175DOPC  H15A21326   3.370   5.736   3.056
  175DOPC  H15B21327   3.264   5.597   3.076
  175DOPC  H15C21328   3.241   5.741   3.175
  175DOPC   C1121329   3.142   5.990   3.104
  175DOPC  H11A21330   3.204   5.951   3.188
  175DOPC  H11B21331   3.168   6.097   3.093
  175DOPC     P21332   2.895   6.047   3.048
  175DOPC   O1321333   2.898   5.983   2.914
  175DOPC   O1421334   2.918   6.193   3.052
  175DOPC   O1221335   3.004   5.974   3.137
  175DOPC   O1121336   2.758   6.012   3.117
  175DOPC    C121337   2.716   5.878   3.143
  175DOPC    HA21338   2.780   5.801   3.094
  175DOPC    HB21339   2.613   5.864   3.102
  175DOPC    C221340   2.710   5.846   3.295
  175DOPC    HS21341   2.635   5.917   3.338
  175DOPC   O2121342   2.840   5.866   3.352
  175DOPC   C2121343   2.842   5.893   3.481
  175DOPC   O2221344   2.744   5.912   3.551
  175DOPC   C2221345   2.988   5.890   3.527
  175DOPC   H2R21346   3.048   5.951   3.455
  175DOPC   H2S21347   3.021   5.784   3.520
  175DOPC    C321348   2.662   5.700   3.321
  175DOPC    HX21349   2.567   5.686   3.266
  175DOPC    HY21350   2.637   5.689   3.429
  175DOPC   O3121351   2.760   5.604   3.274
  175DOPC   C3121352   2.844   5.559   3.368
  175DOPC   O3221353   2.837   5.584   3.487
  175DOPC   C3221354   2.954   5.474   3.303
  175DOPC   H2X21355   2.914   5.434   3.208
  175DOPC   H2Y21356   3.040   5.541   3.281
  175DOPC   C2321357   3.009   5.940   3.671
  175DOPC   H3R21358   3.111   5.908   3.703
  175DOPC   H3S21359   2.937   5.892   3.741
  175DOPC   C2421360   3.003   6.093   3.683
  175DOPC   H4R21361   2.897   6.126   3.675
  175DOPC   H4S21362   3.058   6.138   3.598
  175DOPC   C2521363   3.066   6.145   3.813
  175DOPC   H5R21364   3.067   6.256   3.811
  175DOPC   H5S21365   3.171   6.110   3.816
  175DOPC   C2621366   2.996   6.100   3.942
  175DOPC   H6R21367   3.057   6.133   4.029
  175DOPC   H6S21368   2.990   5.989   3.946
  175DOPC   C2721369   2.855   6.161   3.956
  175DOPC   H7R21370   2.840   6.233   3.873
  175DOPC   H7S21371   2.850   6.220   4.050
  175DOPC   C2821372   2.742   6.057   3.953
  175DOPC   H8R21373   2.756   5.992   3.864
  175DOPC   H8S21374   2.646   6.111   3.937
  175DOPC   C2921375   2.736   5.980   4.082
  175DOPC   H9R21376   2.755   6.041   4.172
  175DOPC  C21021377   2.712   5.849   4.098
  175DOPC  H10R21378   2.711   5.809   4.200
  175DOPC  C21121379   2.683   5.746   3.992
  175DOPC  H11R21380   2.678   5.790   3.890
  175DOPC  H11S21381   2.583   5.701   4.010
  175DOPC  C21221382   2.787   5.632   3.989
  175DOPC  H12R21383   2.882   5.671   3.948
  175DOPC  H12S21384   2.751   5.553   3.920
  175DOPC  C21321385   2.818   5.567   4.126
  175DOPC  H13R21386   2.870   5.641   4.189
  175DOPC  H13S21387   2.887   5.482   4.110
  175DOPC  C21421388   2.693   5.516   4.201
  175DOPC  H14R21389   2.644   5.438   4.138
  175DOPC  H14S21390   2.620   5.598   4.215
  175DOPC  C21521391   2.726   5.455   4.338
  175DOPC  H15R21392   2.810   5.382   4.326
  175DOPC  H15S21393   2.637   5.399   4.375
  175DOPC  C21621394   2.765   5.559   4.444
  175DOPC  H16R21395   2.684   5.635   4.451
  175DOPC  H16S21396   2.858   5.611   4.412
  175DOPC  C21721397   2.787   5.500   4.584
  175DOPC  H17R21398   2.696   5.446   4.615
  175DOPC  H17S21399   2.801   5.585   4.654
  175DOPC  C21821400   2.908   5.407   4.595
  175DOPC  H18R21401   3.001   5.459   4.562
  175DOPC  H18S21402   2.895   5.317   4.530
  175DOPC  H18T21403   2.922   5.372   4.699
  175DOPC   C3321404   3.000   5.356   3.393
  175DOPC   H3X21405   3.056   5.283   3.330
  175DOPC   H3Y21406   2.911   5.302   3.432
  175DOPC   C3421407   3.089   5.397   3.511
  175DOPC   H4X21408   3.078   5.323   3.593
  175DOPC   H4Y21409   3.055   5.495   3.551
  175DOPC   C3521410   3.238   5.404   3.474
  175DOPC   H5X21411   3.252   5.473   3.388
  175DOPC   H5Y21412   3.271   5.303   3.442
  175DOPC   C3621413   3.328   5.450   3.590
  175DOPC   H6X21414   3.318   5.380   3.676
  175DOPC   H6Y21415   3.433   5.447   3.556
  175DOPC   C3721416   3.297   5.593   3.637
  175DOPC   H7X21417   3.290   5.657   3.546
  175DOPC   H7Y21418   3.198   5.596   3.687
  175DOPC   C3821419   3.404   5.650   3.732
  175DOPC   H8X21420   3.503   5.640   3.683
  175DOPC   H8Y21421   3.406   5.588   3.824
  175DOPC   C3921422   3.375   5.795   3.759
  175DOPC   H9X21423   3.363   5.856   3.668
  175DOPC  C31021424   3.361   5.856   3.878
  175DOPC  H10X21425   3.335   5.963   3.878
  175DOPC  C31121426   3.370   5.797   4.017
  175DOPC  H11X21427   3.469   5.824   4.061
  175DOPC  H11Y21428   3.362   5.687   4.016
  175DOPC  C31221429   3.260   5.856   4.108
  175DOPC  H12X21430   3.161   5.822   4.071
  175DOPC  H12Y21431   3.262   5.967   4.102
  175DOPC  C31321432   3.278   5.817   4.255
  175DOPC  H13X21433   3.269   5.706   4.265
  175DOPC  H13Y21434   3.381   5.845   4.287
  175DOPC  C31421435   3.178   5.885   4.349
  175DOPC  H14X21436   3.204   5.859   4.454
  175DOPC  H14Y21437   3.186   5.995   4.338
  175DOPC  C31521438   3.032   5.844   4.323
  175DOPC  H15X21439   3.025   5.733   4.329
  175DOPC  H15Y21440   3.004   5.874   4.220
  175DOPC  C31621441   2.930   5.905   4.420
  175DOPC  H16X21442   2.936   6.016   4.416
  175DOPC  H16Y21443   2.829   5.876   4.385
  175DOPC  C31721444   2.945   5.858   4.566
  175DOPC  H17X21445   2.962   5.749   4.566
  175DOPC  H17Y21446   3.036   5.905   4.610
  175DOPC  C31821447   2.823   5.890   4.652
  175DOPC  H18X21448   2.836   5.849   4.755
  175DOPC  H18Y21449   2.808   6.000   4.659
  175DOPC  H18Z21450   2.731   5.845   4.609
  176DOPC     N21451   2.988   1.917   3.006
  176DOPC   C1221452   2.954   1.851   3.139
  176DOPC  H12A21453   2.847   1.837   3.143
  176DOPC  H12B21454   2.979   1.919   3.218
  176DOPC   C1321455   3.127   1.884   2.963
  176DOPC  H13A21456   3.139   1.777   2.959
  176DOPC  H13B21457   3.149   1.924   2.865
  176DOPC  H13C21458   3.200   1.924   3.032
  176DOPC   C1421459   2.970   2.065   3.013
  176DOPC  H14A21460   2.868   2.090   3.039
  176DOPC  H14B21461   3.038   2.112   3.083
  176DOPC  H14C21462   2.989   2.109   2.916
  176DOPC   C1521463   2.892   1.865   2.902
  176DOPC  H15A21464   2.915   1.903   2.804
  176DOPC  H15B21465   2.791   1.893   2.926
  176DOPC  H15C21466   2.894   1.758   2.899
  176DOPC   C1121467   3.020   1.713   3.172
  176DOPC  H11A21468   3.128   1.731   3.190
  176DOPC  H11B21469   2.979   1.675   3.268
  176DOPC     P21470   2.879   1.528   3.047
  176DOPC   O1321471   2.924   1.392   3.012
  176DOPC   O1421472   2.789   1.597   2.952
  176DOPC   O1221473   3.008   1.617   3.067
  176DOPC   O1121474   2.809   1.527   3.188
  176DOPC    C121475   2.683   1.458   3.197
  176DOPC    HA21476   2.700   1.349   3.191
  176DOPC    HB21477   2.614   1.486   3.114
  176DOPC    C221478   2.603   1.484   3.330
  176DOPC    HS21479   2.507   1.534   3.303
  176DOPC   O2121480   2.676   1.565   3.424
  176DOPC   C2121481   2.691   1.691   3.389
  176DOPC   O2221482   2.647   1.744   3.288
  176DOPC   C2221483   2.770   1.767   3.496
  176DOPC   H2R21484   2.780   1.871   3.460
  176DOPC   H2S21485   2.872   1.722   3.503
  176DOPC    C321486   2.566   1.349   3.398
  176DOPC    HX21487   2.497   1.294   3.330
  176DOPC    HY21488   2.510   1.369   3.492
  176DOPC   O3121489   2.685   1.269   3.417
  176DOPC   C3121490   2.741   1.278   3.537
  176DOPC   O3221491   2.683   1.306   3.640
  176DOPC   C3221492   2.891   1.256   3.524
  176DOPC   H2X21493   2.928   1.226   3.624
  176DOPC   H2Y21494   2.911   1.173   3.452
  176DOPC   C2321495   2.702   1.767   3.635
  176DOPC   H3R21496   2.591   1.761   3.624
  176DOPC   H3S21497   2.723   1.864   3.685
  176DOPC   C2421498   2.751   1.655   3.728
  176DOPC   H4R21499   2.855   1.677   3.758
  176DOPC   H4S21500   2.751   1.559   3.673
  176DOPC   C2521501   2.664   1.640   3.853
  176DOPC   H5R21502   2.566   1.597   3.821
  176DOPC   H5S21503   2.645   1.739   3.898
  176DOPC   C2621504   2.726   1.548   3.959
  176DOPC   H6R21505   2.809   1.602   4.009
  176DOPC   H6S21506   2.770   1.459   3.908
  176DOPC   C2721507   2.624   1.500   4.062
  176DOPC   H7R21508   2.552   1.433   4.009
  176DOPC   H7S21509   2.566   1.586   4.101
  176DOPC   C2821510   2.687   1.422   4.179
  176DOPC   H8R21511   2.761   1.350   4.138
  176DOPC   H8S21512   2.608   1.359   4.226
  176DOPC   C2921513   2.751   1.512   4.281
  176DOPC   H9R21514   2.854   1.543   4.258
  176DOPC  C21021515   2.694   1.558   4.394
  176DOPC  H10R21516   2.752   1.623   4.460
  176DOPC  C21121517   2.553   1.530   4.442
  176DOPC  H11R21518   2.492   1.482   4.363
  176DOPC  H11S21519   2.505   1.627   4.465
  176DOPC  C21221520   2.543   1.444   4.569
  176DOPC  H12R21521   2.435   1.436   4.596
  176DOPC  H12S21522   2.595   1.494   4.653
  176DOPC  C21321523   2.598   1.301   4.552
  176DOPC  H13R21524   2.708   1.305   4.545
  176DOPC  H13S21525   2.561   1.259   4.456
  176DOPC  C21421526   2.557   1.206   4.667
  176DOPC  H14R21527   2.608   1.109   4.651
  176DOPC  H14S21528   2.447   1.187   4.660
  176DOPC  C21521529   2.589   1.258   4.808
  176DOPC  H15R21530   2.556   1.181   4.881
  176DOPC  H15S21531   2.531   1.350   4.828
  176DOPC  C21621532   2.739   1.286   4.827
  176DOPC  H16R21533   2.772   1.361   4.752
  176DOPC  H16S21534   2.793   1.191   4.807
  176DOPC  C21721535   2.778   1.337   4.966
  176DOPC  H17R21536   2.726   1.433   4.984
  176DOPC  H17S21537   2.887   1.358   4.965
  176DOPC  C21821538   2.748   1.238   5.079
  176DOPC  H18R21539   2.640   1.218   5.086
  176DOPC  H18S21540   2.782   1.279   5.177
  176DOPC  H18T21541   2.802   1.143   5.061
  176DOPC   C3321542   2.961   1.386   3.480
  176DOPC   H3X21543   2.917   1.471   3.538
  176DOPC   H3Y21544   2.939   1.407   3.373
  176DOPC   C3421545   3.112   1.386   3.504
  176DOPC   H4X21546   3.160   1.320   3.428
  176DOPC   H4Y21547   3.136   1.344   3.604
  176DOPC   C3521548   3.172   1.527   3.496
  176DOPC   H5X21549   3.130   1.579   3.407
  176DOPC   H5Y21550   3.282   1.521   3.483
  176DOPC   C3621551   3.146   1.611   3.623
  176DOPC   H6X21552   3.040   1.597   3.654
  176DOPC   H6Y21553   3.209   1.574   3.706
  176DOPC   C3721554   3.169   1.760   3.600
  176DOPC   H7X21555   3.276   1.779   3.574
  176DOPC   H7Y21556   3.108   1.792   3.513
  176DOPC   C3821557   3.126   1.846   3.721
  176DOPC   H8X21558   3.024   1.816   3.753
  176DOPC   H8Y21559   3.118   1.951   3.685
  176DOPC   C3921560   3.225   1.841   3.835
  176DOPC   H9X21561   3.320   1.893   3.813
  176DOPC  C31021562   3.209   1.783   3.955
  176DOPC  H10X21563   3.292   1.790   4.028
  176DOPC  C31121564   3.089   1.707   4.005
  176DOPC  H11X21565   3.044   1.648   3.922
  176DOPC  H11Y21566   3.010   1.778   4.040
  176DOPC  C31221567   3.122   1.610   4.121
  176DOPC  H12X21568   3.208   1.546   4.091
  176DOPC  H12Y21569   3.035   1.544   4.137
  176DOPC  C31321570   3.154   1.682   4.254
  176DOPC  H13X21571   3.238   1.752   4.237
  176DOPC  H13Y21572   3.066   1.742   4.284
  176DOPC  C31421573   3.194   1.586   4.368
  176DOPC  H14X21574   3.218   1.487   4.324
  176DOPC  H14Y21575   3.288   1.625   4.414
  176DOPC  C31521576   3.090   1.569   4.480
  176DOPC  H15X21577   3.126   1.490   4.548
  176DOPC  H15Y21578   2.994   1.535   4.436
  176DOPC  C31621579   3.065   1.696   4.563
  176DOPC  H16X21580   3.162   1.735   4.600
  176DOPC  H16Y21581   3.020   1.773   4.497
  176DOPC  C31721582   2.971   1.674   4.683
  176DOPC  H17X21583   2.938   1.773   4.720
  176DOPC  H17Y21584   2.880   1.620   4.649
  176DOPC  C31821585   3.034   1.598   4.800
  176DOPC  H18X21586   3.065   1.496   4.768
  176DOPC  H18Y21587   3.124   1.652   4.837
  176DOPC  H18Z21588   2.962   1.588   4.884
  177DOPC     N21589   4.938   5.960   2.923
  177DOPC   C1221590   4.974   5.944   3.070
  177DOPC  H12A21591   5.078   5.917   3.078
  177DOPC  H12B21592   4.918   5.862   3.111
  177DOPC   C1321593   4.793   5.995   2.910
  177DOPC  H13A21594   4.773   6.085   2.966
  177DOPC  H13B21595   4.762   6.008   2.807
  177DOPC  H13C21596   4.731   5.920   2.955
  177DOPC   C1421597   4.963   5.831   2.850
  177DOPC  H14A21598   5.067   5.802   2.855
  177DOPC  H14B21599   4.906   5.750   2.893
  177DOPC  H14C21600   4.936   5.840   2.746
  177DOPC   C1521601   5.021   6.068   2.862
  177DOPC  H15A21602   5.127   6.047   2.870
  177DOPC  H15B21603   5.002   6.163   2.911
  177DOPC  H15C21604   5.001   6.080   2.756
  177DOPC   C1121605   4.947   6.064   3.166
  177DOPC  H11A21606   4.992   6.042   3.265
  177DOPC  H11B21607   4.998   6.155   3.127
  177DOPC     P21608   4.711   5.990   3.253
  177DOPC   O1321609   4.603   5.957   3.157
  177DOPC   O1421610   4.669   6.044   3.383
  177DOPC   O1221611   4.808   6.092   3.180
  177DOPC   O1121612   4.801   5.861   3.271
  177DOPC    C121613   4.755   5.745   3.340
  177DOPC    HA21614   4.774   5.655   3.277
  177DOPC    HB21615   4.646   5.746   3.361
  177DOPC    C221616   4.834   5.724   3.474
  177DOPC    HS21617   4.800   5.629   3.520
  177DOPC   O2121618   4.813   5.833   3.564
  177DOPC   C2121619   4.692   5.843   3.616
  177DOPC   O2221620   4.600   5.764   3.601
  177DOPC   C2221621   4.688   5.967   3.705
  177DOPC   H2R21622   4.583   5.985   3.734
  177DOPC   H2S21623   4.723   6.052   3.643
  177DOPC    C321624   4.986   5.713   3.448
  177DOPC    HX21625   5.021   5.805   3.396
  177DOPC    HY21626   5.003   5.628   3.378
  177DOPC   O3121627   5.057   5.687   3.572
  177DOPC   C3121628   5.114   5.791   3.631
  177DOPC   O3221629   5.134   5.900   3.581
  177DOPC   C3221630   5.149   5.751   3.774
  177DOPC   H2X21631   5.055   5.750   3.832
  177DOPC   H2Y21632   5.189   5.647   3.772
  177DOPC   C2321633   4.778   5.950   3.830
  177DOPC   H3R21634   4.877   5.909   3.800
  177DOPC   H3S21635   4.731   5.878   3.900
  177DOPC   C2421636   4.803   6.083   3.901
  177DOPC   H4R21637   4.706   6.133   3.921
  177DOPC   H4S21638   4.863   6.150   3.834
  177DOPC   C2521639   4.878   6.065   4.034
  177DOPC   H5R21640   4.972   6.009   4.017
  177DOPC   H5S21641   4.814   6.003   4.101
  177DOPC   C2621642   4.909   6.199   4.101
  177DOPC   H6R21643   4.820   6.266   4.094
  177DOPC   H6S21644   4.990   6.249   4.044
  177DOPC   C2721645   4.951   6.188   4.249
  177DOPC   H7R21646   4.977   6.291   4.284
  177DOPC   H7S21647   5.044   6.128   4.255
  177DOPC   C2821648   4.846   6.127   4.344
  177DOPC   H8R21649   4.883   6.139   4.448
  177DOPC   H8S21650   4.842   6.018   4.325
  177DOPC   C2921651   4.708   6.185   4.327
  177DOPC   H9R21652   4.666   6.171   4.227
  177DOPC  C21021653   4.632   6.249   4.419
  177DOPC  H10R21654   4.532   6.284   4.388
  177DOPC  C21121655   4.665   6.279   4.563
  177DOPC  H11R21656   4.634   6.383   4.586
  177DOPC  H11S21657   4.774   6.274   4.583
  177DOPC  C21221658   4.593   6.184   4.659
  177DOPC  H12R21659   4.489   6.166   4.624
  177DOPC  H12S21660   4.585   6.232   4.760
  177DOPC  C21321661   4.667   6.051   4.676
  177DOPC  H13R21662   4.755   6.068   4.741
  177DOPC  H13S21663   4.706   6.017   4.578
  177DOPC  C21421664   4.580   5.940   4.737
  177DOPC  H14R21665   4.530   5.981   4.828
  177DOPC  H14S21666   4.646   5.857   4.770
  177DOPC  C21521667   4.473   5.881   4.643
  177DOPC  H15R21668   4.394   5.958   4.626
  177DOPC  H15S21669   4.424   5.796   4.694
  177DOPC  C21621670   4.524   5.834   4.505
  177DOPC  H16R21671   4.552   5.924   4.445
  177DOPC  H16S21672   4.440   5.784   4.452
  177DOPC  C21721673   4.644   5.738   4.507
  177DOPC  H17R21674   4.734   5.793   4.542
  177DOPC  H17S21675   4.664   5.707   4.402
  177DOPC  C21821676   4.626   5.613   4.593
  177DOPC  H18R21677   4.623   5.641   4.701
  177DOPC  H18S21678   4.711   5.543   4.579
  177DOPC  H18T21679   4.531   5.561   4.567
  177DOPC   C3321680   5.253   5.842   3.844
  177DOPC   H3X21681   5.217   5.947   3.846
  177DOPC   H3Y21682   5.348   5.840   3.787
  177DOPC   C3421683   5.278   5.794   3.988
  177DOPC   H4X21684   5.294   5.684   3.984
  177DOPC   H4Y21685   5.187   5.813   4.049
  177DOPC   C3521686   5.401   5.856   4.056
  177DOPC   H5X21687   5.389   5.966   4.063
  177DOPC   H5Y21688   5.489   5.836   3.992
  177DOPC   C3621689   5.426   5.796   4.195
  177DOPC   H6X21690   5.410   5.687   4.190
  177DOPC   H6Y21691   5.532   5.813   4.224
  177DOPC   C3721692   5.337   5.857   4.305
  177DOPC   H7X21693   5.383   5.950   4.342
  177DOPC   H7Y21694   5.239   5.884   4.260
  177DOPC   C3821695   5.307   5.761   4.423
  177DOPC   H8X21696   5.248   5.675   4.383
  177DOPC   H8Y21697   5.239   5.815   4.492
  177DOPC   C3921698   5.428   5.710   4.496
  177DOPC   H9X21699   5.472   5.618   4.454
  177DOPC  C31021700   5.485   5.765   4.605
  177DOPC  H10X21701   5.573   5.716   4.650
  177DOPC  C31121702   5.440   5.892   4.673
  177DOPC  H11X21703   5.402   5.963   4.598
  177DOPC  H11Y21704   5.526   5.941   4.723
  177DOPC  C31221705   5.328   5.873   4.778
  177DOPC  H12X21706   5.242   5.821   4.731
  177DOPC  H12Y21707   5.293   5.973   4.809
  177DOPC  C31321708   5.370   5.795   4.904
  177DOPC  H13X21709   5.404   5.694   4.873
  177DOPC  H13Y21710   5.456   5.847   4.953
  177DOPC  C31421711   5.253   5.784   5.003
  177DOPC  H14X21712   5.221   5.886   5.032
  177DOPC  H14Y21713   5.168   5.737   4.948
  177DOPC  C31521714   5.280   5.703   5.131
  177DOPC  H15X21715   5.184   5.691   5.186
  177DOPC  H15Y21716   5.347   5.762   5.197
  177DOPC  C31621717   5.341   5.563   5.109
  177DOPC  H16X21718   5.436   5.574   5.054
  177DOPC  H16Y21719   5.365   5.518   5.207
  177DOPC  C31721720   5.249   5.467   5.032
  177DOPC  H17X21721   5.181   5.524   4.965
  177DOPC  H17Y21722   5.313   5.405   4.965
  177DOPC  C31821723   5.167   5.374   5.121
  177DOPC  H18X21724   5.108   5.303   5.060
  177DOPC  H18Y21725   5.232   5.316   5.191
  177DOPC  H18Z21726   5.096   5.434   5.183
  178DOPC     N21727   2.184   5.767   2.823
  178DOPC   C1221728   2.073   5.790   2.926
  178DOPC  H12A21729   2.078   5.713   3.000
  178DOPC  H12B21730   1.977   5.782   2.878
  178DOPC   C1321731   2.316   5.751   2.891
  178DOPC  H13A21732   2.335   5.838   2.953
  178DOPC  H13B21733   2.316   5.667   2.959
  178DOPC  H13C21734   2.397   5.741   2.820
  178DOPC   C1421735   2.193   5.883   2.729
  178DOPC  H14A21736   2.266   5.864   2.651
  178DOPC  H14B21737   2.098   5.903   2.682
  178DOPC  H14C21738   2.224   5.971   2.783
  178DOPC   C1521739   2.156   5.643   2.744
  178DOPC  H15A21740   2.235   5.621   2.674
  178DOPC  H15B21741   2.065   5.652   2.686
  178DOPC  H15C21742   2.145   5.557   2.808
  178DOPC   C1121743   2.074   5.923   3.007
  178DOPC  H11A21744   2.064   6.009   2.938
  178DOPC  H11B21745   1.984   5.926   3.073
  178DOPC     P21746   2.217   5.842   3.209
  178DOPC   O1321747   2.362   5.814   3.212
  178DOPC   O1421748   2.128   5.724   3.195
  178DOPC   O1221749   2.193   5.937   3.083
  178DOPC   O1121750   2.173   5.932   3.331
  178DOPC    C121751   2.264   5.955   3.439
  178DOPC    HA21752   2.225   6.037   3.503
  178DOPC    HB21753   2.364   5.989   3.402
  178DOPC    C221754   2.283   5.830   3.530
  178DOPC    HS21755   2.310   5.746   3.462
  178DOPC   O2121756   2.159   5.804   3.598
  178DOPC   C2121757   2.140   5.677   3.630
  178DOPC   O2221758   2.220   5.587   3.609
  178DOPC   C2221759   2.002   5.657   3.691
  178DOPC   H2R21760   1.941   5.605   3.614
  178DOPC   H2S21761   1.955   5.756   3.711
  178DOPC    C321762   2.402   5.845   3.629
  178DOPC    HX21763   2.493   5.866   3.568
  178DOPC    HY21764   2.420   5.747   3.678
  178DOPC   O3121765   2.385   5.955   3.722
  178DOPC   C3121766   2.370   5.922   3.849
  178DOPC   O3221767   2.369   5.809   3.894
  178DOPC   C3221768   2.356   6.049   3.935
  178DOPC   H2X21769   2.438   6.045   4.010
  178DOPC   H2Y21770   2.371   6.138   3.871
  178DOPC   C2321771   2.008   5.572   3.820
  178DOPC   H3R21772   2.073   5.483   3.806
  178DOPC   H3S21773   1.906   5.534   3.842
  178DOPC   C2421774   2.056   5.654   3.941
  178DOPC   H4R21775   1.996   5.747   3.949
  178DOPC   H4S21776   2.162   5.683   3.925
  178DOPC   C2521777   2.045   5.576   4.073
  178DOPC   H5R21778   2.105   5.483   4.066
  178DOPC   H5S21779   1.939   5.547   4.086
  178DOPC   C2621780   2.088   5.659   4.195
  178DOPC   H6R21781   2.046   5.611   4.286
  178DOPC   H6S21782   2.044   5.760   4.187
  178DOPC   C2721783   2.241   5.669   4.213
  178DOPC   H7R21784   2.286   5.717   4.124
  178DOPC   H7S21785   2.282   5.567   4.222
  178DOPC   C2821786   2.276   5.752   4.339
  178DOPC   H8R21787   2.217   5.712   4.424
  178DOPC   H8S21788   2.240   5.855   4.320
  178DOPC   C2921789   2.422   5.750   4.375
  178DOPC   H9R21790   2.463   5.649   4.392
  178DOPC  C21021791   2.505   5.855   4.387
  178DOPC  H10R21792   2.610   5.837   4.415
  178DOPC  C21121793   2.472   6.001   4.366
  178DOPC  H11R21794   2.371   6.014   4.322
  178DOPC  H11S21795   2.542   6.045   4.292
  178DOPC  C21221796   2.479   6.086   4.494
  178DOPC  H12R21797   2.452   6.190   4.467
  178DOPC  H12S21798   2.583   6.087   4.533
  178DOPC  C21321799   2.384   6.038   4.606
  178DOPC  H13R21800   2.428   5.950   4.657
  178DOPC  H13S21801   2.289   6.005   4.559
  178DOPC  C21421802   2.350   6.148   4.708
  178DOPC  H14R21803   2.278   6.107   4.782
  178DOPC  H14S21804   2.299   6.231   4.654
  178DOPC  C21521805   2.472   6.204   4.783
  178DOPC  H15R21806   2.548   6.234   4.708
  178DOPC  H15S21807   2.517   6.125   4.847
  178DOPC  C21621808   2.439   6.329   4.867
  178DOPC  H16R21809   2.389   6.403   4.800
  178DOPC  H16S21810   2.534   6.374   4.902
  178DOPC  C21721811   2.349   6.304   4.989
  178DOPC  H17R21812   2.257   6.250   4.956
  178DOPC  H17S21813   2.316   6.402   5.029
  178DOPC  C21821814   2.418   6.226   5.102
  178DOPC  H18R21815   2.508   6.280   5.136
  178DOPC  H18S21816   2.448   6.125   5.067
  178DOPC  H18T21817   2.349   6.214   5.188
  178DOPC   C3321818   2.220   6.055   4.007
  178DOPC   H3X21819   2.205   5.963   4.067
  178DOPC   H3Y21820   2.139   6.058   3.931
  178DOPC   C3421821   2.207   6.178   4.098
  178DOPC   H4X21822   2.239   6.267   4.040
  178DOPC   H4Y21823   2.274   6.167   4.185
  178DOPC   C3521824   2.062   6.202   4.145
  178DOPC   H5X21825   2.000   6.217   4.054
  178DOPC   H5Y21826   2.058   6.297   4.203
  178DOPC   C3621827   2.000   6.089   4.228
  178DOPC   H6X21828   1.891   6.106   4.234
  178DOPC   H6Y21829   2.015   5.992   4.176
  178DOPC   C3721830   2.056   6.079   4.371
  178DOPC   H7X21831   2.167   6.072   4.366
  178DOPC   H7Y21832   2.033   6.173   4.426
  178DOPC   C3821833   2.004   5.958   4.451
  178DOPC   H8X21834   2.055   5.957   4.550
  178DOPC   H8Y21835   2.036   5.865   4.398
  178DOPC   C3921836   1.855   5.955   4.470
  178DOPC   H9X21837   1.801   6.041   4.428
  178DOPC  C31021838   1.785   5.856   4.529
  178DOPC  H10X21839   1.676   5.866   4.535
  178DOPC  C31121840   1.842   5.729   4.587
  178DOPC  H11X21841   1.946   5.712   4.553
  178DOPC  H11Y21842   1.783   5.643   4.550
  178DOPC  C31221843   1.840   5.726   4.741
  178DOPC  H12X21844   1.856   5.621   4.773
  178DOPC  H12Y21845   1.740   5.757   4.780
  178DOPC  C31321846   1.950   5.811   4.806
  178DOPC  H13X21847   2.048   5.778   4.765
  178DOPC  H13Y21848   1.937   5.918   4.778
  178DOPC  C31421849   1.953   5.799   4.959
  178DOPC  H14X21850   1.866   5.852   5.003
  178DOPC  H14Y21851   1.942   5.692   4.986
  178DOPC  C31521852   2.084   5.850   5.022
  178DOPC  H15X21853   2.170   5.804   4.969
  178DOPC  H15Y21854   2.088   5.817   5.127
  178DOPC  C31621855   2.100   6.003   5.021
  178DOPC  H16X21856   2.196   6.028   5.070
  178DOPC  H16Y21857   2.105   6.041   4.916
  178DOPC  C31721858   1.987   6.076   5.095
  178DOPC  H17X21859   1.896   6.074   5.032
  178DOPC  H17Y21860   1.963   6.018   5.187
  178DOPC  C31821861   2.020   6.220   5.134
  178DOPC  H18X21862   1.935   6.265   5.190
  178DOPC  H18Y21863   2.110   6.223   5.199
  178DOPC  H18Z21864   2.040   6.281   5.044
  179DOPC     N21865   5.920   5.217   2.862
  179DOPC   C1221866   5.921   5.115   2.975
  179DOPC  H12A21867   5.975   5.028   2.942
  179DOPC  H12B21868   5.819   5.084   2.996
  179DOPC   C1321869   6.062   5.249   2.825
  179DOPC  H13A21870   6.068   5.330   2.754
  179DOPC  H13B21871   6.116   5.278   2.914
  179DOPC  H13C21872   6.113   5.162   2.785
  179DOPC   C1421873   5.857   5.345   2.908
  179DOPC  H14A21874   5.905   5.378   2.999
  179DOPC  H14B21875   5.870   5.423   2.835
  179DOPC  H14C21876   5.752   5.331   2.931
  179DOPC   C1521877   5.849   5.163   2.742
  179DOPC  H15A21878   5.745   5.144   2.763
  179DOPC  H15B21879   5.893   5.069   2.710
  179DOPC  H15C21880   5.856   5.232   2.659
  179DOPC   C1121881   5.983   5.159   3.111
  179DOPC  H11A21882   5.924   5.244   3.151
  179DOPC  H11B21883   5.972   5.075   3.183
  179DOPC     P21884   6.197   5.255   3.220
  179DOPC   O1321885   6.323   5.311   3.166
  179DOPC   O1421886   6.208   5.150   3.324
  179DOPC   O1221887   6.120   5.193   3.096
  179DOPC   O1121888   6.099   5.371   3.268
  179DOPC    C121889   6.100   5.497   3.198
  179DOPC    HA21890   6.090   5.483   3.088
  179DOPC    HB21891   6.197   5.547   3.217
  179DOPC    C221892   5.989   5.597   3.245
  179DOPC    HS21893   6.027   5.700   3.228
  179DOPC   O2121894   5.956   5.576   3.384
  179DOPC   C2121895   6.046   5.624   3.468
  179DOPC   O2221896   6.137   5.699   3.439
  179DOPC   C2221897   6.011   5.576   3.610
  179DOPC   H2R21898   5.903   5.550   3.612
  179DOPC   H2S21899   6.028   5.661   3.680
  179DOPC    C321900   5.857   5.587   3.163
  179DOPC    HX21901   5.883   5.603   3.056
  179DOPC    HY21902   5.791   5.672   3.191
  179DOPC   O3121903   5.791   5.459   3.177
  179DOPC   C3121904   5.698   5.452   3.273
  179DOPC   O3221905   5.651   5.547   3.333
  179DOPC   C3221906   5.655   5.307   3.289
  179DOPC   H2X21907   5.555   5.297   3.242
  179DOPC   H2Y21908   5.726   5.241   3.236
  179DOPC   C2321909   6.095   5.454   3.652
  179DOPC   H3R21910   6.098   5.379   3.570
  179DOPC   H3S21911   6.048   5.405   3.740
  179DOPC   C2421912   6.237   5.496   3.691
  179DOPC   H4R21913   6.235   5.555   3.785
  179DOPC   H4S21914   6.274   5.564   3.610
  179DOPC   C2521915   6.338   5.381   3.702
  179DOPC   H5R21916   6.440   5.425   3.700
  179DOPC   H5S21917   6.329   5.315   3.613
  179DOPC   C2621918   6.325   5.299   3.830
  179DOPC   H6R21919   6.227   5.246   3.829
  179DOPC   H6S21920   6.326   5.366   3.918
  179DOPC   C2721921   6.440   5.198   3.842
  179DOPC   H7R21922   6.536   5.254   3.842
  179DOPC   H7S21923   6.441   5.132   3.752
  179DOPC   C2821924   6.435   5.112   3.970
  179DOPC   H8R21925   6.442   5.179   4.058
  179DOPC   H8S21926   6.524   5.045   3.971
  179DOPC   C2921927   6.310   5.029   3.971
  179DOPC   H9R21928   6.280   4.988   3.873
  179DOPC  C21021929   6.232   5.003   4.077
  179DOPC  H10R21930   6.141   4.943   4.063
  179DOPC  C21121931   6.253   5.050   4.219
  179DOPC  H11R21932   6.356   5.087   4.235
  179DOPC  H11S21933   6.238   4.965   4.289
  179DOPC  C21221934   6.154   5.162   4.255
  179DOPC  H12R21935   6.176   5.252   4.195
  179DOPC  H12S21936   6.174   5.188   4.361
  179DOPC  C21321937   6.006   5.122   4.236
  179DOPC  H13R21938   5.998   5.013   4.260
  179DOPC  H13S21939   5.979   5.133   4.129
  179DOPC  C21421940   5.904   5.198   4.323
  179DOPC  H14R21941   5.805   5.148   4.311
  179DOPC  H14S21942   5.893   5.301   4.283
  179DOPC  C21521943   5.936   5.207   4.473
  179DOPC  H15R21944   5.849   5.248   4.528
  179DOPC  H15S21945   6.018   5.281   4.485
  179DOPC  C21621946   5.982   5.076   4.539
  179DOPC  H16R21947   6.023   5.006   4.463
  179DOPC  H16S21948   5.895   5.024   4.585
  179DOPC  C21721949   6.094   5.098   4.641
  179DOPC  H17R21950   6.055   5.157   4.726
  179DOPC  H17S21951   6.174   5.159   4.593
  179DOPC  C21821952   6.156   4.967   4.690
  179DOPC  H18R21953   6.240   4.987   4.760
  179DOPC  H18S21954   6.195   4.910   4.603
  179DOPC  H18T21955   6.080   4.905   4.742
  179DOPC   C3321956   5.646   5.265   3.438
  179DOPC   H3X21957   5.605   5.162   3.442
  179DOPC   H3Y21958   5.576   5.332   3.492
  179DOPC   C3421959   5.782   5.267   3.509
  179DOPC   H4X21960   5.810   5.372   3.532
  179DOPC   H4Y21961   5.860   5.226   3.442
  179DOPC   C3521962   5.783   5.183   3.639
  179DOPC   H5X21963   5.882   5.190   3.687
  179DOPC   H5Y21964   5.766   5.078   3.609
  179DOPC   C3621965   5.673   5.219   3.741
  179DOPC   H6X21966   5.575   5.224   3.689
  179DOPC   H6Y21967   5.664   5.136   3.815
  179DOPC   C3721968   5.698   5.350   3.817
  179DOPC   H7X21969   5.746   5.424   3.751
  179DOPC   H7Y21970   5.598   5.391   3.845
  179DOPC   C3821971   5.780   5.330   3.946
  179DOPC   H8X21972   5.883   5.299   3.917
  179DOPC   H8Y21973   5.736   5.246   4.003
  179DOPC   C3921974   5.779   5.454   4.031
  179DOPC   H9X21975   5.679   5.495   4.051
  179DOPC  C31021976   5.886   5.518   4.082
  179DOPC  H10X21977   5.869   5.609   4.142
  179DOPC  C31121978   6.031   5.479   4.065
  179DOPC  H11X21979   6.065   5.507   3.963
  179DOPC  H11Y21980   6.042   5.369   4.073
  179DOPC  C31221981   6.125   5.546   4.167
  179DOPC  H12X21982   6.127   5.656   4.150
  179DOPC  H12Y21983   6.229   5.509   4.149
  179DOPC  C31321984   6.089   5.520   4.314
  179DOPC  H13X21985   5.982   5.545   4.332
  179DOPC  H13Y21986   6.102   5.412   4.336
  179DOPC  C31421987   6.172   5.601   4.414
  179DOPC  H14X21988   6.280   5.579   4.401
  179DOPC  H14Y21989   6.157   5.709   4.394
  179DOPC  C31521990   6.131   5.571   4.560
  179DOPC  H15X21991   6.167   5.470   4.588
  179DOPC  H15Y21992   6.021   5.571   4.565
  179DOPC  C31621993   6.186   5.675   4.659
  179DOPC  H16X21994   6.296   5.683   4.646
  179DOPC  H16Y21995   6.142   5.774   4.631
  179DOPC  C31721996   6.155   5.647   4.807
  179DOPC  H17X21997   6.218   5.563   4.840
  179DOPC  H17Y21998   6.185   5.736   4.866
  179DOPC  C31821999   6.008   5.615   4.836
  179DOPC  H18X22000   5.942   5.699   4.805
  179DOPC  H18Y22001   5.976   5.523   4.782
  179DOPC  H18Z22002   5.993   5.597   4.945
  180DOPC     N22003   6.461   3.161   2.877
  180DOPC   C1222004   6.326   3.229   2.903
  180DOPC  H12A22005   6.257   3.157   2.945
  180DOPC  H12B22006   6.283   3.261   2.809
  180DOPC   C1322007   6.514   3.102   3.005
  180DOPC  H13A22008   6.516   3.177   3.082
  180DOPC  H13B22009   6.449   3.025   3.044
  180DOPC  H13C22010   6.613   3.060   2.995
  180DOPC   C1422011   6.561   3.263   2.830
  180DOPC  H14A22012   6.657   3.217   2.815
  180DOPC  H14B22013   6.530   3.309   2.738
  180DOPC  H14C22014   6.572   3.339   2.905
  180DOPC   C1522015   6.450   3.053   2.775
  180DOPC  H15A22016   6.381   2.975   2.806
  180DOPC  H15B22017   6.546   3.005   2.760
  180DOPC  H15C22018   6.417   3.091   2.679
  180DOPC   C1122019   6.323   3.349   3.000
  180DOPC  H11A22020   6.389   3.430   2.962
  180DOPC  H11B22021   6.220   3.393   3.002
  180DOPC     P22022   6.270   3.223   3.222
  180DOPC   O1322023   6.355   3.118   3.282
  180DOPC   O1422024   6.155   3.178   3.141
  180DOPC   O1222025   6.365   3.313   3.131
  180DOPC   O1122026   6.224   3.328   3.330
  180DOPC    C122027   6.311   3.375   3.434
  180DOPC    HA22028   6.308   3.486   3.434
  180DOPC    HB22029   6.417   3.347   3.419
  180DOPC    C222030   6.260   3.327   3.573
  180DOPC    HS22031   6.308   3.387   3.653
  180DOPC   O2122032   6.289   3.187   3.591
  180DOPC   C2122033   6.417   3.159   3.610
  180DOPC   O2222034   6.504   3.240   3.638
  180DOPC   C2222035   6.437   3.009   3.589
  180DOPC   H2R22036   6.442   2.995   3.479
  180DOPC   H2S22037   6.348   2.954   3.627
  180DOPC    C322038   6.106   3.348   3.580
  180DOPC    HX22039   6.063   3.277   3.507
  180DOPC    HY22040   6.085   3.451   3.544
  180DOPC   O3122041   6.052   3.330   3.714
  180DOPC   C3122042   5.918   3.322   3.708
  180DOPC   O3222043   5.853   3.334   3.607
  180DOPC   C3222044   5.858   3.292   3.845
  180DOPC   H2X22045   5.940   3.286   3.920
  180DOPC   H2Y22046   5.790   3.376   3.871
  180DOPC   C2322047   6.566   2.949   3.651
  180DOPC   H3R22048   6.654   3.015   3.633
  180DOPC   H3S22049   6.583   2.855   3.594
  180DOPC   C2422050   6.556   2.909   3.799
  180DOPC   H4R22051   6.627   2.826   3.815
  180DOPC   H4S22052   6.454   2.870   3.822
  180DOPC   C2522053   6.594   3.021   3.897
  180DOPC   H5R22054   6.517   3.101   3.896
  180DOPC   H5S22055   6.689   3.066   3.863
  180DOPC   C2622056   6.613   2.967   4.040
  180DOPC   H6R22057   6.681   2.879   4.035
  180DOPC   H6S22058   6.516   2.932   4.081
  180DOPC   C2722059   6.677   3.069   4.137
  180DOPC   H7R22060   6.766   3.113   4.089
  180DOPC   H7S22061   6.711   3.014   4.227
  180DOPC   C2822062   6.579   3.180   4.180
  180DOPC   H8R22063   6.491   3.133   4.229
  180DOPC   H8S22064   6.542   3.230   4.088
  180DOPC   C2922065   6.644   3.279   4.274
  180DOPC   H9R22066   6.728   3.239   4.333
  180DOPC  C21022067   6.608   3.407   4.291
  180DOPC  H10R22068   6.662   3.470   4.363
  180DOPC  C21122069   6.495   3.477   4.219
  180DOPC  H11R22070   6.432   3.405   4.161
  180DOPC  H11S22071   6.536   3.549   4.145
  180DOPC  C21222072   6.400   3.552   4.314
  180DOPC  H12R22073   6.317   3.593   4.253
  180DOPC  H12S22074   6.453   3.639   4.359
  180DOPC  C21322075   6.341   3.465   4.426
  180DOPC  H13R22076   6.416   3.455   4.508
  180DOPC  H13S22077   6.321   3.363   4.387
  180DOPC  C21422078   6.211   3.523   4.482
  180DOPC  H14R22079   6.133   3.517   4.403
  180DOPC  H14S22080   6.225   3.630   4.507
  180DOPC  C21522081   6.160   3.449   4.607
  180DOPC  H15R22082   6.230   3.467   4.691
  180DOPC  H15S22083   6.159   3.340   4.587
  180DOPC  C21622084   6.018   3.494   4.646
  180DOPC  H16R22085   5.951   3.469   4.560
  180DOPC  H16S22086   6.016   3.604   4.659
  180DOPC  C21722087   5.962   3.427   4.772
  180DOPC  H17R22088   5.964   3.317   4.759
  180DOPC  H17S22089   5.856   3.458   4.783
  180DOPC  C21822090   6.037   3.465   4.900
  180DOPC  H18R22091   6.036   3.575   4.915
  180DOPC  H18S22092   6.142   3.431   4.896
  180DOPC  H18T22093   5.988   3.418   4.988
  180DOPC   C3322094   5.777   3.160   3.847
  180DOPC   H3X22095   5.843   3.078   3.815
  180DOPC   H3Y22096   5.693   3.165   3.774
  180DOPC   C3422097   5.721   3.125   3.986
  180DOPC   H4X22098   5.623   3.176   3.996
  180DOPC   H4Y22099   5.787   3.167   4.065
  180DOPC   C3522100   5.704   2.974   4.010
  180DOPC   H5X22101   5.665   2.927   3.918
  180DOPC   H5Y22102   5.629   2.959   4.091
  180DOPC   C3622103   5.833   2.903   4.055
  180DOPC   H6X22104   5.915   2.928   3.983
  180DOPC   H6Y22105   5.863   2.941   4.155
  180DOPC   C3722106   5.818   2.750   4.062
  180DOPC   H7X22107   5.734   2.726   4.131
  180DOPC   H7Y22108   5.790   2.715   3.961
  180DOPC   C3822109   5.944   2.672   4.106
  180DOPC   H8X22110   6.029   2.701   4.041
  180DOPC   H8Y22111   5.924   2.565   4.085
  180DOPC   C3922112   5.980   2.685   4.253
  180DOPC   H9X22113   5.894   2.678   4.321
  180DOPC  C31022114   6.102   2.706   4.305
  180DOPC  H10X22115   6.111   2.715   4.414
  180DOPC  C31122116   6.233   2.720   4.230
  180DOPC  H11X22117   6.251   2.827   4.204
  180DOPC  H11Y22118   6.228   2.666   4.133
  180DOPC  C31222119   6.357   2.669   4.306
  180DOPC  H12X22120   6.443   2.670   4.236
  180DOPC  H12Y22121   6.341   2.563   4.335
  180DOPC  C31322122   6.397   2.751   4.430
  180DOPC  H13X22123   6.311   2.761   4.499
  180DOPC  H13Y22124   6.476   2.694   4.484
  180DOPC  C31422125   6.454   2.890   4.398
  180DOPC  H14X22126   6.528   2.878   4.316
  180DOPC  H14Y22127   6.373   2.956   4.359
  180DOPC  C31522128   6.525   2.959   4.516
  180DOPC  H15X22129   6.576   3.049   4.477
  180DOPC  H15Y22130   6.604   2.891   4.556
  180DOPC  C31622131   6.431   3.000   4.630
  180DOPC  H16X22132   6.356   3.071   4.590
  180DOPC  H16Y22133   6.377   2.910   4.668
  180DOPC  C31722134   6.501   3.069   4.749
  180DOPC  H17X22135   6.426   3.083   4.829
  180DOPC  H17Y22136   6.580   3.002   4.788
  180DOPC  C31822137   6.562   3.206   4.715
  180DOPC  H18X22138   6.643   3.195   4.639
  180DOPC  H18Y22139   6.484   3.273   4.673
  180DOPC  H18Z22140   6.605   3.253   4.805
  181DOPC     N22141   0.790   3.846   3.002
  181DOPC   C1222142   0.936   3.886   2.977
  181DOPC  H12A22143   0.981   3.916   3.071
  181DOPC  H12B22144   0.938   3.973   2.913
  181DOPC   C1322145   0.782   3.757   3.121
  181DOPC  H13A22146   0.848   3.672   3.109
  181DOPC  H13B22147   0.817   3.806   3.210
  181DOPC  H13C22148   0.681   3.720   3.138
  181DOPC   C1422149   0.737   3.773   2.882
  181DOPC  H14A22150   0.635   3.741   2.898
  181DOPC  H14B22151   0.741   3.836   2.794
  181DOPC  H14C22152   0.798   3.686   2.864
  181DOPC   C1522153   0.707   3.969   3.027
  181DOPC  H15A22154   0.604   3.943   3.045
  181DOPC  H15B22155   0.706   4.035   2.941
  181DOPC  H15C22156   0.743   4.025   3.111
  181DOPC   C1122157   1.033   3.781   2.916
  181DOPC  H11A22158   0.996   3.751   2.816
  181DOPC  H11B22159   1.131   3.831   2.899
  181DOPC     P22160   1.123   3.677   3.137
  181DOPC   O1322161   1.138   3.821   3.169
  181DOPC   O1422162   1.242   3.590   3.138
  181DOPC   O1222163   1.051   3.664   2.996
  181DOPC   O1122164   1.014   3.613   3.232
  181DOPC    C122165   0.979   3.474   3.218
  181DOPC    HA22166   1.066   3.410   3.194
  181DOPC    HB22167   0.905   3.464   3.136
  181DOPC    C222168   0.915   3.417   3.348
  181DOPC    HS22169   0.871   3.318   3.321
  181DOPC   O2122170   0.810   3.507   3.390
  181DOPC   C2122171   0.729   3.457   3.482
  181DOPC   O2222172   0.728   3.342   3.522
  181DOPC   C2222173   0.635   3.566   3.532
  181DOPC   H2R22174   0.585   3.527   3.624
  181DOPC   H2S22175   0.557   3.581   3.454
  181DOPC    C322176   1.021   3.390   3.460
  181DOPC    HX22177   1.085   3.308   3.421
  181DOPC    HY22178   0.970   3.352   3.551
  181DOPC   O3122179   1.102   3.505   3.493
  181DOPC   C3122180   1.199   3.476   3.580
  181DOPC   O3222181   1.215   3.367   3.631
  181DOPC   C3222182   1.290   3.596   3.608
  181DOPC   H2X22183   1.260   3.641   3.705
  181DOPC   H2Y22184   1.392   3.555   3.620
  181DOPC   C2322185   0.707   3.699   3.562
  181DOPC   H3R22186   0.633   3.772   3.600
  181DOPC   H3S22187   0.750   3.741   3.468
  181DOPC   C2422188   0.819   3.688   3.666
  181DOPC   H4R22189   0.862   3.789   3.683
  181DOPC   H4S22190   0.901   3.625   3.625
  181DOPC   C2522191   0.773   3.631   3.802
  181DOPC   H5R22192   0.740   3.526   3.789
  181DOPC   H5S22193   0.686   3.690   3.837
  181DOPC   C2622194   0.883   3.635   3.909
  181DOPC   H6R22195   0.842   3.596   4.004
  181DOPC   H6S22196   0.914   3.741   3.926
  181DOPC   C2722197   1.007   3.553   3.870
  181DOPC   H7R22198   1.053   3.598   3.779
  181DOPC   H7S22199   0.973   3.450   3.844
  181DOPC   C2822200   1.111   3.548   3.982
  181DOPC   H8R22201   1.058   3.517   4.074
  181DOPC   H8S22202   1.149   3.652   3.999
  181DOPC   C2922203   1.223   3.452   3.953
  181DOPC   H9R22204   1.195   3.365   3.892
  181DOPC  C21022205   1.352   3.464   3.992
  181DOPC  H10R22206   1.423   3.384   3.964
  181DOPC  C21122207   1.411   3.576   4.074
  181DOPC  H11R22208   1.360   3.672   4.054
  181DOPC  H11S22209   1.517   3.590   4.044
  181DOPC  C21222210   1.407   3.551   4.227
  181DOPC  H12R22211   1.476   3.624   4.274
  181DOPC  H12S22212   1.447   3.449   4.250
  181DOPC  C21322213   1.267   3.567   4.287
  181DOPC  H13R22214   1.201   3.493   4.237
  181DOPC  H13S22215   1.227   3.668   4.264
  181DOPC  C21422216   1.255   3.540   4.438
  181DOPC  H14R22217   1.312   3.448   4.465
  181DOPC  H14S22218   1.148   3.517   4.457
  181DOPC  C21522219   1.290   3.657   4.530
  181DOPC  H15R22220   1.249   3.634   4.631
  181DOPC  H15S22221   1.239   3.749   4.494
  181DOPC  C21622222   1.440   3.686   4.548
  181DOPC  H16R22223   1.451   3.768   4.622
  181DOPC  H16S22224   1.483   3.725   4.453
  181DOPC  C21722225   1.522   3.565   4.595
  181DOPC  H17R22226   1.520   3.487   4.517
  181DOPC  H17S22227   1.474   3.523   4.686
  181DOPC  C21822228   1.667   3.601   4.625
  181DOPC  H18R22229   1.724   3.510   4.654
  181DOPC  H18S22230   1.674   3.674   4.708
  181DOPC  H18T22231   1.715   3.645   4.535
  181DOPC   C3322232   1.293   3.704   3.497
  181DOPC   H3X22233   1.296   3.657   3.397
  181DOPC   H3Y22234   1.386   3.764   3.507
  181DOPC   C3422235   1.177   3.805   3.501
  181DOPC   H4X22236   1.079   3.753   3.494
  181DOPC   H4Y22237   1.186   3.868   3.410
  181DOPC   C3522238   1.178   3.900   3.622
  181DOPC   H5X22239   1.281   3.940   3.634
  181DOPC   H5Y22240   1.152   3.844   3.715
  181DOPC   C3622241   1.083   4.018   3.602
  181DOPC   H6X22242   1.108   4.066   3.505
  181DOPC   H6Y22243   0.978   3.981   3.595
  181DOPC   C3722244   1.092   4.126   3.711
  181DOPC   H7X22245   1.198   4.158   3.721
  181DOPC   H7Y22246   1.034   4.214   3.676
  181DOPC   C3822247   1.038   4.080   3.847
  181DOPC   H8X22248   1.101   3.996   3.884
  181DOPC   H8Y22249   0.936   4.039   3.832
  181DOPC   C3922250   1.031   4.194   3.946
  181DOPC   H9X22251   0.976   4.282   3.910
  181DOPC  C31022252   1.084   4.198   4.070
  181DOPC  H10X22253   1.069   4.289   4.130
  181DOPC  C31122254   1.162   4.089   4.139
  181DOPC  H11X22255   1.243   4.135   4.198
  181DOPC  H11Y22256   1.212   4.021   4.066
  181DOPC  C31222257   1.076   4.003   4.234
  181DOPC  H12X22258   1.012   4.069   4.297
  181DOPC  H12Y22259   1.144   3.948   4.302
  181DOPC  C31322260   0.988   3.900   4.161
  181DOPC  H13X22261   0.936   3.950   4.076
  181DOPC  H13Y22262   1.053   3.821   4.118
  181DOPC  C31422263   0.880   3.836   4.249
  181DOPC  H14X22264   0.810   3.916   4.282
  181DOPC  H14Y22265   0.821   3.763   4.189
  181DOPC  C31522266   0.935   3.765   4.374
  181DOPC  H15X22267   1.000   3.836   4.430
  181DOPC  H15Y22268   0.999   3.679   4.342
  181DOPC  C31622269   0.824   3.715   4.467
  181DOPC  H16X22270   0.758   3.800   4.493
  181DOPC  H16Y22271   0.762   3.640   4.412
  181DOPC  C31722272   0.877   3.652   4.597
  181DOPC  H17X22273   0.789   3.614   4.654
  181DOPC  H17Y22274   0.940   3.564   4.571
  181DOPC  C31822275   0.958   3.747   4.686
  181DOPC  H18X22276   1.051   3.780   4.635
  181DOPC  H18Y22277   0.898   3.837   4.710
  181DOPC  H18Z22278   0.987   3.697   4.781
  182DOPC     N22279   2.511   0.886   3.101
  182DOPC   C1222280   2.488   1.004   3.007
  182DOPC  H12A22281   2.456   0.966   2.912
  182DOPC  H12B22282   2.582   1.055   2.991
  182DOPC   C1322283   2.569   0.933   3.231
  182DOPC  H13A22284   2.587   0.850   3.297
  182DOPC  H13B22285   2.663   0.982   3.213
  182DOPC  H13C22286   2.502   1.002   3.279
  182DOPC   C1422287   2.611   0.791   3.039
  182DOPC  H14A22288   2.707   0.839   3.029
  182DOPC  H14B22289   2.626   0.704   3.101
  182DOPC  H14C22290   2.579   0.758   2.941
  182DOPC   C1522291   2.382   0.814   3.123
  182DOPC  H15A22292   2.308   0.884   3.159
  182DOPC  H15B22293   2.391   0.732   3.192
  182DOPC  H15C22294   2.343   0.778   3.029
  182DOPC   C1122295   2.383   1.111   3.051
  182DOPC  H11A22296   2.406   1.143   3.155
  182DOPC  H11B22297   2.396   1.201   2.988
  182DOPC     P22298   2.183   1.040   2.903
  182DOPC   O1322299   2.227   0.908   2.851
  182DOPC   O1422300   2.206   1.158   2.818
  182DOPC   O1222301   2.248   1.062   3.046
  182DOPC   O1122302   2.027   1.031   2.930
  182DOPC    C122303   1.972   0.936   3.022
  182DOPC    HA22304   2.046   0.863   3.061
  182DOPC    HB22305   1.894   0.876   2.970
  182DOPC    C222306   1.903   1.003   3.144
  182DOPC    HS22307   1.838   1.086   3.108
  182DOPC   O2122308   2.005   1.045   3.236
  182DOPC   C2122309   2.036   1.173   3.233
  182DOPC   O2222310   1.981   1.260   3.166
  182DOPC   C2222311   2.156   1.200   3.325
  182DOPC   H2R22312   2.221   1.272   3.271
  182DOPC   H2S22313   2.213   1.105   3.339
  182DOPC    C322314   1.808   0.902   3.214
  182DOPC    HX22315   1.724   0.879   3.145
  182DOPC    HY22316   1.761   0.952   3.302
  182DOPC   O3122317   1.877   0.779   3.245
  182DOPC   C3122318   1.925   0.775   3.369
  182DOPC   O3222319   1.902   0.855   3.458
  182DOPC   C3222320   2.030   0.664   3.381
  182DOPC   H2X22321   1.979   0.570   3.412
  182DOPC   H2Y22322   2.076   0.648   3.282
  182DOPC   C2322323   2.112   1.259   3.461
  182DOPC   H3R22324   2.037   1.339   3.443
  182DOPC   H3S22325   2.199   1.307   3.511
  182DOPC   C2422326   2.054   1.155   3.556
  182DOPC   H4R22327   1.994   1.082   3.497
  182DOPC   H4S22328   1.984   1.203   3.628
  182DOPC   C2522329   2.161   1.079   3.636
  182DOPC   H5R22330   2.256   1.073   3.579
  182DOPC   H5S22331   2.125   0.974   3.649
  182DOPC   C2622332   2.185   1.139   3.775
  182DOPC   H6R22333   2.087   1.148   3.826
  182DOPC   H6S22334   2.228   1.241   3.766
  182DOPC   C2722335   2.277   1.051   3.861
  182DOPC   H7R22336   2.381   1.057   3.824
  182DOPC   H7S22337   2.243   0.946   3.847
  182DOPC   C2822338   2.270   1.080   4.013
  182DOPC   H8R22339   2.322   0.998   4.066
  182DOPC   H8S22340   2.163   1.076   4.043
  182DOPC   C2922341   2.330   1.212   4.052
  182DOPC   H9R22342   2.368   1.274   3.969
  182DOPC  C21022343   2.339   1.258   4.178
  182DOPC  H10R22344   2.385   1.356   4.195
  182DOPC  C21122345   2.292   1.188   4.304
  182DOPC  H11R22346   2.378   1.178   4.374
  182DOPC  H11S22347   2.256   1.085   4.285
  182DOPC  C21222348   2.181   1.267   4.376
  182DOPC  H12R22349   2.084   1.245   4.327
  182DOPC  H12S22350   2.199   1.376   4.367
  182DOPC  C21322351   2.171   1.238   4.527
  182DOPC  H13R22352   2.088   1.298   4.569
  182DOPC  H13S22353   2.265   1.272   4.577
  182DOPC  C21422354   2.148   1.090   4.563
  182DOPC  H14R22355   2.236   1.029   4.534
  182DOPC  H14S22356   2.061   1.053   4.504
  182DOPC  C21522357   2.119   1.071   4.713
  182DOPC  H15R22358   2.042   1.145   4.744
  182DOPC  H15S22359   2.212   1.094   4.770
  182DOPC  C21622360   2.070   0.930   4.748
  182DOPC  H16R22361   2.139   0.856   4.700
  182DOPC  H16S22362   1.969   0.915   4.704
  182DOPC  C21722363   2.064   0.901   4.899
  182DOPC  H17R22364   2.166   0.913   4.942
  182DOPC  H17S22365   2.035   0.794   4.912
  182DOPC  C21822366   1.967   0.989   4.977
  182DOPC  H18R22367   1.995   1.096   4.967
  182DOPC  H18S22368   1.967   0.962   5.084
  182DOPC  H18T22369   1.864   0.976   4.937
  182DOPC   C3322370   2.135   0.708   3.485
  182DOPC   H3X22371   2.091   0.702   3.586
  182DOPC   H3Y22372   2.163   0.814   3.467
  182DOPC   C3422373   2.266   0.628   3.480
  182DOPC   H4X22374   2.303   0.625   3.376
  182DOPC   H4Y22375   2.246   0.523   3.512
  182DOPC   C3522376   2.374   0.690   3.571
  182DOPC   H5X22377   2.387   0.797   3.543
  182DOPC   H5Y22378   2.470   0.638   3.552
  182DOPC   C3622379   2.339   0.680   3.720
  182DOPC   H6X22380   2.244   0.735   3.741
  182DOPC   H6Y22381   2.321   0.573   3.743
  182DOPC   C3722382   2.449   0.736   3.812
  182DOPC   H7X22383   2.546   0.687   3.791
  182DOPC   H7Y22384   2.462   0.844   3.790
  182DOPC   C3822385   2.416   0.720   3.962
  182DOPC   H8X22386   2.330   0.786   3.984
  182DOPC   H8Y22387   2.503   0.758   4.021
  182DOPC   C3922388   2.387   0.577   4.002
  182DOPC   H9X22389   2.442   0.501   3.946
  182DOPC  C31022390   2.300   0.538   4.098
  182DOPC  H10X22391   2.289   0.430   4.118
  182DOPC  C31122392   2.216   0.628   4.184
  182DOPC  H11X22393   2.111   0.590   4.187
  182DOPC  H11Y22394   2.210   0.731   4.144
  182DOPC  C31222395   2.269   0.637   4.329
  182DOPC  H12X22396   2.272   0.534   4.372
  182DOPC  H12Y22397   2.197   0.697   4.389
  182DOPC  C31322398   2.408   0.700   4.341
  182DOPC  H13X22399   2.477   0.649   4.271
  182DOPC  H13Y22400   2.404   0.807   4.312
  182DOPC  C31422401   2.469   0.686   4.482
  182DOPC  H14X22402   2.450   0.582   4.518
  182DOPC  H14Y22403   2.579   0.699   4.475
  182DOPC  C31522404   2.417   0.787   4.585
  182DOPC  H15X22405   2.307   0.795   4.576
  182DOPC  H15Y22406   2.460   0.886   4.562
  182DOPC  C31622407   2.453   0.745   4.728
  182DOPC  H16X22408   2.387   0.661   4.758
  182DOPC  H16Y22409   2.557   0.707   4.730
  182DOPC  C31722410   2.440   0.859   4.830
  182DOPC  H17X22411   2.522   0.932   4.811
  182DOPC  H17Y22412   2.345   0.912   4.811
  182DOPC  C31822413   2.444   0.813   4.976
  182DOPC  H18X22414   2.437   0.899   5.044
  182DOPC  H18Y22415   2.359   0.744   4.996
  182DOPC  H18Z22416   2.538   0.758   4.997
  183DOPC     N22417   6.674   5.200   3.046
  183DOPC   C1222418   6.680   5.303   2.934
  183DOPC  H12A22419   6.586   5.356   2.929
  183DOPC  H12B22420   6.692   5.253   2.839
  183DOPC   C1322421   6.630   5.270   3.172
  183DOPC  H13A22422   6.528   5.304   3.163
  183DOPC  H13B22423   6.635   5.205   3.258
  183DOPC  H13C22424   6.691   5.357   3.190
  183DOPC   C1422425   6.808   5.138   3.067
  183DOPC  H14A22426   6.842   5.089   2.977
  183DOPC  H14B22427   6.881   5.215   3.089
  183DOPC  H14C22428   6.807   5.067   3.148
  183DOPC   C1522429   6.574   5.094   3.012
  183DOPC  H15A22430   6.606   5.036   2.926
  183DOPC  H15B22431   6.478   5.139   2.990
  183DOPC  H15C22432   6.560   5.027   3.095
  183DOPC   C1122433   6.794   5.405   2.944
  183DOPC  H11A22434   6.752   5.506   2.927
  183DOPC  H11B22435   6.837   5.409   3.046
  183DOPC     P22436   7.040   5.334   2.871
  183DOPC   O1322437   7.126   5.443   2.819
  183DOPC   O1422438   7.062   5.200   2.812
  183DOPC   O1222439   6.890   5.376   2.843
  183DOPC   O1122440   7.051   5.322   3.028
  183DOPC    C122441   7.176   5.347   3.093
  183DOPC    HA22442   7.227   5.436   3.049
  183DOPC    HB22443   7.244   5.260   3.081
  183DOPC    C222444   7.157   5.382   3.244
  183DOPC    HS22445   7.254   5.417   3.285
  183DOPC   O2122446   7.110   5.270   3.321
  183DOPC   C2122447   7.192   5.170   3.342
  183DOPC   O2222448   7.299   5.149   3.286
  183DOPC   C2222449   7.135   5.083   3.454
  183DOPC   H2R22450   7.146   4.977   3.421
  183DOPC   H2S22451   7.026   5.105   3.465
  183DOPC    C322452   7.055   5.498   3.259
  183DOPC    HX22453   6.955   5.463   3.224
  183DOPC    HY22454   7.085   5.579   3.190
  183DOPC   O3122455   7.051   5.553   3.393
  183DOPC   C3122456   6.951   5.514   3.471
  183DOPC   O3222457   6.869   5.427   3.445
  183DOPC   C3222458   6.951   5.597   3.600
  183DOPC   H2X22459   6.995   5.696   3.578
  183DOPC   H2Y22460   6.844   5.613   3.628
  183DOPC   C2322461   7.208   5.104   3.589
  183DOPC   H3R22462   7.199   5.210   3.621
  183DOPC   H3S22463   7.316   5.082   3.575
  183DOPC   C2422464   7.154   5.013   3.700
  183DOPC   H4R22465   7.230   5.003   3.781
  183DOPC   H4S22466   7.138   4.911   3.658
  183DOPC   C2522467   7.023   5.061   3.764
  183DOPC   H5R22468   6.968   4.972   3.801
  183DOPC   H5S22469   6.959   5.110   3.687
  183DOPC   C2622470   7.044   5.155   3.883
  183DOPC   H6R22471   7.110   5.239   3.852
  183DOPC   H6S22472   7.097   5.099   3.964
  183DOPC   C2722473   6.914   5.214   3.940
  183DOPC   H7R22474   6.871   5.284   3.865
  183DOPC   H7S22475   6.938   5.274   4.031
  183DOPC   C2822476   6.804   5.111   3.975
  183DOPC   H8R22477   6.773   5.058   3.883
  183DOPC   H8S22478   6.715   5.169   4.008
  183DOPC   C2922479   6.844   5.011   4.081
  183DOPC   H9R22480   6.892   4.920   4.042
  183DOPC  C21022481   6.828   5.026   4.213
  183DOPC  H10R22482   6.862   4.946   4.281
  183DOPC  C21122483   6.768   5.146   4.282
  183DOPC  H11R22484   6.667   5.122   4.321
  183DOPC  H11S22485   6.756   5.232   4.213
  183DOPC  C21222486   6.855   5.193   4.400
  183DOPC  H12R22487   6.961   5.202   4.368
  183DOPC  H12S22488   6.850   5.118   4.482
  183DOPC  C21322489   6.811   5.331   4.452
  183DOPC  H13R22490   6.701   5.329   4.472
  183DOPC  H13S22491   6.828   5.405   4.372
  183DOPC  C21422492   6.885   5.377   4.579
  183DOPC  H14R22493   6.857   5.482   4.599
  183DOPC  H14S22494   6.995   5.377   4.558
  183DOPC  C21522495   6.856   5.294   4.705
  183DOPC  H15R22496   6.913   5.338   4.789
  183DOPC  H15S22497   6.892   5.190   4.691
  183DOPC  C21622498   6.707   5.292   4.744
  183DOPC  H16R22499   6.650   5.232   4.671
  183DOPC  H16S22500   6.669   5.396   4.739
  183DOPC  C21722501   6.683   5.238   4.886
  183DOPC  H17R22502   6.577   5.256   4.913
  183DOPC  H17S22503   6.745   5.295   4.958
  183DOPC  C21822504   6.712   5.088   4.901
  183DOPC  H18R22505   6.818   5.066   4.880
  183DOPC  H18S22506   6.649   5.029   4.831
  183DOPC  H18T22507   6.689   5.055   5.005
  183DOPC   C3322508   7.025   5.528   3.716
  183DOPC   H3X22509   7.132   5.516   3.688
  183DOPC   H3Y22510   6.984   5.426   3.732
  183DOPC   C3422511   7.016   5.607   3.847
  183DOPC   H4X22512   6.911   5.604   3.883
  183DOPC   H4Y22513   7.042   5.713   3.828
  183DOPC   C3522514   7.109   5.550   3.955
  183DOPC   H5X22515   7.214   5.555   3.919
  183DOPC   H5Y22516   7.085   5.443   3.970
  183DOPC   C3622517   7.099   5.622   4.091
  183DOPC   H6X22518   7.127   5.729   4.079
  183DOPC   H6Y22519   6.994   5.618   4.126
  183DOPC   C3722520   7.189   5.556   4.196
  183DOPC   H7X22521   7.169   5.447   4.194
  183DOPC   H7Y22522   7.295   5.572   4.165
  183DOPC   C3822523   7.168   5.609   4.339
  183DOPC   H8X22524   7.061   5.595   4.366
  183DOPC   H8Y22525   7.188   5.718   4.339
  183DOPC   C3922526   7.256   5.535   4.436
  183DOPC   H9X22527   7.258   5.426   4.421
  183DOPC  C31022528   7.329   5.587   4.536
  183DOPC  H10X22529   7.391   5.520   4.597
  183DOPC  C31122530   7.336   5.733   4.573
  183DOPC  H11X22531   7.233   5.777   4.575
  183DOPC  H11Y22532   7.393   5.790   4.497
  183DOPC  C31222533   7.400   5.756   4.711
  183DOPC  H12X22534   7.399   5.866   4.731
  183DOPC  H12Y22535   7.507   5.724   4.709
  183DOPC  C31322536   7.329   5.683   4.825
  183DOPC  H13X22537   7.221   5.709   4.823
  183DOPC  H13Y22538   7.337   5.574   4.806
  183DOPC  C31422539   7.387   5.709   4.965
  183DOPC  H14X22540   7.329   5.649   5.038
  183DOPC  H14Y22541   7.491   5.672   4.968
  183DOPC  C31522542   7.385   5.856   5.010
  183DOPC  H15X22543   7.463   5.911   4.954
  183DOPC  H15Y22544   7.412   5.861   5.118
  183DOPC  C31622545   7.251   5.929   4.989
  183DOPC  H16X22546   7.261   6.032   5.028
  183DOPC  H16Y22547   7.231   5.936   4.880
  183DOPC  C31722548   7.131   5.862   5.056
  183DOPC  H17X22549   7.125   5.755   5.025
  183DOPC  H17Y22550   7.145   5.863   5.167
  183DOPC  C31822551   6.998   5.929   5.020
  183DOPC  H18X22552   6.912   5.875   5.065
  183DOPC  H18Y22553   6.997   6.034   5.055
  183DOPC  H18Z22554   6.985   5.929   4.909
  184DOPC     N22555   4.676   0.521   3.056
  184DOPC   C1222556   4.684   0.606   2.929
  184DOPC  H12A22557   4.596   0.668   2.921
  184DOPC  H12B22558   4.682   0.539   2.844
  184DOPC   C1322559   4.774   0.408   3.044
  184DOPC  H13A22560   4.756   0.350   2.955
  184DOPC  H13B22561   4.873   0.449   3.033
  184DOPC  H13C22562   4.774   0.344   3.131
  184DOPC   C1422563   4.538   0.465   3.070
  184DOPC  H14A22564   4.466   0.544   3.082
  184DOPC  H14B22565   4.513   0.410   2.981
  184DOPC  H14C22566   4.532   0.399   3.155
  184DOPC   C1522567   4.712   0.604   3.176
  184DOPC  H15A22568   4.646   0.688   3.187
  184DOPC  H15B22569   4.812   0.644   3.163
  184DOPC  H15C22570   4.713   0.546   3.267
  184DOPC   C1122571   4.807   0.699   2.909
  184DOPC  H11A22572   4.797   0.747   2.809
  184DOPC  H11B22573   4.804   0.781   2.983
  184DOPC     P22574   5.046   0.643   3.012
  184DOPC   O1322575   5.166   0.690   2.940
  184DOPC   O1422576   5.057   0.518   3.090
  184DOPC   O1222577   4.928   0.624   2.909
  184DOPC   O1122578   4.994   0.757   3.107
  184DOPC    C122579   5.079   0.812   3.209
  184DOPC    HA22580   5.099   0.919   3.185
  184DOPC    HB22581   5.177   0.762   3.216
  184DOPC    C222582   5.007   0.805   3.346
  184DOPC    HS22583   5.074   0.847   3.424
  184DOPC   O2122584   4.968   0.669   3.377
  184DOPC   C2122585   5.072   0.592   3.408
  184DOPC   O2222586   5.185   0.632   3.429
  184DOPC   C2222587   5.027   0.447   3.419
  184DOPC   H2R22588   5.092   0.389   3.350
  184DOPC   H2S22589   4.922   0.437   3.385
  184DOPC    C322590   4.879   0.894   3.342
  184DOPC    HX22591   4.810   0.850   3.266
  184DOPC    HY22592   4.907   0.994   3.304
  184DOPC   O3122593   4.811   0.899   3.470
  184DOPC   C3122594   4.861   0.990   3.553
  184DOPC   O3222595   4.951   1.067   3.528
  184DOPC   C3222596   4.786   0.982   3.686
  184DOPC   H2X22597   4.678   0.999   3.666
  184DOPC   H2Y22598   4.800   0.880   3.727
  184DOPC   C2322599   5.044   0.393   3.563
  184DOPC   H3R22600   5.148   0.414   3.598
  184DOPC   H3S22601   5.031   0.283   3.563
  184DOPC   C2422602   4.942   0.454   3.661
  184DOPC   H4R22603   4.840   0.428   3.626
  184DOPC   H4S22604   4.951   0.565   3.659
  184DOPC   C2522605   4.959   0.407   3.806
  184DOPC   H5R22606   4.952   0.296   3.810
  184DOPC   H5S22607   4.874   0.447   3.866
  184DOPC   C2622608   5.090   0.453   3.870
  184DOPC   H6R22609   5.099   0.563   3.861
  184DOPC   H6S22610   5.175   0.409   3.814
  184DOPC   C2722611   5.105   0.413   4.018
  184DOPC   H7R22612   5.209   0.435   4.050
  184DOPC   H7S22613   5.092   0.302   4.026
  184DOPC   C2822614   5.008   0.482   4.116
  184DOPC   H8R22615   5.030   0.443   4.218
  184DOPC   H8S22616   4.905   0.450   4.091
  184DOPC   C2922617   5.023   0.632   4.117
  184DOPC   H9R22618   5.127   0.668   4.118
  184DOPC  C21022619   4.923   0.722   4.117
  184DOPC  H10R22620   4.947   0.829   4.120
  184DOPC  C21122621   4.775   0.691   4.117
  184DOPC  H11R22622   4.754   0.601   4.055
  184DOPC  H11S22623   4.719   0.774   4.069
  184DOPC  C21222624   4.718   0.668   4.258
  184DOPC  H12R22625   4.771   0.583   4.306
  184DOPC  H12S22626   4.612   0.639   4.248
  184DOPC  C21322627   4.727   0.792   4.349
  184DOPC  H13R22628   4.685   0.878   4.292
  184DOPC  H13S22629   4.833   0.814   4.372
  184DOPC  C21422630   4.647   0.777   4.479
  184DOPC  H14R22631   4.542   0.750   4.453
  184DOPC  H14S22632   4.645   0.876   4.530
  184DOPC  C21522633   4.703   0.673   4.577
  184DOPC  H15R22634   4.807   0.702   4.604
  184DOPC  H15S22635   4.708   0.574   4.529
  184DOPC  C21622636   4.619   0.663   4.705
  184DOPC  H16R22637   4.521   0.617   4.679
  184DOPC  H16S22638   4.598   0.765   4.744
  184DOPC  C21722639   4.687   0.582   4.815
  184DOPC  H17R22640   4.776   0.637   4.850
  184DOPC  H17S22641   4.723   0.486   4.773
  184DOPC  C21822642   4.594   0.553   4.934
  184DOPC  H18R22643   4.508   0.491   4.902
  184DOPC  H18S22644   4.554   0.648   4.976
  184DOPC  H18T22645   4.649   0.499   5.014
  184DOPC   C3322646   4.839   1.086   3.787
  184DOPC   H3X22647   4.824   1.189   3.747
  184DOPC   H3Y22648   4.948   1.072   3.800
  184DOPC   C3422649   4.772   1.076   3.924
  184DOPC   H4X22650   4.785   0.973   3.963
  184DOPC   H4Y22651   4.663   1.096   3.915
  184DOPC   C3522652   4.834   1.175   4.024
  184DOPC   H5X22653   4.816   1.279   3.989
  184DOPC   H5Y22654   4.944   1.158   4.023
  184DOPC   C3622655   4.786   1.159   4.168
  184DOPC   H6X22656   4.799   1.054   4.201
  184DOPC   H6Y22657   4.852   1.223   4.232
  184DOPC   C3722658   4.640   1.203   4.191
  184DOPC   H7X22659   4.627   1.306   4.151
  184DOPC   H7Y22660   4.574   1.136   4.133
  184DOPC   C3822661   4.597   1.199   4.339
  184DOPC   H8X22662   4.612   1.095   4.377
  184DOPC   H8Y22663   4.488   1.219   4.345
  184DOPC   C3922664   4.671   1.300   4.425
  184DOPC   H9X22665   4.628   1.402   4.422
  184DOPC  C31022666   4.781   1.278   4.499
  184DOPC  H10X22667   4.825   1.363   4.555
  184DOPC  C31122668   4.856   1.148   4.513
  184DOPC  H11X22669   4.948   1.151   4.451
  184DOPC  H11Y22670   4.796   1.062   4.476
  184DOPC  C31222671   4.897   1.118   4.658
  184DOPC  H12X22672   4.806   1.120   4.723
  184DOPC  H12Y22673   4.967   1.196   4.694
  184DOPC  C31322674   4.961   0.980   4.671
  184DOPC  H13X22675   4.884   0.903   4.650
  184DOPC  H13Y22676   5.041   0.969   4.595
  184DOPC  C31422677   5.022   0.950   4.810
  184DOPC  H14X22678   5.047   0.842   4.813
  184DOPC  H14Y22679   5.117   1.007   4.822
  184DOPC  C31522680   4.931   0.985   4.928
  184DOPC  H15X22681   4.828   0.948   4.908
  184DOPC  H15Y22682   4.925   1.096   4.937
  184DOPC  C31622683   4.980   0.925   5.061
  184DOPC  H16X22684   5.087   0.951   5.076
  184DOPC  H16Y22685   4.923   0.973   5.143
  184DOPC  C31722686   4.960   0.773   5.067
  184DOPC  H17X22687   4.858   0.751   5.030
  184DOPC  H17Y22688   5.032   0.723   4.999
  184DOPC  C31822689   4.975   0.714   5.208
  184DOPC  H18X22690   5.081   0.715   5.240
  184DOPC  H18Y22691   4.915   0.772   5.281
  184DOPC  H18Z22692   4.939   0.609   5.208
  185DOPC     N22693   6.326   6.063   3.102
  185DOPC   C1222694   6.377   5.923   3.137
  185DOPC  H12A22695   6.342   5.896   3.235
  185DOPC  H12B22696   6.485   5.926   3.141
  185DOPC   C1322697   6.178   6.062   3.082
  185DOPC  H13A22698   6.154   5.996   3.000
  185DOPC  H13B22699   6.127   6.028   3.171
  185DOPC  H13C22700   6.142   6.161   3.057
  185DOPC   C1422701   6.392   6.109   2.976
  185DOPC  H14A22702   6.497   6.129   2.993
  185DOPC  H14B22703   6.384   6.032   2.901
  185DOPC  H14C22704   6.348   6.200   2.938
  185DOPC   C1522705   6.364   6.163   3.207
  185DOPC  H15A22706   6.471   6.176   3.210
  185DOPC  H15B22707   6.327   6.136   3.305
  185DOPC  H15C22708   6.325   6.261   3.182
  185DOPC   C1122709   6.342   5.807   3.039
  185DOPC  H11A22710   6.373   5.710   3.084
  185DOPC  H11B22711   6.231   5.800   3.028
  185DOPC     P22712   6.554   5.796   2.885
  185DOPC   O1322713   6.605   5.906   2.801
  185DOPC   O1422714   6.571   5.660   2.830
  185DOPC   O1222715   6.400   5.824   2.910
  185DOPC   O1122716   6.615   5.805   3.030
  185DOPC    C122717   6.736   5.875   3.059
  185DOPC    HA22718   6.712   5.982   3.075
  185DOPC    HB22719   6.810   5.869   2.976
  185DOPC    C222720   6.806   5.821   3.188
  185DOPC    HS22721   6.876   5.740   3.157
  185DOPC   O2122722   6.706   5.774   3.281
  185DOPC   C2122723   6.669   5.648   3.259
  185DOPC   O2222724   6.730   5.566   3.193
  185DOPC   C2222725   6.536   5.619   3.326
  185DOPC   H2R22726   6.504   5.519   3.290
  185DOPC   H2S22727   6.460   5.693   3.292
  185DOPC    C322728   6.894   5.930   3.256
  185DOPC    HX22729   6.970   5.964   3.182
  185DOPC    HY22730   6.950   5.884   3.340
  185DOPC   O3122731   6.813   6.042   3.295
  185DOPC   C3122732   6.773   6.044   3.421
  185DOPC   O3222733   6.822   5.981   3.513
  185DOPC   C3222734   6.645   6.128   3.430
  185DOPC   H2X22735   6.656   6.216   3.362
  185DOPC   H2Y22736   6.564   6.063   3.391
  185DOPC   C2322737   6.544   5.616   3.480
  185DOPC   H3R22738   6.641   5.576   3.516
  185DOPC   H3S22739   6.465   5.545   3.515
  185DOPC   C2422740   6.514   5.752   3.543
  185DOPC   H4R22741   6.416   5.788   3.503
  185DOPC   H4S22742   6.592   5.826   3.514
  185DOPC   C2522743   6.504   5.745   3.696
  185DOPC   H5R22744   6.604   5.723   3.739
  185DOPC   H5S22745   6.438   5.659   3.722
  185DOPC   C2622746   6.444   5.871   3.758
  185DOPC   H6R22747   6.365   5.911   3.692
  185DOPC   H6S22748   6.524   5.948   3.765
  185DOPC   C2722749   6.382   5.849   3.897
  185DOPC   H7R22750   6.285   5.797   3.884
  185DOPC   H7S22751   6.360   5.948   3.943
  185DOPC   C2822752   6.466   5.765   3.995
  185DOPC   H8R22753   6.467   5.660   3.957
  185DOPC   H8S22754   6.415   5.763   4.093
  185DOPC   C2922755   6.607   5.815   4.011
  185DOPC   H9R22756   6.628   5.915   3.970
  185DOPC  C21022757   6.706   5.747   4.073
  185DOPC  H10R22758   6.806   5.793   4.081
  185DOPC  C21122759   6.690   5.611   4.135
  185DOPC  H11R22760   6.786   5.555   4.132
  185DOPC  H11S22761   6.617   5.549   4.078
  185DOPC  C21222762   6.642   5.620   4.281
  185DOPC  H12R22763   6.624   5.518   4.319
  185DOPC  H12S22764   6.545   5.674   4.284
  185DOPC  C21322765   6.741   5.691   4.374
  185DOPC  H13R22766   6.762   5.793   4.337
  185DOPC  H13S22767   6.837   5.635   4.375
  185DOPC  C21422768   6.688   5.701   4.518
  185DOPC  H14R22769   6.664   5.599   4.555
  185DOPC  H14S22770   6.593   5.759   4.516
  185DOPC  C21522771   6.786   5.769   4.614
  185DOPC  H15R22772   6.820   5.864   4.567
  185DOPC  H15S22773   6.876   5.705   4.627
  185DOPC  C21622774   6.725   5.802   4.751
  185DOPC  H16R22775   6.636   5.867   4.739
  185DOPC  H16S22776   6.801   5.861   4.807
  185DOPC  C21722777   6.688   5.679   4.835
  185DOPC  H17R22778   6.707   5.703   4.942
  185DOPC  H17S22779   6.756   5.595   4.809
  185DOPC  C21822780   6.542   5.634   4.822
  185DOPC  H18R22781   6.519   5.600   4.718
  185DOPC  H18S22782   6.473   5.718   4.846
  185DOPC  H18T22783   6.520   5.550   4.891
  185DOPC   C3322784   6.609   6.174   3.573
  185DOPC   H3X22785   6.670   6.263   3.600
  185DOPC   H3Y22786   6.632   6.094   3.647
  185DOPC   C3422787   6.459   6.208   3.585
  185DOPC   H4X22788   6.401   6.114   3.588
  185DOPC   H4Y22789   6.428   6.264   3.494
  185DOPC   C3522790   6.422   6.295   3.706
  185DOPC   H5X22791   6.311   6.308   3.709
  185DOPC   H5Y22792   6.465   6.396   3.691
  185DOPC   C3622793   6.470   6.244   3.843
  185DOPC   H6X22794   6.422   6.146   3.864
  185DOPC   H6Y22795   6.580   6.229   3.840
  185DOPC   C3722796   6.435   6.343   3.955
  185DOPC   H7X22797   6.480   6.442   3.933
  185DOPC   H7Y22798   6.325   6.358   3.955
  185DOPC   C3822799   6.478   6.298   4.096
  185DOPC   H8X22800   6.428   6.201   4.117
  185DOPC   H8Y22801   6.438   6.371   4.169
  185DOPC   C3922802   6.628   6.287   4.112
  185DOPC   H9X22803   6.687   6.358   4.053
  185DOPC  C31022804   6.692   6.199   4.192
  185DOPC  H10X22805   6.802   6.199   4.194
  185DOPC  C31122806   6.625   6.096   4.279
  185DOPC  H11X22807   6.617   5.999   4.225
  185DOPC  H11Y22808   6.522   6.126   4.306
  185DOPC  C31222809   6.702   6.069   4.410
  185DOPC  H12X22810   6.803   6.029   4.388
  185DOPC  H12Y22811   6.647   5.989   4.465
  185DOPC  C31322812   6.713   6.191   4.503
  185DOPC  H13X22813   6.792   6.258   4.464
  185DOPC  H13Y22814   6.617   6.247   4.501
  185DOPC  C31422815   6.744   6.153   4.648
  185DOPC  H14X22816   6.655   6.103   4.692
  185DOPC  H14Y22817   6.828   6.080   4.652
  185DOPC  C31522818   6.782   6.275   4.733
  185DOPC  H15X22819   6.698   6.348   4.727
  185DOPC  H15Y22820   6.872   6.323   4.688
  185DOPC  C31622821   6.811   6.244   4.880
  185DOPC  H16X22822   6.890   6.166   4.887
  185DOPC  H16Y22823   6.850   6.336   4.928
  185DOPC  C31722824   6.687   6.197   4.959
  185DOPC  H17X22825   6.604   6.268   4.939
  185DOPC  H17Y22826   6.655   6.098   4.921
  185DOPC  C31822827   6.711   6.189   5.110
  185DOPC  H18X22828   6.789   6.114   5.133
  185DOPC  H18Y22829   6.744   6.288   5.149
  185DOPC  H18Z22830   6.618   6.160   5.163
  186DOPC     N22831   0.455   2.982   2.970
  186DOPC   C1222832   0.398   3.081   2.869
  186DOPC  H12A22833   0.332   3.027   2.802
  186DOPC  H12B22834   0.480   3.122   2.811
  186DOPC   C1322835   0.341   2.915   3.037
  186DOPC  H13A22836   0.372   2.847   3.115
  186DOPC  H13B22837   0.278   2.990   3.083
  186DOPC  H13C22838   0.279   2.864   2.965
  186DOPC   C1422839   0.536   3.055   3.073
  186DOPC  H14A22840   0.620   3.107   3.027
  186DOPC  H14B22841   0.475   3.129   3.121
  186DOPC  H14C22842   0.572   2.989   3.150
  186DOPC   C1522843   0.539   2.880   2.900
  186DOPC  H15A22844   0.583   2.810   2.969
  186DOPC  H15B22845   0.620   2.926   2.846
  186DOPC  H15C22846   0.480   2.822   2.830
  186DOPC   C1122847   0.316   3.201   2.924
  186DOPC  H11A22848   0.383   3.260   2.991
  186DOPC  H11B22849   0.290   3.266   2.838
  186DOPC     P22850   0.143   3.216   3.124
  186DOPC   O1322851  -0.001   3.243   3.105
  186DOPC   O1422852   0.229   3.331   3.159
  186DOPC   O1222853   0.196   3.158   2.987
  186DOPC   O1122854   0.167   3.093   3.219
  186DOPC    C122855   0.078   2.980   3.212
  186DOPC    HA22856   0.137   2.888   3.234
  186DOPC    HB22857   0.035   2.964   3.111
  186DOPC    C222858  -0.040   2.984   3.315
  186DOPC    HS22859  -0.119   3.044   3.266
  186DOPC   O2122860   0.005   3.051   3.435
  186DOPC   C2122861  -0.094   3.098   3.509
  186DOPC   O2222862  -0.212   3.088   3.484
  186DOPC   C2222863  -0.041   3.167   3.636
  186DOPC   H2R22864  -0.075   3.104   3.721
  186DOPC   H2S22865  -0.094   3.264   3.645
  186DOPC    C322866  -0.096   2.840   3.342
  186DOPC    HX22867  -0.149   2.808   3.250
  186DOPC    HY22868  -0.171   2.846   3.424
  186DOPC   O3122869   0.009   2.745   3.373
  186DOPC   C3122870  -0.036   2.624   3.409
  186DOPC   O3222871  -0.151   2.598   3.438
  186DOPC   C3222872   0.079   2.522   3.403
  186DOPC   H2X22873   0.039   2.432   3.350
  186DOPC   H2Y22874   0.158   2.565   3.339
  186DOPC   C2322875   0.112   3.188   3.646
  186DOPC   H3R22876   0.142   3.276   3.586
  186DOPC   H3S22877   0.167   3.102   3.603
  186DOPC   C2422878   0.159   3.202   3.792
  186DOPC   H4R22879   0.134   3.108   3.847
  186DOPC   H4S22880   0.102   3.283   3.843
  186DOPC   C2522881   0.310   3.229   3.805
  186DOPC   H5R22882   0.332   3.331   3.769
  186DOPC   H5S22883   0.364   3.158   3.739
  186DOPC   C2622884   0.363   3.211   3.948
  186DOPC   H6R22885   0.473   3.229   3.948
  186DOPC   H6S22886   0.346   3.106   3.981
  186DOPC   C2722887   0.297   3.306   4.049
  186DOPC   H7R22888   0.188   3.285   4.052
  186DOPC   H7S22889   0.312   3.410   4.012
  186DOPC   C2822890   0.354   3.296   4.192
  186DOPC   H8R22891   0.461   3.326   4.190
  186DOPC   H8S22892   0.351   3.189   4.224
  186DOPC   C2922893   0.274   3.386   4.282
  186DOPC   H9R22894   0.265   3.489   4.246
  186DOPC  C21022895   0.212   3.353   4.397
  186DOPC  H10R22896   0.155   3.432   4.448
  186DOPC  C21122897   0.207   3.219   4.465
  186DOPC  H11R22898   0.293   3.156   4.432
  186DOPC  H11S22899   0.114   3.165   4.437
  186DOPC  C21222900   0.215   3.229   4.618
  186DOPC  H12R22901   0.308   3.284   4.646
  186DOPC  H12S22902   0.227   3.126   4.659
  186DOPC  C21322903   0.095   3.296   4.688
  186DOPC  H13R22904   0.083   3.400   4.649
  186DOPC  H13S22905   0.118   3.305   4.796
  186DOPC  C21422906  -0.040   3.224   4.673
  186DOPC  H14R22907  -0.071   3.225   4.567
  186DOPC  H14S22908  -0.117   3.282   4.730
  186DOPC  C21522909  -0.042   3.078   4.724
  186DOPC  H15R22910   0.015   3.017   4.651
  186DOPC  H15S22911  -0.147   3.041   4.725
  186DOPC  C21622912   0.020   3.056   4.863
  186DOPC  H16R22913   0.128   3.083   4.859
  186DOPC  H16S22914   0.015   2.948   4.888
  186DOPC  C21722915  -0.043   3.137   4.977
  186DOPC  H17R22916  -0.146   3.100   4.995
  186DOPC  H17S22917  -0.050   3.244   4.948
  186DOPC  C21822918   0.040   3.127   5.106
  186DOPC  H18R22919  -0.003   3.190   5.187
  186DOPC  H18S22920   0.143   3.162   5.087
  186DOPC  H18T22921   0.044   3.021   5.141
  186DOPC   C3322922   0.141   2.478   3.539
  186DOPC   H3X22923   0.117   2.372   3.559
  186DOPC   H3Y22924   0.099   2.537   3.623
  186DOPC   C3422925   0.294   2.496   3.535
  186DOPC   H4X22926   0.317   2.604   3.522
  186DOPC   H4Y22927   0.329   2.446   3.442
  186DOPC   C3522928   0.381   2.440   3.649
  186DOPC   H5X22929   0.486   2.457   3.618
  186DOPC   H5Y22930   0.368   2.330   3.656
  186DOPC   C3622931   0.364   2.504   3.788
  186DOPC   H6X22932   0.458   2.489   3.845
  186DOPC   H6Y22933   0.349   2.614   3.777
  186DOPC   C3722934   0.249   2.443   3.870
  186DOPC   H7X22935   0.156   2.453   3.810
  186DOPC   H7Y22936   0.269   2.335   3.884
  186DOPC   C3822937   0.232   2.509   4.008
  186DOPC   H8X22938   0.245   2.618   3.997
  186DOPC   H8Y22939   0.312   2.473   4.076
  186DOPC   C3922940   0.094   2.481   4.062
  186DOPC   H9X22941   0.013   2.494   3.989
  186DOPC  C31022942   0.061   2.444   4.187
  186DOPC  H10X22943  -0.044   2.428   4.212
  186DOPC  C31122944   0.158   2.423   4.300
  186DOPC  H11X22945   0.243   2.494   4.297
  186DOPC  H11Y22946   0.201   2.321   4.293
  186DOPC  C31222947   0.087   2.435   4.437
  186DOPC  H12X22948   0.156   2.394   4.514
  186DOPC  H12Y22949  -0.006   2.374   4.440
  186DOPC  C31322950   0.053   2.579   4.476
  186DOPC  H13X22951   0.142   2.642   4.454
  186DOPC  H13Y22952  -0.030   2.618   4.412
  186DOPC  C31422953   0.016   2.592   4.625
  186DOPC  H14X22954  -0.095   2.589   4.635
  186DOPC  H14Y22955   0.056   2.503   4.678
  186DOPC  C31522956   0.073   2.717   4.693
  186DOPC  H15X22957   0.036   2.720   4.798
  186DOPC  H15Y22958   0.036   2.807   4.640
  186DOPC  C31622959   0.227   2.718   4.696
  186DOPC  H16X22960   0.262   2.619   4.732
  186DOPC  H16Y22961   0.266   2.731   4.592
  186DOPC  C31722962   0.289   2.827   4.783
  186DOPC  H17X22963   0.249   2.926   4.750
  186DOPC  H17Y22964   0.257   2.811   4.888
  186DOPC  C31822965   0.441   2.828   4.773
  186DOPC  H18X22966   0.482   2.726   4.786
  186DOPC  H18Y22967   0.474   2.866   4.674
  186DOPC  H18Z22968   0.485   2.893   4.852
  187DOPC     N22969   5.698   1.160   2.895
  187DOPC   C1222970   5.828   1.162   2.974
  187DOPC  H12A22971   5.883   1.252   2.953
  187DOPC  H12B22972   5.891   1.080   2.943
  187DOPC   C1322973   5.617   1.282   2.921
  187DOPC  H13A22974   5.669   1.372   2.890
  187DOPC  H13B22975   5.523   1.277   2.868
  187DOPC  H13C22976   5.593   1.288   3.027
  187DOPC   C1422977   5.617   1.040   2.936
  187DOPC  H14A22978   5.665   0.949   2.904
  187DOPC  H14B22979   5.612   1.034   3.044
  187DOPC  H14C22980   5.517   1.042   2.895
  187DOPC   C1522981   5.724   1.147   2.748
  187DOPC  H15A22982   5.787   1.228   2.711
  187DOPC  H15B22983   5.631   1.148   2.694
  187DOPC  H15C22984   5.773   1.053   2.727
  187DOPC   C1122985   5.816   1.146   3.128
  187DOPC  H11A22986   5.909   1.181   3.177
  187DOPC  H11B22987   5.734   1.209   3.168
  187DOPC     P22988   5.910   0.906   3.149
  187DOPC   O1322989   5.998   0.951   3.039
  187DOPC   O1422990   5.853   0.769   3.135
  187DOPC   O1222991   5.789   1.009   3.160
  187DOPC   O1122992   5.978   0.924   3.291
  187DOPC    C122993   5.925   0.850   3.402
  187DOPC    HA22994   5.926   0.741   3.380
  187DOPC    HB22995   5.820   0.880   3.423
  187DOPC    C222996   6.012   0.869   3.530
  187DOPC    HS22997   5.984   0.789   3.603
  187DOPC   O2122998   5.993   0.999   3.589
  187DOPC   C2122999   5.881   1.013   3.657
  187DOPC   O2223000   5.795   0.929   3.673
  187DOPC   C2223001   5.882   1.153   3.720
  187DOPC   H2R23002   5.909   1.225   3.640
  187DOPC   H2S23003   5.963   1.155   3.797
  187DOPC    C323004   6.163   0.850   3.500
  187DOPC    HX23005   6.194   0.923   3.423
  187DOPC    HY23006   6.176   0.749   3.456
  187DOPC   O3123007   6.239   0.857   3.624
  187DOPC   C3123008   6.315   0.965   3.640
  187DOPC   O3223009   6.348   1.045   3.555
  187DOPC   C3223010   6.350   0.978   3.789
  187DOPC   H2X23011   6.349   1.087   3.812
  187DOPC   H2Y23012   6.269   0.929   3.848
  187DOPC   C2323013   5.747   1.196   3.782
  187DOPC   H3R23014   5.666   1.185   3.706
  187DOPC   H3S23015   5.754   1.303   3.808
  187DOPC   C2423016   5.706   1.120   3.910
  187DOPC   H4R23017   5.690   1.012   3.887
  187DOPC   H4S23018   5.607   1.161   3.942
  187DOPC   C2523019   5.803   1.133   4.028
  187DOPC   H5R23020   5.832   1.240   4.036
  187DOPC   H5S23021   5.895   1.074   4.008
  187DOPC   C2623022   5.741   1.090   4.162
  187DOPC   H6R23023   5.637   1.129   4.165
  187DOPC   H6S23024   5.796   1.139   4.245
  187DOPC   C2723025   5.738   0.938   4.187
  187DOPC   H7R23026   5.716   0.888   4.090
  187DOPC   H7S23027   5.654   0.914   4.256
  187DOPC   C2823028   5.867   0.876   4.247
  187DOPC   H8R23029   5.952   0.903   4.181
  187DOPC   H8S23030   5.857   0.766   4.242
  187DOPC   C2923031   5.894   0.923   4.388
  187DOPC   H9R23032   5.905   1.032   4.397
  187DOPC  C21023033   5.905   0.850   4.501
  187DOPC  H10R23034   5.923   0.905   4.595
  187DOPC  C21123035   5.894   0.701   4.520
  187DOPC  H11R23036   5.874   0.648   4.424
  187DOPC  H11S23037   5.807   0.680   4.587
  187DOPC  C21223038   6.018   0.636   4.586
  187DOPC  H12R23039   6.102   0.636   4.513
  187DOPC  H12S23040   5.994   0.529   4.607
  187DOPC  C21323041   6.063   0.703   4.717
  187DOPC  H13R23042   5.979   0.704   4.789
  187DOPC  H13S23043   6.090   0.808   4.694
  187DOPC  C21423044   6.185   0.635   4.782
  187DOPC  H14R23045   6.260   0.613   4.703
  187DOPC  H14S23046   6.152   0.538   4.825
  187DOPC  C21523047   6.251   0.721   4.890
  187DOPC  H15R23048   6.321   0.658   4.949
  187DOPC  H15S23049   6.174   0.760   4.960
  187DOPC  C21623050   6.332   0.838   4.831
  187DOPC  H16R23051   6.266   0.898   4.764
  187DOPC  H16S23052   6.414   0.796   4.769
  187DOPC  C21723053   6.393   0.932   4.935
  187DOPC  H17R23054   6.463   0.875   4.999
  187DOPC  H17S23055   6.312   0.972   5.000
  187DOPC  C21823056   6.467   1.050   4.870
  187DOPC  H18R23057   6.510   1.117   4.947
  187DOPC  H18S23058   6.398   1.109   4.806
  187DOPC  H18T23059   6.550   1.012   4.806
  187DOPC   C3323060   6.487   0.918   3.828
  187DOPC   H3X23061   6.568   0.974   3.776
  187DOPC   H3Y23062   6.491   0.813   3.793
  187DOPC   C3423063   6.512   0.920   3.980
  187DOPC   H4X23064   6.608   0.868   4.002
  187DOPC   H4Y23065   6.432   0.863   4.031
  187DOPC   C3523066   6.517   1.061   4.041
  187DOPC   H5X23067   6.542   1.135   3.963
  187DOPC   H5Y23068   6.596   1.064   4.119
  187DOPC   C3623069   6.383   1.095   4.107
  187DOPC   H6X23070   6.302   1.076   4.034
  187DOPC   H6Y23071   6.366   1.026   4.193
  187DOPC   C3723072   6.373   1.240   4.156
  187DOPC   H7X23073   6.381   1.244   4.266
  187DOPC   H7Y23074   6.458   1.298   4.115
  187DOPC   C3823075   6.242   1.307   4.109
  187DOPC   H8X23076   6.238   1.303   3.998
  187DOPC   H8Y23077   6.246   1.415   4.136
  187DOPC   C3923078   6.120   1.241   4.168
  187DOPC   H9X23079   6.071   1.167   4.102
  187DOPC  C31023080   6.070   1.261   4.291
  187DOPC  H10X23081   5.980   1.206   4.322
  187DOPC  C31123082   6.126   1.354   4.396
  187DOPC  H11X23083   6.058   1.439   4.413
  187DOPC  H11Y23084   6.223   1.396   4.361
  187DOPC  C31223085   6.154   1.283   4.530
  187DOPC  H12X23086   6.215   1.353   4.592
  187DOPC  H12Y23087   6.214   1.192   4.515
  187DOPC  C31323088   6.027   1.250   4.610
  187DOPC  H13X23089   5.961   1.340   4.615
  187DOPC  H13Y23090   5.970   1.171   4.556
  187DOPC  C31423091   6.056   1.201   4.753
  187DOPC  H14X23092   5.963   1.156   4.793
  187DOPC  H14Y23093   6.134   1.122   4.749
  187DOPC  C31523094   6.099   1.313   4.849
  187DOPC  H15X23095   6.015   1.386   4.857
  187DOPC  H15Y23096   6.186   1.368   4.807
  187DOPC  C31623097   6.137   1.260   4.988
  187DOPC  H16X23098   6.057   1.192   5.025
  187DOPC  H16Y23099   6.230   1.201   4.978
  187DOPC  C31723100   6.159   1.371   5.092
  187DOPC  H17X23101   6.210   1.327   5.180
  187DOPC  H17Y23102   6.228   1.448   5.049
  187DOPC  C31823103   6.030   1.439   5.138
  187DOPC  H18X23104   6.052   1.514   5.217
  187DOPC  H18Y23105   5.980   1.491   5.054
  187DOPC  H18Z23106   5.959   1.365   5.180
  188DOPC     N23107   1.409   0.840   2.878
  188DOPC   C1223108   1.314   0.798   2.990
  188DOPC  H12A23109   1.328   0.693   3.013
  188DOPC  H12B23110   1.212   0.810   2.958
  188DOPC   C1323111   1.547   0.853   2.934
  188DOPC  H13A23112   1.582   0.761   2.978
  188DOPC  H13B23113   1.617   0.886   2.858
  188DOPC  H13C23114   1.546   0.927   3.013
  188DOPC   C1423115   1.368   0.975   2.828
  188DOPC  H14A23116   1.275   0.972   2.773
  188DOPC  H14B23117   1.353   1.039   2.914
  188DOPC  H14C23118   1.443   1.020   2.765
  188DOPC   C1523119   1.406   0.743   2.764
  188DOPC  H15A23120   1.436   0.644   2.794
  188DOPC  H15B23121   1.472   0.776   2.686
  188DOPC  H15C23122   1.307   0.735   2.722
  188DOPC   C1123123   1.329   0.875   3.124
  188DOPC  H11A23124   1.248   0.841   3.193
  188DOPC  H11B23125   1.425   0.847   3.172
  188DOPC     P23126   1.407   1.120   3.179
  188DOPC   O1323127   1.371   1.254   3.128
  188DOPC   O1423128   1.547   1.076   3.159
  188DOPC   O1223129   1.316   1.016   3.102
  188DOPC   O1123130   1.361   1.101   3.330
  188DOPC    C123131   1.220   1.090   3.359
  188DOPC    HA23132   1.169   1.016   3.293
  188DOPC    HB23133   1.170   1.188   3.341
  188DOPC    C223134   1.187   1.046   3.505
  188DOPC    HS23135   1.078   1.059   3.519
  188DOPC   O2123136   1.262   1.126   3.599
  188DOPC   C2123137   1.227   1.251   3.606
  188DOPC   O2223138   1.125   1.300   3.562
  188DOPC   C2223139   1.335   1.330   3.681
  188DOPC   H2R23140   1.304   1.436   3.678
  188DOPC   H2S23141   1.430   1.319   3.624
  188DOPC    C323142   1.217   0.895   3.534
  188DOPC    HX23143   1.203   0.835   3.441
  188DOPC    HY23144   1.141   0.861   3.606
  188DOPC   O3123145   1.347   0.877   3.595
  188DOPC   C3123146   1.447   0.850   3.512
  188DOPC   O3223147   1.438   0.783   3.411
  188DOPC   C3223148   1.572   0.923   3.562
  188DOPC   H2X23149   1.637   0.939   3.474
  188DOPC   H2Y23150   1.539   1.023   3.599
  188DOPC   C2323151   1.354   1.285   3.828
  188DOPC   H3R23152   1.257   1.256   3.873
  188DOPC   H3S23153   1.394   1.371   3.886
  188DOPC   C2423154   1.456   1.170   3.841
  188DOPC   H4R23155   1.552   1.204   3.798
  188DOPC   H4S23156   1.422   1.083   3.780
  188DOPC   C2523157   1.480   1.125   3.986
  188DOPC   H5R23158   1.487   1.215   4.051
  188DOPC   H5S23159   1.578   1.073   3.990
  188DOPC   C2623160   1.374   1.029   4.041
  188DOPC   H6R23161   1.275   1.078   4.043
  188DOPC   H6S23162   1.402   1.006   4.146
  188DOPC   C2723163   1.364   0.897   3.962
  188DOPC   H7R23164   1.451   0.890   3.892
  188DOPC   H7S23165   1.274   0.901   3.898
  188DOPC   C2823166   1.360   0.770   4.049
  188DOPC   H8R23167   1.323   0.687   3.986
  188DOPC   H8S23168   1.286   0.784   4.130
  188DOPC   C2923169   1.495   0.733   4.104
  188DOPC   H9R23170   1.564   0.690   4.030
  188DOPC  C21023171   1.538   0.749   4.231
  188DOPC  H10R23172   1.640   0.717   4.255
  188DOPC  C21123173   1.461   0.807   4.347
  188DOPC  H11R23174   1.373   0.865   4.314
  188DOPC  H11S23175   1.527   0.879   4.400
  188DOPC  C21223176   1.414   0.701   4.448
  188DOPC  H12R23177   1.474   0.608   4.440
  188DOPC  H12S23178   1.309   0.676   4.424
  188DOPC  C21323179   1.420   0.749   4.594
  188DOPC  H13R23180   1.355   0.839   4.603
  188DOPC  H13S23181   1.524   0.779   4.619
  188DOPC  C21423182   1.373   0.642   4.694
  188DOPC  H14R23183   1.441   0.554   4.690
  188DOPC  H14S23184   1.272   0.608   4.662
  188DOPC  C21523185   1.366   0.697   4.837
  188DOPC  H15R23186   1.327   0.800   4.831
  188DOPC  H15S23187   1.467   0.702   4.882
  188DOPC  C21623188   1.270   0.618   4.928
  188DOPC  H16R23189   1.180   0.592   4.869
  188DOPC  H16S23190   1.238   0.683   5.012
  188DOPC  C21723191   1.328   0.489   4.987
  188DOPC  H17R23192   1.409   0.516   5.058
  188DOPC  H17S23193   1.373   0.429   4.906
  188DOPC  C21823194   1.220   0.406   5.058
  188DOPC  H18R23195   1.264   0.314   5.101
  188DOPC  H18S23196   1.141   0.377   4.986
  188DOPC  H18T23197   1.173   0.465   5.139
  188DOPC   C3323198   1.651   0.849   3.672
  188DOPC   H3X23199   1.702   0.763   3.623
  188DOPC   H3Y23200   1.584   0.808   3.751
  188DOPC   C3423201   1.759   0.937   3.737
  188DOPC   H4X23202   1.715   1.010   3.808
  188DOPC   H4Y23203   1.806   0.995   3.654
  188DOPC   C3523204   1.872   0.855   3.803
  188DOPC   H5X23205   1.969   0.907   3.783
  188DOPC   H5Y23206   1.879   0.756   3.753
  188DOPC   C3623207   1.861   0.837   3.956
  188DOPC   H6X23208   1.763   0.794   3.983
  188DOPC   H6Y23209   1.940   0.765   3.985
  188DOPC   C3723210   1.885   0.968   4.033
  188DOPC   H7X23211   1.949   1.033   3.969
  188DOPC   H7Y23212   1.789   1.022   4.048
  188DOPC   C3823213   1.959   0.950   4.167
  188DOPC   H8X23214   1.995   1.050   4.199
  188DOPC   H8Y23215   2.051   0.891   4.148
  188DOPC   C3923216   1.877   0.884   4.275
  188DOPC   H9X23217   1.877   0.775   4.273
  188DOPC  C31023218   1.803   0.948   4.368
  188DOPC  H10X23219   1.748   0.887   4.441
  188DOPC  C31123220   1.788   1.097   4.384
  188DOPC  H11X23221   1.689   1.129   4.346
  188DOPC  H11Y23222   1.863   1.151   4.324
  188DOPC  C31223223   1.803   1.149   4.529
  188DOPC  H12X23224   1.867   1.240   4.526
  188DOPC  H12Y23225   1.854   1.074   4.593
  188DOPC  C31323226   1.671   1.190   4.596
  188DOPC  H13X23227   1.695   1.227   4.698
  188DOPC  H13Y23228   1.625   1.274   4.541
  188DOPC  C31423229   1.570   1.074   4.608
  188DOPC  H14X23230   1.496   1.084   4.526
  188DOPC  H14Y23231   1.623   0.978   4.594
  188DOPC  C31523232   1.499   1.069   4.744
  188DOPC  H15X23233   1.405   1.012   4.734
  188DOPC  H15Y23234   1.472   1.172   4.775
  188DOPC  C31623235   1.587   1.002   4.850
  188DOPC  H16X23236   1.611   0.899   4.816
  188DOPC  H16Y23237   1.682   1.058   4.858
  188DOPC  C31723238   1.521   0.995   4.988
  188DOPC  H17X23239   1.507   1.099   5.024
  188DOPC  H17Y23240   1.420   0.949   4.978
  188DOPC  C31823241   1.604   0.915   5.089
  188DOPC  H18X23242   1.553   0.912   5.188
  188DOPC  H18Y23243   1.619   0.811   5.053
  188DOPC  H18Z23244   1.704   0.961   5.103
  189DOPC     N23245   3.685   0.253   2.979
  189DOPC   C1223246   3.615   0.170   3.085
  189DOPC  H12A23247   3.688   0.130   3.153
  189DOPC  H12B23248   3.566   0.086   3.039
  189DOPC   C1323249   3.780   0.167   2.900
  189DOPC  H13A23250   3.728   0.090   2.846
  189DOPC  H13B23251   3.834   0.227   2.827
  189DOPC  H13C23252   3.854   0.120   2.963
  189DOPC   C1423253   3.759   0.367   3.040
  189DOPC  H14A23254   3.691   0.431   3.095
  189DOPC  H14B23255   3.837   0.333   3.107
  189DOPC  H14C23256   3.806   0.429   2.965
  189DOPC   C1523257   3.582   0.309   2.886
  189DOPC  H15A23258   3.532   0.231   2.831
  189DOPC  H15B23259   3.624   0.379   2.815
  189DOPC  H15C23260   3.504   0.358   2.944
  189DOPC   C1123261   3.505   0.241   3.166
  189DOPC  H11A23262   3.485   0.182   3.258
  189DOPC  H11B23263   3.538   0.342   3.200
  189DOPC     P23264   3.283   0.136   3.084
  189DOPC   O1323265   3.361   0.013   3.051
  189DOPC   O1423266   3.172   0.169   2.992
  189DOPC   O1223267   3.387   0.256   3.086
  189DOPC   O1123268   3.233   0.134   3.234
  189DOPC    C123269   3.191   0.258   3.294
  189DOPC    HA23270   3.089   0.284   3.259
  189DOPC    HB23271   3.257   0.343   3.269
  189DOPC    C223272   3.186   0.248   3.450
  189DOPC    HS23273   3.164   0.349   3.491
  189DOPC   O2123274   3.310   0.198   3.504
  189DOPC   C2123275   3.412   0.280   3.498
  189DOPC   O2223276   3.412   0.395   3.457
  189DOPC   C2223277   3.535   0.204   3.548
  189DOPC   H2R23278   3.559   0.128   3.470
  189DOPC   H2S23279   3.507   0.149   3.641
  189DOPC    C323280   3.072   0.153   3.495
  189DOPC    HX23281   3.081   0.062   3.433
  189DOPC    HY23282   2.974   0.200   3.469
  189DOPC   O3123283   3.078   0.116   3.635
  189DOPC   C3123284   3.053   0.213   3.721
  189DOPC   O3223285   3.018   0.326   3.693
  189DOPC   C3223286   3.076   0.162   3.863
  189DOPC   H2X23287   3.176   0.114   3.867
  189DOPC   H2Y23288   3.077   0.252   3.929
  189DOPC   C2323289   3.658   0.295   3.571
  189DOPC   H3R23290   3.671   0.362   3.484
  189DOPC   H3S23291   3.749   0.231   3.578
  189DOPC   C2423292   3.648   0.378   3.700
  189DOPC   H4R23293   3.554   0.438   3.699
  189DOPC   H4S23294   3.733   0.450   3.700
  189DOPC   C2523295   3.657   0.294   3.828
  189DOPC   H5R23296   3.745   0.227   3.820
  189DOPC   H5S23297   3.567   0.230   3.839
  189DOPC   C2623298   3.674   0.380   3.954
  189DOPC   H6R23299   3.746   0.462   3.932
  189DOPC   H6S23300   3.718   0.319   4.035
  189DOPC   C2723301   3.543   0.444   4.004
  189DOPC   H7R23302   3.491   0.490   3.918
  189DOPC   H7S23303   3.567   0.525   4.076
  189DOPC   C2823304   3.446   0.346   4.073
  189DOPC   H8R23305   3.417   0.266   4.000
  189DOPC   H8S23306   3.352   0.401   4.096
  189DOPC   C2923307   3.504   0.283   4.197
  189DOPC   H9R23308   3.575   0.201   4.178
  189DOPC  C21023309   3.480   0.320   4.324
  189DOPC  H10R23310   3.528   0.265   4.406
  189DOPC  C21123311   3.388   0.431   4.368
  189DOPC  H11R23312   3.379   0.509   4.289
  189DOPC  H11S23313   3.432   0.482   4.456
  189DOPC  C21223314   3.246   0.383   4.403
  189DOPC  H12R23315   3.197   0.341   4.313
  189DOPC  H12S23316   3.187   0.472   4.434
  189DOPC  C21323317   3.240   0.279   4.516
  189DOPC  H13R23318   3.305   0.312   4.600
  189DOPC  H13S23319   3.280   0.182   4.479
  189DOPC  C21423320   3.097   0.260   4.569
  189DOPC  H14R23321   3.029   0.234   4.485
  189DOPC  H14S23322   3.062   0.357   4.611
  189DOPC  C21523323   3.085   0.152   4.678
  189DOPC  H15R23324   2.987   0.164   4.728
  189DOPC  H15S23325   3.164   0.168   4.755
  189DOPC  C21623326   3.094   0.010   4.623
  189DOPC  H16R23327   3.193  -0.006   4.574
  189DOPC  H16S23328   3.016  -0.003   4.544
  189DOPC  C21723329   3.073  -0.098   4.730
  189DOPC  H17R23330   2.980  -0.073   4.786
  189DOPC  H17S23331   3.157  -0.094   4.802
  189DOPC  C21823332   3.061  -0.239   4.673
  189DOPC  H18R23333   3.155  -0.269   4.623
  189DOPC  H18S23334   2.979  -0.244   4.598
  189DOPC  H18T23335   3.039  -0.312   4.754
  189DOPC   C3323336   2.966   0.064   3.910
  189DOPC   H3X23337   2.973  -0.031   3.854
  189DOPC   H3Y23338   2.866   0.109   3.888
  189DOPC   C3423339   2.972   0.037   4.062
  189DOPC   H4X23340   2.878  -0.014   4.093
  189DOPC   H4Y23341   2.978   0.133   4.116
  189DOPC   C3523342   3.091  -0.052   4.103
  189DOPC   H5X23343   3.184  -0.011   4.060
  189DOPC   H5Y23344   3.076  -0.153   4.059
  189DOPC   C3623345   3.106  -0.065   4.255
  189DOPC   H6X23346   3.142   0.033   4.296
  189DOPC   H6Y23347   3.006  -0.085   4.300
  189DOPC   C3723348   3.202  -0.177   4.299
  189DOPC   H7X23349   3.211  -0.177   4.410
  189DOPC   H7Y23350   3.155  -0.274   4.270
  189DOPC   C3823351   3.342  -0.172   4.236
  189DOPC   H8X23352   3.331  -0.168   4.126
  189DOPC   H8Y23353   3.392  -0.269   4.259
  189DOPC   C3923354   3.427  -0.055   4.279
  189DOPC   H9X23355   3.384   0.043   4.254
  189DOPC  C31023356   3.545  -0.061   4.343
  189DOPC  H10X23357   3.595   0.033   4.370
  189DOPC  C31123358   3.617  -0.186   4.388
  189DOPC  H11X23359   3.726  -0.167   4.395
  189DOPC  H11Y23360   3.604  -0.269   4.314
  189DOPC  C31223361   3.565  -0.234   4.525
  189DOPC  H12X23362   3.620  -0.326   4.556
  189DOPC  H12Y23363   3.458  -0.262   4.515
  189DOPC  C31323364   3.578  -0.128   4.635
  189DOPC  H13X23365   3.685  -0.106   4.655
  189DOPC  H13Y23366   3.531  -0.034   4.599
  189DOPC  C31423367   3.506  -0.164   4.766
  189DOPC  H14X23368   3.407  -0.209   4.742
  189DOPC  H14Y23369   3.566  -0.239   4.822
  189DOPC  C31523370   3.484  -0.037   4.849
  189DOPC  H15X23371   3.420   0.032   4.792
  189DOPC  H15Y23372   3.582   0.013   4.864
  189DOPC  C31623373   3.422  -0.063   4.986
  189DOPC  H16X23374   3.320  -0.106   4.974
  189DOPC  H16Y23375   3.483  -0.139   5.040
  189DOPC  C31723376   3.415   0.065   5.071
  189DOPC  H17X23377   3.388   0.037   5.175
  189DOPC  H17Y23378   3.516   0.111   5.075
  189DOPC  C31823379   3.314   0.168   5.020
  189DOPC  H18X23380   3.212   0.124   5.015
  189DOPC  H18Y23381   3.311   0.257   5.088
  189DOPC  H18Z23382   3.342   0.204   4.918
  190DOPC     N23383   2.107   7.068   3.138
  190DOPC   C1223384   2.228   7.082   3.046
  190DOPC  H12A23385   2.284   6.990   3.049
  190DOPC  H12B23386   2.292   7.159   3.086
  190DOPC   C1323387   2.012   6.963   3.089
  190DOPC  H13A23388   1.934   6.941   3.160
  190DOPC  H13B23389   1.961   6.996   2.999
  190DOPC  H13C23390   2.061   6.868   3.069
  190DOPC   C1423391   2.032   7.197   3.145
  190DOPC  H14A23392   2.092   7.277   3.184
  190DOPC  H14B23393   2.004   7.226   3.045
  190DOPC  H14C23394   1.940   7.188   3.201
  190DOPC   C1523395   2.149   7.031   3.277
  190DOPC  H15A23396   2.204   6.938   3.278
  190DOPC  H15B23397   2.062   7.019   3.339
  190DOPC  H15C23398   2.211   7.109   3.320
  190DOPC   C1123399   2.201   7.119   2.897
  190DOPC  H11A23400   2.295   7.103   2.840
  190DOPC  H11B23401   2.127   7.047   2.855
  190DOPC     P23402   2.249   7.376   2.904
  190DOPC   O1323403   2.218   7.481   2.803
  190DOPC   O1423404   2.389   7.329   2.910
  190DOPC   O1223405   2.153   7.252   2.880
  190DOPC   O1123406   2.202   7.424   3.047
  190DOPC    C123407   2.188   7.563   3.076
  190DOPC    HA23408   2.104   7.607   3.017
  190DOPC    HB23409   2.281   7.619   3.050
  190DOPC    C223410   2.158   7.586   3.227
  190DOPC    HS23411   2.149   7.695   3.245
  190DOPC   O2123412   2.261   7.528   3.308
  190DOPC   C2123413   2.366   7.606   3.326
  190DOPC   O2223414   2.400   7.700   3.257
  190DOPC   C2223415   2.432   7.563   3.457
  190DOPC   H2R23416   2.439   7.452   3.458
  190DOPC   H2S23417   2.362   7.594   3.538
  190DOPC    C323418   2.019   7.525   3.268
  190DOPC    HX23419   1.988   7.456   3.188
  190DOPC    HY23420   1.942   7.606   3.270
  190DOPC   O3123421   2.018   7.453   3.394
  190DOPC   C3123422   2.045   7.527   3.501
  190DOPC   O3223423   2.071   7.645   3.503
  190DOPC   C3223424   2.037   7.438   3.626
  190DOPC   H2X23425   1.930   7.411   3.639
  190DOPC   H2Y23426   2.096   7.346   3.608
  190DOPC   C2323427   2.570   7.628   3.480
  190DOPC   H3R23428   2.562   7.738   3.473
  190DOPC   H3S23429   2.641   7.593   3.402
  190DOPC   C2423430   2.626   7.591   3.618
  190DOPC   H4R23431   2.736   7.607   3.618
  190DOPC   H4S23432   2.608   7.483   3.637
  190DOPC   C2523433   2.565   7.674   3.731
  190DOPC   H5R23434   2.454   7.680   3.719
  190DOPC   H5S23435   2.604   7.778   3.722
  190DOPC   C2623436   2.597   7.617   3.869
  190DOPC   H6R23437   2.703   7.585   3.869
  190DOPC   H6S23438   2.534   7.527   3.887
  190DOPC   C2723439   2.579   7.717   3.983
  190DOPC   H7R23440   2.651   7.799   3.964
  190DOPC   H7S23441   2.608   7.670   4.079
  190DOPC   C2823442   2.438   7.779   3.996
  190DOPC   H8R23443   2.412   7.830   3.900
  190DOPC   H8S23444   2.443   7.860   4.072
  190DOPC   C2923445   2.330   7.681   4.034
  190DOPC   H9R23446   2.266   7.648   3.951
  190DOPC  C21023447   2.308   7.633   4.157
  190DOPC  H10R23448   2.224   7.564   4.174
  190DOPC  C21123449   2.388   7.668   4.281
  190DOPC  H11R23450   2.486   7.713   4.254
  190DOPC  H11S23451   2.410   7.575   4.338
  190DOPC  C21223452   2.317   7.767   4.376
  190DOPC  H12R23453   2.284   7.857   4.320
  190DOPC  H12S23454   2.392   7.800   4.451
  190DOPC  C21323455   2.199   7.705   4.451
  190DOPC  H13R23456   2.232   7.608   4.495
  190DOPC  H13S23457   2.116   7.684   4.381
  190DOPC  C21423458   2.150   7.797   4.564
  190DOPC  H14R23459   2.119   7.894   4.520
  190DOPC  H14S23460   2.234   7.817   4.634
  190DOPC  C21523461   2.033   7.738   4.644
  190DOPC  H15R23462   2.065   7.644   4.692
  190DOPC  H15S23463   1.950   7.714   4.574
  190DOPC  C21623464   1.984   7.838   4.749
  190DOPC  H16R23465   1.958   7.933   4.698
  190DOPC  H16S23466   2.067   7.859   4.820
  190DOPC  C21723467   1.861   7.792   4.828
  190DOPC  H17R23468   1.779   7.767   4.756
  190DOPC  H17S23469   1.825   7.877   4.890
  190DOPC  C21823470   1.888   7.672   4.919
  190DOPC  H18R23471   1.970   7.695   4.990
  190DOPC  H18S23472   1.917   7.583   4.859
  190DOPC  H18T23473   1.796   7.647   4.976
  190DOPC   C3323474   2.090   7.513   3.751
  190DOPC   H3X23475   2.054   7.618   3.751
  190DOPC   H3Y23476   2.201   7.516   3.748
  190DOPC   C3423477   2.043   7.451   3.883
  190DOPC   H4X23478   2.092   7.506   3.966
  190DOPC   H4Y23479   2.077   7.345   3.890
  190DOPC   C3523480   1.891   7.460   3.902
  190DOPC   H5X23481   1.840   7.381   3.844
  190DOPC   H5Y23482   1.858   7.557   3.861
  190DOPC   C3623483   1.846   7.455   4.049
  190DOPC   H6X23484   1.928   7.493   4.115
  190DOPC   H6Y23485   1.761   7.525   4.061
  190DOPC   C3723486   1.800   7.317   4.097
  190DOPC   H7X23487   1.710   7.287   4.038
  190DOPC   H7Y23488   1.879   7.241   4.077
  190DOPC   C3823489   1.767   7.318   4.247
  190DOPC   H8X23490   1.721   7.417   4.270
  190DOPC   H8Y23491   1.863   7.316   4.304
  190DOPC   C3923492   1.675   7.210   4.297
  190DOPC   H9X23493   1.573   7.244   4.317
  190DOPC  C31023494   1.705   7.081   4.317
  190DOPC  H10X23495   1.626   7.015   4.355
  190DOPC  C31123496   1.838   7.013   4.293
  190DOPC  H11X23497   1.905   7.077   4.233
  190DOPC  H11Y23498   1.822   6.921   4.232
  190DOPC  C31223499   1.909   6.970   4.423
  190DOPC  H12X23500   1.840   6.910   4.486
  190DOPC  H12Y23501   1.936   7.061   4.481
  190DOPC  C31323502   2.037   6.888   4.399
  190DOPC  H13X23503   2.009   6.793   4.347
  190DOPC  H13Y23504   2.105   6.943   4.331
  190DOPC  C31423505   2.111   6.855   4.529
  190DOPC  H14X23506   2.036   6.845   4.611
  190DOPC  H14Y23507   2.163   6.757   4.519
  190DOPC  C31523508   2.215   6.962   4.565
  190DOPC  H15X23509   2.175   7.061   4.534
  190DOPC  H15Y23510   2.308   6.944   4.507
  190DOPC  C31623511   2.246   6.968   4.715
  190DOPC  H16X23512   2.155   7.002   4.768
  190DOPC  H16Y23513   2.270   6.866   4.753
  190DOPC  C31723514   2.362   7.063   4.748
  190DOPC  H17X23515   2.458   7.010   4.735
  190DOPC  H17Y23516   2.361   7.147   4.675
  190DOPC  C31823517   2.353   7.123   4.889
  190DOPC  H18X23518   2.353   7.043   4.966
  190DOPC  H18Y23519   2.439   7.191   4.908
  190DOPC  H18Z23520   2.259   7.181   4.900
  191DOPC     N23521   4.915   7.264   3.137
  191DOPC   C1223522   4.904   7.413   3.107
  191DOPC  H12A23523   4.967   7.467   3.176
  191DOPC  H12B23524   4.802   7.444   3.127
  191DOPC   C1323525   4.866   7.234   3.275
  191DOPC  H13A23526   4.762   7.260   3.285
  191DOPC  H13B23527   4.873   7.128   3.295
  191DOPC  H13C23528   4.921   7.289   3.350
  191DOPC   C1423529   5.058   7.221   3.123
  191DOPC  H14A23530   5.093   7.252   3.025
  191DOPC  H14B23531   5.122   7.270   3.195
  191DOPC  H14C23532   5.068   7.114   3.129
  191DOPC   C1523533   4.836   7.182   3.040
  191DOPC  H15A23534   4.733   7.214   3.033
  191DOPC  H15B23535   4.835   7.077   3.067
  191DOPC  H15C23536   4.880   7.188   2.941
  191DOPC   C1123537   4.943   7.462   2.966
  191DOPC  H11A23538   4.882   7.408   2.890
  191DOPC  H11B23539   4.914   7.569   2.955
  191DOPC     P23540   5.188   7.548   2.989
  191DOPC   O1323541   5.197   7.659   2.891
  191DOPC   O1423542   5.313   7.480   3.029
  191DOPC   O1223543   5.082   7.442   2.938
  191DOPC   O1123544   5.119   7.604   3.121
  191DOPC    C123545   5.183   7.711   3.191
  191DOPC    HA23546   5.166   7.807   3.138
  191DOPC    HB23547   5.293   7.696   3.200
  191DOPC    C223548   5.123   7.724   3.334
  191DOPC    HS23549   5.170   7.811   3.385
  191DOPC   O2123550   5.144   7.604   3.411
  191DOPC   C2123551   5.269   7.583   3.449
  191DOPC   O2223552   5.364   7.657   3.429
  191DOPC   C2223553   5.277   7.448   3.522
  191DOPC   H2R23554   5.345   7.384   3.462
  191DOPC   H2S23555   5.177   7.401   3.525
  191DOPC    C323556   4.971   7.753   3.324
  191DOPC    HX23557   4.924   7.677   3.258
  191DOPC    HY23558   4.959   7.851   3.273
  191DOPC   O3123559   4.909   7.759   3.454
  191DOPC   C3123560   4.861   7.645   3.501
  191DOPC   O3223561   4.847   7.541   3.438
  191DOPC   C3223562   4.825   7.666   3.648
  191DOPC   H2X23563   4.915   7.704   3.701
  191DOPC   H2Y23564   4.747   7.745   3.651
  191DOPC   C2323565   5.334   7.463   3.665
  191DOPC   H3R23566   5.429   7.519   3.664
  191DOPC   H3S23567   5.357   7.361   3.704
  191DOPC   C2423568   5.235   7.528   3.764
  191DOPC   H4R23569   5.139   7.472   3.761
  191DOPC   H4S23570   5.214   7.633   3.732
  191DOPC   C2523571   5.289   7.530   3.907
  191DOPC   H5R23572   5.388   7.582   3.907
  191DOPC   H5S23573   5.307   7.425   3.940
  191DOPC   C2623574   5.197   7.599   4.010
  191DOPC   H6R23575   5.184   7.705   3.981
  191DOPC   H6S23576   5.248   7.597   4.109
  191DOPC   C2723577   5.060   7.531   4.025
  191DOPC   H7R23578   5.076   7.422   4.035
  191DOPC   H7S23579   5.001   7.547   3.932
  191DOPC   C2823580   4.980   7.579   4.148
  191DOPC   H8R23581   5.040   7.552   4.238
  191DOPC   H8S23582   4.887   7.519   4.153
  191DOPC   C2923583   4.946   7.726   4.144
  191DOPC   H9R23584   4.916   7.763   4.045
  191DOPC  C21023585   4.952   7.813   4.247
  191DOPC  H10R23586   4.924   7.917   4.228
  191DOPC  C21123587   4.992   7.783   4.389
  191DOPC  H11R23588   5.005   7.674   4.407
  191DOPC  H11S23589   4.912   7.817   4.458
  191DOPC  C21223590   5.124   7.854   4.427
  191DOPC  H12R23591   5.110   7.964   4.422
  191DOPC  H12S23592   5.203   7.826   4.354
  191DOPC  C21323593   5.174   7.817   4.568
  191DOPC  H13R23594   5.271   7.868   4.585
  191DOPC  H13S23595   5.194   7.707   4.572
  191DOPC  C21423596   5.078   7.855   4.682
  191DOPC  H14R23597   4.984   7.797   4.671
  191DOPC  H14S23598   5.053   7.963   4.673
  191DOPC  C21523599   5.139   7.828   4.820
  191DOPC  H15R23600   5.233   7.887   4.828
  191DOPC  H15S23601   5.165   7.721   4.829
  191DOPC  C21623602   5.047   7.868   4.937
  191DOPC  H16R23603   5.016   7.974   4.925
  191DOPC  H16S23604   5.105   7.861   5.031
  191DOPC  C21723605   4.922   7.780   4.952
  191DOPC  H17R23606   4.954   7.675   4.965
  191DOPC  H17S23607   4.863   7.785   4.858
  191DOPC  C21823608   4.832   7.821   5.069
  191DOPC  H18R23609   4.887   7.813   5.165
  191DOPC  H18S23610   4.743   7.755   5.074
  191DOPC  H18T23611   4.797   7.925   5.056
  191DOPC   C3323612   4.773   7.538   3.718
  191DOPC   H3X23613   4.856   7.466   3.729
  191DOPC   H3Y23614   4.694   7.490   3.656
  191DOPC   C3423615   4.714   7.572   3.855
  191DOPC   H4X23616   4.621   7.630   3.843
  191DOPC   H4Y23617   4.786   7.636   3.910
  191DOPC   C3523618   4.684   7.449   3.942
  191DOPC   H5X23619   4.649   7.485   4.041
  191DOPC   H5Y23620   4.778   7.391   3.960
  191DOPC   C3623621   4.577   7.356   3.883
  191DOPC   H6X23622   4.499   7.419   3.835
  191DOPC   H6Y23623   4.621   7.291   3.804
  191DOPC   C3723624   4.508   7.271   3.991
  191DOPC   H7X23625   4.469   7.341   4.067
  191DOPC   H7Y23626   4.421   7.218   3.946
  191DOPC   C3823627   4.600   7.166   4.056
  191DOPC   H8X23628   4.705   7.203   4.054
  191DOPC   H8Y23629   4.601   7.074   3.993
  191DOPC   C3923630   4.557   7.133   4.197
  191DOPC   H9X23631   4.470   7.066   4.204
  191DOPC  C31023632   4.614   7.179   4.310
  191DOPC  H10X23633   4.573   7.147   4.406
  191DOPC  C31123634   4.733   7.272   4.319
  191DOPC  H11X23635   4.759   7.315   4.220
  191DOPC  H11Y23636   4.822   7.216   4.354
  191DOPC  C31223637   4.712   7.391   4.415
  191DOPC  H12X23638   4.627   7.454   4.382
  191DOPC  H12Y23639   4.803   7.455   4.408
  191DOPC  C31323640   4.693   7.349   4.562
  191DOPC  H13X23641   4.588   7.314   4.574
  191DOPC  H13Y23642   4.759   7.263   4.584
  191DOPC  C31423643   4.720   7.462   4.663
  191DOPC  H14X23644   4.662   7.552   4.633
  191DOPC  H14Y23645   4.683   7.429   4.762
  191DOPC  C31523646   4.868   7.501   4.677
  191DOPC  H15X23647   4.875   7.582   4.754
  191DOPC  H15Y23648   4.906   7.544   4.582
  191DOPC  C31623649   4.960   7.386   4.721
  191DOPC  H16X23650   4.913   7.333   4.808
  191DOPC  H16Y23651   4.969   7.312   4.638
  191DOPC  C31723652   5.100   7.434   4.762
  191DOPC  H17X23653   5.144   7.489   4.677
  191DOPC  H17Y23654   5.089   7.505   4.846
  191DOPC  C31823655   5.193   7.320   4.803
  191DOPC  H18X23656   5.208   7.250   4.718
  191DOPC  H18Y23657   5.292   7.359   4.833
  191DOPC  H18Z23658   5.150   7.263   4.888
  192DOPC     N23659   0.096   5.137   2.876
  192DOPC   C1223660   0.148   5.074   3.005
  192DOPC  H12A23661   0.140   4.966   2.996
  192DOPC  H12B23662   0.082   5.103   3.086
  192DOPC   C1323663   0.032   5.269   2.905
  192DOPC  H13A23664   0.102   5.336   2.952
  192DOPC  H13B23665  -0.004   5.317   2.815
  192DOPC  H13C23666  -0.052   5.258   2.973
  192DOPC   C1423667  -0.005   5.049   2.810
  192DOPC  H14A23668  -0.041   5.093   2.718
  192DOPC  H14B23669   0.037   4.953   2.787
  192DOPC  H14C23670  -0.090   5.033   2.876
  192DOPC   C1523671   0.212   5.156   2.783
  192DOPC  H15A23672   0.257   5.061   2.759
  192DOPC  H15B23673   0.288   5.214   2.834
  192DOPC  H15C23674   0.184   5.207   2.692
  192DOPC   C1123675   0.293   5.106   3.051
  192DOPC  H11A23676   0.312   5.060   3.150
  192DOPC  H11B23677   0.364   5.056   2.981
  192DOPC     P23678   0.261   5.344   3.158
  192DOPC   O1323679   0.205   5.457   3.080
  192DOPC   O1423680   0.362   5.383   3.259
  192DOPC   O1223681   0.323   5.245   3.053
  192DOPC   O1123682   0.142   5.264   3.223
  192DOPC    C123683   0.154   5.195   3.347
  192DOPC    HA23684   0.258   5.185   3.382
  192DOPC    HB23685   0.118   5.090   3.331
  192DOPC    C223686   0.068   5.263   3.457
  192DOPC    HS23687   0.011   5.346   3.409
  192DOPC   O2123688   0.155   5.313   3.560
  192DOPC   C2123689   0.206   5.433   3.539
  192DOPC   O2223690   0.178   5.510   3.449
  192DOPC   C2223691   0.309   5.464   3.649
  192DOPC   H2R23692   0.409   5.460   3.601
  192DOPC   H2S23693   0.304   5.384   3.726
  192DOPC    C323694  -0.040   5.165   3.515
  192DOPC    HX23695  -0.019   5.061   3.483
  192DOPC    HY23696  -0.136   5.192   3.467
  192DOPC   O3123697  -0.055   5.175   3.659
  192DOPC   C3123698   0.033   5.100   3.727
  192DOPC   O3223699   0.116   5.027   3.677
  192DOPC   C3223700   0.006   5.117   3.876
  192DOPC   H2X23701  -0.028   5.221   3.893
  192DOPC   H2Y23702  -0.077   5.048   3.903
  192DOPC   C2323703   0.285   5.603   3.712
  192DOPC   H3R23704   0.188   5.603   3.766
  192DOPC   H3S23705   0.279   5.680   3.633
  192DOPC   C2423706   0.397   5.645   3.809
  192DOPC   H4R23707   0.371   5.743   3.854
  192DOPC   H4S23708   0.491   5.658   3.751
  192DOPC   C2523709   0.426   5.547   3.924
  192DOPC   H5R23710   0.507   5.588   3.988
  192DOPC   H5S23711   0.464   5.451   3.882
  192DOPC   C2623712   0.304   5.517   4.013
  192DOPC   H6R23713   0.223   5.477   3.949
  192DOPC   H6S23714   0.267   5.611   4.060
  192DOPC   C2723715   0.335   5.412   4.120
  192DOPC   H7R23716   0.399   5.456   4.200
  192DOPC   H7S23717   0.394   5.331   4.072
  192DOPC   C2823718   0.208   5.348   4.179
  192DOPC   H8R23719   0.237   5.253   4.228
  192DOPC   H8S23720   0.143   5.323   4.093
  192DOPC   C2923721   0.132   5.434   4.275
  192DOPC   H9R23722   0.186   5.522   4.314
  192DOPC  C21023723   0.006   5.409   4.316
  192DOPC  H10R23724  -0.043   5.479   4.385
  192DOPC  C21123725  -0.078   5.291   4.274
  192DOPC  H11R23726  -0.114   5.237   4.364
  192DOPC  H11S23727  -0.020   5.217   4.215
  192DOPC  C21223728  -0.200   5.333   4.189
  192DOPC  H12R23729  -0.167   5.395   4.104
  192DOPC  H12S23730  -0.267   5.395   4.252
  192DOPC  C21323731  -0.282   5.215   4.133
  192DOPC  H13R23732  -0.222   5.165   4.054
  192DOPC  H13S23733  -0.373   5.255   4.085
  192DOPC  C21423734  -0.324   5.107   4.235
  192DOPC  H14R23735  -0.233   5.054   4.271
  192DOPC  H14S23736  -0.388   5.033   4.184
  192DOPC  C21523737  -0.399   5.163   4.357
  192DOPC  H15R23738  -0.487   5.221   4.323
  192DOPC  H15S23739  -0.331   5.231   4.413
  192DOPC  C21623740  -0.445   5.052   4.453
  192DOPC  H16R23741  -0.358   4.988   4.478
  192DOPC  H16S23742  -0.522   4.990   4.402
  192DOPC  C21723743  -0.503   5.108   4.584
  192DOPC  H17R23744  -0.584   5.180   4.560
  192DOPC  H17S23745  -0.422   5.164   4.636
  192DOPC  C21823746  -0.558   5.000   4.677
  192DOPC  H18R23747  -0.597   5.045   4.771
  192DOPC  H18S23748  -0.477   4.928   4.704
  192DOPC  H18T23749  -0.640   4.944   4.627
  192DOPC   C3323750   0.129   5.090   3.966
  192DOPC   H3X23751   0.100   5.121   4.068
  192DOPC   H3Y23752   0.216   5.152   3.935
  192DOPC   C3423753   0.170   4.943   3.977
  192DOPC   H4X23754   0.228   4.911   3.888
  192DOPC   H4Y23755   0.076   4.883   3.980
  192DOPC   C3523756   0.248   4.914   4.107
  192DOPC   H5X23757   0.184   4.945   4.193
  192DOPC   H5Y23758   0.339   4.977   4.109
  192DOPC   C3623759   0.287   4.767   4.125
  192DOPC   H6X23760   0.368   4.743   4.053
  192DOPC   H6Y23761   0.330   4.755   4.227
  192DOPC   C3723762   0.173   4.665   4.105
  192DOPC   H7X23763   0.146   4.665   3.998
  192DOPC   H7Y23764   0.214   4.564   4.128
  192DOPC   C3823765   0.044   4.690   4.187
  192DOPC   H8X23766  -0.031   4.617   4.151
  192DOPC   H8Y23767   0.004   4.790   4.162
  192DOPC   C3923768   0.061   4.672   4.336
  192DOPC   H9X23769   0.107   4.577   4.364
  192DOPC  C31023770   0.025   4.758   4.434
  192DOPC  H10X23771   0.045   4.729   4.538
  192DOPC  C31123772  -0.041   4.893   4.419
  192DOPC  H11X23773  -0.149   4.882   4.441
  192DOPC  H11Y23774  -0.033   4.932   4.315
  192DOPC  C31223775   0.014   5.000   4.516
  192DOPC  H12X23776   0.017   4.961   4.620
  192DOPC  H12Y23777  -0.058   5.085   4.516
  192DOPC  C31323778   0.152   5.055   4.477
  192DOPC  H13X23779   0.229   4.975   4.486
  192DOPC  H13Y23780   0.149   5.087   4.371
  192DOPC  C31423781   0.191   5.176   4.563
  192DOPC  H14X23782   0.117   5.257   4.545
  192DOPC  H14Y23783   0.186   5.149   4.671
  192DOPC  C31523784   0.332   5.231   4.532
  192DOPC  H15X23785   0.344   5.234   4.421
  192DOPC  H15Y23786   0.409   5.160   4.571
  192DOPC  C31623787   0.356   5.373   4.586
  192DOPC  H16X23788   0.456   5.408   4.552
  192DOPC  H16Y23789   0.280   5.440   4.541
  192DOPC  C31723790   0.349   5.386   4.739
  192DOPC  H17X23791   0.352   5.494   4.764
  192DOPC  H17Y23792   0.251   5.347   4.775
  192DOPC  C31823793   0.462   5.315   4.814
  192DOPC  H18X23794   0.451   5.329   4.924
  192DOPC  H18Y23795   0.461   5.206   4.792
  192DOPC  H18Z23796   0.561   5.355   4.783
  193DOPC     N23797   7.353   1.638   2.969
  193DOPC   C1223798   7.373   1.723   3.094
  193DOPC  H12A23799   7.405   1.662   3.176
  193DOPC  H12B23800   7.277   1.762   3.124
  193DOPC   C1323801   7.245   1.537   2.993
  193DOPC  H13A23802   7.227   1.479   2.903
  193DOPC  H13B23803   7.270   1.469   3.073
  193DOPC  H13C23804   7.152   1.586   3.016
  193DOPC   C1423805   7.479   1.567   2.928
  193DOPC  H14A23806   7.562   1.636   2.919
  193DOPC  H14B23807   7.507   1.491   2.999
  193DOPC  H14C23808   7.466   1.521   2.832
  193DOPC   C1523809   7.308   1.726   2.857
  193DOPC  H15A23810   7.291   1.671   2.766
  193DOPC  H15B23811   7.381   1.803   2.839
  193DOPC  H15C23812   7.217   1.777   2.885
  193DOPC   C1123813   7.467   1.847   3.084
  193DOPC  H11A23814   7.493   1.879   3.187
  193DOPC  H11B23815   7.562   1.817   3.036
  193DOPC     P23816   7.272   2.019   3.062
  193DOPC   O1323817   7.159   1.936   3.015
  193DOPC   O1423818   7.272   2.161   3.021
  193DOPC   O1223819   7.409   1.956   3.011
  193DOPC   O1123820   7.285   2.006   3.218
  193DOPC    C123821   7.195   2.074   3.306
  193DOPC    HA23822   7.097   2.096   3.259
  193DOPC    HB23823   7.241   2.171   3.336
  193DOPC    C223824   7.168   1.990   3.434
  193DOPC    HS23825   7.264   1.960   3.479
  193DOPC   O2123826   7.084   1.877   3.402
  193DOPC   C2123827   7.147   1.764   3.374
  193DOPC   O2223828   7.268   1.747   3.368
  193DOPC   C2223829   7.044   1.653   3.356
  193DOPC   H2R23830   7.078   1.591   3.270
  193DOPC   H2S23831   6.946   1.699   3.329
  193DOPC    C323832   7.093   2.077   3.539
  193DOPC    HX23833   7.002   2.115   3.488
  193DOPC    HY23834   7.157   2.164   3.565
  193DOPC   O3123835   7.064   2.001   3.659
  193DOPC   C3123836   6.943   2.019   3.711
  193DOPC   O3223837   6.857   2.092   3.666
  193DOPC   C3223838   6.925   1.934   3.836
  193DOPC   H2X23839   6.815   1.926   3.849
  193DOPC   H2Y23840   6.963   1.831   3.817
  193DOPC   C2323841   7.032   1.565   3.482
  193DOPC   H3R23842   7.131   1.526   3.512
  193DOPC   H3S23843   6.968   1.477   3.457
  193DOPC   C2423844   6.967   1.639   3.599
  193DOPC   H4R23845   6.867   1.676   3.566
  193DOPC   H4S23846   7.028   1.728   3.626
  193DOPC   C2523847   6.947   1.553   3.725
  193DOPC   H5R23848   6.898   1.457   3.697
  193DOPC   H5S23849   6.877   1.607   3.792
  193DOPC   C2623850   7.077   1.525   3.802
  193DOPC   H6R23851   7.118   1.620   3.843
  193DOPC   H6S23852   7.152   1.484   3.732
  193DOPC   C2723853   7.060   1.424   3.917
  193DOPC   H7R23854   7.160   1.392   3.954
  193DOPC   H7S23855   7.012   1.334   3.872
  193DOPC   C2823856   6.970   1.466   4.035
  193DOPC   H8R23857   6.916   1.375   4.070
  193DOPC   H8S23858   6.892   1.534   3.995
  193DOPC   C2923859   7.043   1.531   4.149
  193DOPC   H9R23860   7.106   1.616   4.119
  193DOPC  C21023861   7.039   1.498   4.279
  193DOPC  H10R23862   7.098   1.559   4.349
  193DOPC  C21123863   6.963   1.387   4.347
  193DOPC  H11R23864   7.035   1.322   4.401
  193DOPC  H11S23865   6.910   1.322   4.274
  193DOPC  C21223866   6.861   1.439   4.450
  193DOPC  H12R23867   6.819   1.351   4.503
  193DOPC  H12S23868   6.777   1.489   4.396
  193DOPC  C21323869   6.918   1.538   4.553
  193DOPC  H13R23870   6.909   1.641   4.511
  193DOPC  H13S23871   7.026   1.518   4.568
  193DOPC  C21423872   6.849   1.531   4.690
  193DOPC  H14R23873   6.740   1.514   4.676
  193DOPC  H14S23874   6.862   1.629   4.742
  193DOPC  C21523875   6.910   1.422   4.779
  193DOPC  H15R23876   7.018   1.446   4.795
  193DOPC  H15S23877   6.905   1.325   4.725
  193DOPC  C21623878   6.840   1.408   4.914
  193DOPC  H16R23879   6.734   1.381   4.895
  193DOPC  H16S23880   6.841   1.505   4.967
  193DOPC  C21723881   6.902   1.299   5.004
  193DOPC  H17R23882   6.905   1.204   4.947
  193DOPC  H17S23883   6.835   1.284   5.091
  193DOPC  C21823884   7.042   1.332   5.056
  193DOPC  H18R23885   7.040   1.424   5.118
  193DOPC  H18S23886   7.112   1.347   4.972
  193DOPC  H18T23887   7.080   1.248   5.119
  193DOPC   C3323888   6.987   1.996   3.962
  193DOPC   H3X23889   6.951   1.937   4.050
  193DOPC   H3Y23890   6.952   2.100   3.976
  193DOPC   C3423891   7.141   1.993   3.967
  193DOPC   H4X23892   7.174   2.031   4.066
  193DOPC   H4Y23893   7.184   2.060   3.889
  193DOPC   C3523894   7.195   1.851   3.947
  193DOPC   H5X23895   7.184   1.822   3.840
  193DOPC   H5Y23896   7.132   1.782   4.008
  193DOPC   C3623897   7.342   1.831   3.988
  193DOPC   H6X23898   7.406   1.882   3.912
  193DOPC   H6Y23899   7.359   1.880   4.086
  193DOPC   C3723900   7.381   1.683   3.999
  193DOPC   H7X23901   7.317   1.637   4.078
  193DOPC   H7Y23902   7.358   1.631   3.903
  193DOPC   C3823903   7.529   1.661   4.035
  193DOPC   H8X23904   7.555   1.732   4.117
  193DOPC   H8Y23905   7.592   1.689   3.948
  193DOPC   C3923906   7.559   1.520   4.078
  193DOPC   H9X23907   7.583   1.450   3.996
  193DOPC  C31023908   7.554   1.473   4.204
  193DOPC  H10X23909   7.576   1.366   4.221
  193DOPC  C31123910   7.519   1.551   4.329
  193DOPC  H11X23911   7.513   1.660   4.310
  193DOPC  H11Y23912   7.597   1.536   4.407
  193DOPC  C31223913   7.382   1.505   4.383
  193DOPC  H12X23914   7.379   1.394   4.387
  193DOPC  H12Y23915   7.305   1.536   4.310
  193DOPC  C31323916   7.346   1.557   4.524
  193DOPC  H13X23917   7.250   1.512   4.555
  193DOPC  H13Y23918   7.424   1.520   4.595
  193DOPC  C31423919   7.338   1.710   4.538
  193DOPC  H14X23920   7.325   1.735   4.645
  193DOPC  H14Y23921   7.435   1.753   4.505
  193DOPC  C31523922   7.223   1.775   4.459
  193DOPC  H15X23923   7.126   1.746   4.503
  193DOPC  H15Y23924   7.226   1.737   4.354
  193DOPC  C31623925   7.232   1.929   4.450
  193DOPC  H16X23926   7.328   1.953   4.398
  193DOPC  H16Y23927   7.150   1.967   4.386
  193DOPC  C31723928   7.229   2.003   4.584
  193DOPC  H17X23929   7.301   1.957   4.654
  193DOPC  H17Y23930   7.264   2.107   4.566
  193DOPC  C31823931   7.091   2.009   4.649
  193DOPC  H18X23932   7.020   2.065   4.584
  193DOPC  H18Y23933   7.051   1.906   4.663
  193DOPC  H18Z23934   7.096   2.060   4.747
  194DOPC     N23935   1.837   0.357   2.805
  194DOPC   C1223936   1.905   0.236   2.867
  194DOPC  H12A23937   1.994   0.270   2.918
  194DOPC  H12B23938   1.940   0.169   2.789
  194DOPC   C1323939   1.689   0.341   2.813
  194DOPC  H13A23940   1.634   0.426   2.775
  194DOPC  H13B23941   1.656   0.252   2.759
  194DOPC  H13C23942   1.664   0.324   2.916
  194DOPC   C1423943   1.882   0.375   2.663
  194DOPC  H14A23944   1.990   0.381   2.660
  194DOPC  H14B23945   1.851   0.291   2.602
  194DOPC  H14C23946   1.843   0.467   2.621
  194DOPC   C1523947   1.877   0.478   2.884
  194DOPC  H15A23948   1.983   0.498   2.876
  194DOPC  H15B23949   1.859   0.461   2.990
  194DOPC  H15C23950   1.824   0.567   2.854
  194DOPC   C1123951   1.824   0.152   2.969
  194DOPC  H11A23952   1.741   0.100   2.916
  194DOPC  H11B23953   1.888   0.071   3.009
  194DOPC     P23954   1.859   0.272   3.198
  194DOPC   O1323955   1.936   0.393   3.160
  194DOPC   O1423956   1.937   0.154   3.236
  194DOPC   O1223957   1.769   0.233   3.073
  194DOPC   O1123958   1.748   0.305   3.306
  194DOPC    C123959   1.637   0.387   3.269
  194DOPC    HA23960   1.587   0.350   3.177
  194DOPC    HB23961   1.672   0.491   3.248
  194DOPC    C223962   1.526   0.396   3.379
  194DOPC    HS23963   1.465   0.486   3.361
  194DOPC   O2123964   1.580   0.401   3.512
  194DOPC   C2123965   1.671   0.491   3.541
  194DOPC   O2223966   1.712   0.579   3.468
  194DOPC   C2223967   1.708   0.475   3.689
  194DOPC   H2R23968   1.649   0.392   3.733
  194DOPC   H2S23969   1.679   0.569   3.740
  194DOPC    C323970   1.432   0.272   3.374
  194DOPC    HX23971   1.373   0.280   3.279
  194DOPC    HY23972   1.358   0.278   3.457
  194DOPC   O3123973   1.502   0.146   3.373
  194DOPC   C3123974   1.543   0.103   3.493
  194DOPC   O3223975   1.508   0.150   3.600
  194DOPC   C3223976   1.633  -0.019   3.477
  194DOPC   H2X23977   1.588  -0.088   3.402
  194DOPC   H2Y23978   1.730   0.017   3.439
  194DOPC   C2323979   1.859   0.449   3.708
  194DOPC   H3R23980   1.880   0.454   3.817
  194DOPC   H3S23981   1.920   0.528   3.659
  194DOPC   C2423982   1.899   0.311   3.655
  194DOPC   H4R23983   1.898   0.313   3.544
  194DOPC   H4S23984   1.823   0.236   3.686
  194DOPC   C2523985   2.038   0.264   3.702
  194DOPC   H5R23986   2.115   0.334   3.664
  194DOPC   H5S23987   2.057   0.165   3.654
  194DOPC   C2623988   2.054   0.247   3.855
  194DOPC   H6R23989   2.066   0.348   3.901
  194DOPC   H6S23990   2.147   0.190   3.873
  194DOPC   C2723991   1.936   0.175   3.922
  194DOPC   H7R23992   1.904   0.091   3.856
  194DOPC   H7S23993   1.849   0.245   3.930
  194DOPC   C2823994   1.967   0.117   4.061
  194DOPC   H8R23995   2.042   0.035   4.048
  194DOPC   H8S23996   1.874   0.068   4.099
  194DOPC   C2923997   2.021   0.219   4.158
  194DOPC   H9R23998   2.115   0.266   4.126
  194DOPC  C21023999   1.967   0.257   4.275
  194DOPC  H10R24000   2.017   0.335   4.333
  194DOPC  C21124001   1.839   0.205   4.336
  194DOPC  H11R24002   1.850   0.199   4.447
  194DOPC  H11S24003   1.816   0.102   4.302
  194DOPC  C21224004   1.718   0.295   4.302
  194DOPC  H12R24005   1.626   0.249   4.346
  194DOPC  H12S24006   1.705   0.296   4.192
  194DOPC  C21324007   1.730   0.440   4.352
  194DOPC  H13R24008   1.650   0.500   4.303
  194DOPC  H13S24009   1.827   0.483   4.320
  194DOPC  C21424010   1.713   0.454   4.504
  194DOPC  H14R24011   1.771   0.375   4.556
  194DOPC  H14S24012   1.606   0.437   4.528
  194DOPC  C21524013   1.754   0.592   4.559
  194DOPC  H15R24014   1.717   0.600   4.663
  194DOPC  H15S24015   1.703   0.671   4.499
  194DOPC  C21624016   1.905   0.619   4.560
  194DOPC  H16R24017   1.922   0.717   4.610
  194DOPC  H16S24018   1.944   0.628   4.457
  194DOPC  C21724019   1.985   0.511   4.634
  194DOPC  H17R24020   1.987   0.420   4.570
  194DOPC  H17S24021   1.932   0.486   4.728
  194DOPC  C21824022   2.129   0.550   4.669
  194DOPC  H18R24023   2.182   0.465   4.716
  194DOPC  H18S24024   2.131   0.636   4.738
  194DOPC  H18T24025   2.185   0.578   4.577
  194DOPC   C3324026   1.653  -0.093   3.612
  194DOPC   H3X24027   1.684  -0.019   3.689
  194DOPC   H3Y24028   1.737  -0.165   3.602
  194DOPC   C3424029   1.529  -0.170   3.659
  194DOPC   H4X24030   1.525  -0.267   3.604
  194DOPC   H4Y24031   1.437  -0.113   3.632
  194DOPC   C3524032   1.525  -0.196   3.810
  194DOPC   H5X24033   1.616  -0.249   3.844
  194DOPC   H5Y24034   1.439  -0.264   3.831
  194DOPC   C3624035   1.504  -0.068   3.893
  194DOPC   H6X24036   1.603  -0.024   3.920
  194DOPC   H6Y24037   1.453   0.007   3.829
  194DOPC   C3724038   1.418  -0.088   4.019
  194DOPC   H7X24039   1.391   0.011   4.060
  194DOPC   H7Y24040   1.323  -0.137   3.986
  194DOPC   C3824041   1.487  -0.171   4.129
  194DOPC   H8X24042   1.568  -0.109   4.174
  194DOPC   H8Y24043   1.534  -0.259   4.081
  194DOPC   C3924044   1.388  -0.219   4.232
  194DOPC   H9X24045   1.301  -0.271   4.188
  194DOPC  C31024046   1.394  -0.207   4.366
  194DOPC  H10X24047   1.313  -0.251   4.425
  194DOPC  C31124048   1.501  -0.142   4.450
  194DOPC  H11X24049   1.481  -0.033   4.460
  194DOPC  H11Y24050   1.602  -0.153   4.406
  194DOPC  C31224051   1.498  -0.205   4.591
  194DOPC  H12X24052   1.512  -0.315   4.584
  194DOPC  H12Y24053   1.399  -0.186   4.638
  194DOPC  C31324054   1.606  -0.150   4.685
  194DOPC  H13X24055   1.705  -0.186   4.648
  194DOPC  H13Y24056   1.607  -0.039   4.680
  194DOPC  C31424057   1.586  -0.195   4.831
  194DOPC  H14X24058   1.535  -0.293   4.833
  194DOPC  H14Y24059   1.686  -0.209   4.877
  194DOPC  C31524060   1.510  -0.093   4.917
  194DOPC  H15X24061   1.411  -0.072   4.872
  194DOPC  H15Y24062   1.568   0.002   4.917
  194DOPC  C31624063   1.494  -0.140   5.063
  194DOPC  H16X24064   1.417  -0.220   5.068
  194DOPC  H16Y24065   1.590  -0.185   5.095
  194DOPC  C31724066   1.460  -0.026   5.161
  194DOPC  H17X24067   1.481  -0.062   5.264
  194DOPC  H17Y24068   1.528   0.059   5.141
  194DOPC  C31824069   1.314   0.021   5.155
  194DOPC  H18X24070   1.291   0.062   5.055
  194DOPC  H18Y24071   1.245  -0.063   5.176
  194DOPC  H18Z24072   1.297   0.101   5.230
  195DOPC     N24073   5.669   7.586   3.053
  195DOPC   C1224074   5.705   7.483   3.158
  195DOPC  H12A24075   5.630   7.405   3.155
  195DOPC  H12B24076   5.698   7.529   3.256
  195DOPC   C1324077   5.548   7.663   3.095
  195DOPC  H13A24078   5.461   7.598   3.099
  195DOPC  H13B24079   5.561   7.711   3.191
  195DOPC  H13C24080   5.525   7.740   3.023
  195DOPC   C1424081   5.631   7.515   2.926
  195DOPC  H14A24082   5.614   7.585   2.845
  195DOPC  H14B24083   5.710   7.446   2.898
  195DOPC  H14C24084   5.539   7.460   2.938
  195DOPC   C1524085   5.782   7.680   3.026
  195DOPC  H15A24086   5.807   7.741   3.112
  195DOPC  H15B24087   5.758   7.750   2.947
  195DOPC  H15C24088   5.870   7.626   2.996
  195DOPC   C1124089   5.844   7.415   3.149
  195DOPC  H11A24090   5.922   7.491   3.172
  195DOPC  H11B24091   5.851   7.337   3.228
  195DOPC     P24092   5.996   7.368   2.940
  195DOPC   O1324093   6.028   7.511   2.922
  195DOPC   O1424094   5.981   7.288   2.816
  195DOPC   O1224095   5.863   7.352   3.022
  195DOPC   O1124096   6.105   7.301   3.033
  195DOPC    C124097   6.193   7.376   3.116
  195DOPC    HA24098   6.153   7.477   3.140
  195DOPC    HB24099   6.291   7.387   3.065
  195DOPC    C224100   6.220   7.305   3.251
  195DOPC    HS24101   6.264   7.206   3.227
  195DOPC   O2124102   6.096   7.291   3.321
  195DOPC   C2124103   6.097   7.200   3.417
  195DOPC   O2224104   6.188   7.122   3.440
  195DOPC   C2224105   5.968   7.214   3.497
  195DOPC   H2R24106   5.898   7.277   3.438
  195DOPC   H2S24107   5.993   7.268   3.591
  195DOPC    C324108   6.322   7.387   3.337
  195DOPC    HX24109   6.417   7.390   3.280
  195DOPC    HY24110   6.345   7.332   3.431
  195DOPC   O3124111   6.276   7.523   3.359
  195DOPC   C3124112   6.202   7.540   3.469
  195DOPC   O3224113   6.187   7.458   3.558
  195DOPC   C3224114   6.139   7.680   3.468
  195DOPC   H2X24115   6.169   7.732   3.562
  195DOPC   H2Y24116   6.183   7.736   3.382
  195DOPC   C2324117   5.899   7.079   3.528
  195DOPC   H3R24118   5.948   7.032   3.615
  195DOPC   H3S24119   5.910   7.009   3.442
  195DOPC   C2424120   5.749   7.097   3.553
  195DOPC   H4R24121   5.707   7.000   3.587
  195DOPC   H4S24122   5.700   7.123   3.456
  195DOPC   C2524123   5.713   7.208   3.654
  195DOPC   H5R24124   5.603   7.209   3.669
  195DOPC   H5S24125   5.741   7.306   3.612
  195DOPC   C2624126   5.781   7.193   3.791
  195DOPC   H6R24127   5.753   7.280   3.854
  195DOPC   H6S24128   5.891   7.196   3.778
  195DOPC   C2724129   5.745   7.063   3.866
  195DOPC   H7R24130   5.760   6.976   3.799
  195DOPC   H7S24131   5.637   7.065   3.894
  195DOPC   C2824132   5.831   7.041   3.992
  195DOPC   H8R24133   5.937   7.031   3.959
  195DOPC   H8S24134   5.802   6.945   4.038
  195DOPC   C2924135   5.814   7.153   4.091
  195DOPC   H9R24136   5.717   7.155   4.143
  195DOPC  C21024137   5.904   7.250   4.118
  195DOPC  H10R24138   5.879   7.323   4.196
  195DOPC  C21124139   6.041   7.266   4.056
  195DOPC  H11R24140   6.040   7.235   3.950
  195DOPC  H11S24141   6.115   7.201   4.108
  195DOPC  C21224142   6.093   7.411   4.062
  195DOPC  H12R24143   6.024   7.477   4.005
  195DOPC  H12S24144   6.191   7.415   4.011
  195DOPC  C21324145   6.109   7.470   4.204
  195DOPC  H13R24146   6.012   7.469   4.258
  195DOPC  H13S24147   6.138   7.577   4.193
  195DOPC  C21424148   6.217   7.399   4.288
  195DOPC  H14R24149   6.312   7.401   4.231
  195DOPC  H14S24150   6.189   7.292   4.304
  195DOPC  C21524151   6.240   7.465   4.425
  195DOPC  H15R24152   6.251   7.575   4.410
  195DOPC  H15S24153   6.335   7.427   4.468
  195DOPC  C21624154   6.127   7.439   4.526
  195DOPC  H16R24155   6.130   7.332   4.556
  195DOPC  H16S24156   6.029   7.456   4.477
  195DOPC  C21724157   6.133   7.528   4.652
  195DOPC  H17R24158   6.050   7.498   4.720
  195DOPC  H17S24159   6.113   7.633   4.620
  195DOPC  C21824160   6.265   7.523   4.729
  195DOPC  H18R24161   6.259   7.586   4.820
  195DOPC  H18S24162   6.349   7.561   4.666
  195DOPC  H18T24163   6.288   7.419   4.760
  195DOPC   C3324164   5.985   7.679   3.454
  195DOPC   H3X24165   5.949   7.586   3.405
  195DOPC   H3Y24166   5.957   7.763   3.388
  195DOPC   C3424167   5.909   7.701   3.587
  195DOPC   H4X24168   5.801   7.714   3.563
  195DOPC   H4Y24169   5.945   7.795   3.634
  195DOPC   C3524170   5.922   7.585   3.687
  195DOPC   H5X24171   6.028   7.576   3.720
  195DOPC   H5Y24172   5.896   7.490   3.636
  195DOPC   C3624173   5.834   7.601   3.812
  195DOPC   H6X24174   5.727   7.604   3.782
  195DOPC   H6Y24175   5.848   7.511   3.876
  195DOPC   C3724176   5.868   7.725   3.895
  195DOPC   H7X24177   5.978   7.734   3.901
  195DOPC   H7Y24178   5.830   7.816   3.844
  195DOPC   C3824179   5.815   7.721   4.041
  195DOPC   H8X24180   5.851   7.813   4.091
  195DOPC   H8Y24181   5.865   7.636   4.092
  195DOPC   C3924182   5.665   7.715   4.052
  195DOPC   H9X24183   5.611   7.788   3.989
  195DOPC  C31024184   5.593   7.632   4.130
  195DOPC  H10X24185   5.483   7.641   4.130
  195DOPC  C31124186   5.648   7.525   4.222
  195DOPC  H11X24187   5.747   7.490   4.187
  195DOPC  H11Y24188   5.581   7.437   4.221
  195DOPC  C31224189   5.664   7.572   4.368
  195DOPC  H12X24190   5.566   7.604   4.409
  195DOPC  H12Y24191   5.732   7.660   4.370
  195DOPC  C31324192   5.723   7.462   4.458
  195DOPC  H13X24193   5.653   7.376   4.463
  195DOPC  H13Y24194   5.817   7.426   4.410
  195DOPC  C31424195   5.757   7.509   4.601
  195DOPC  H14X24196   5.822   7.432   4.647
  195DOPC  H14Y24197   5.815   7.603   4.596
  195DOPC  C31524198   5.633   7.529   4.690
  195DOPC  H15X24199   5.579   7.432   4.699
  195DOPC  H15Y24200   5.565   7.601   4.641
  195DOPC  C31624201   5.666   7.581   4.831
  195DOPC  H16X24202   5.713   7.682   4.823
  195DOPC  H16Y24203   5.570   7.594   4.886
  195DOPC  C31724204   5.757   7.489   4.913
  195DOPC  H17X24205   5.716   7.386   4.910
  195DOPC  H17Y24206   5.858   7.486   4.865
  195DOPC  C31824207   5.773   7.533   5.059
  195DOPC  H18X24208   5.841   7.464   5.113
  195DOPC  H18Y24209   5.815   7.635   5.065
  195DOPC  H18Z24210   5.675   7.533   5.111
  196DOPC     N24211   0.835   1.213   2.902
  196DOPC   C1224212   0.977   1.160   2.916
  196DOPC  H12A24213   1.039   1.237   2.960
  196DOPC  H12B24214   1.016   1.139   2.817
  196DOPC   C1324215   0.742   1.098   2.879
  196DOPC  H13A24216   0.774   1.035   2.797
  196DOPC  H13B24217   0.741   1.035   2.967
  196DOPC  H13C24218   0.639   1.126   2.861
  196DOPC   C1424219   0.831   1.310   2.788
  196DOPC  H14A24220   0.846   1.259   2.694
  196DOPC  H14B24221   0.737   1.362   2.780
  196DOPC  H14C24222   0.908   1.386   2.798
  196DOPC   C1524223   0.798   1.280   3.031
  196DOPC  H15A24224   0.696   1.315   3.035
  196DOPC  H15B24225   0.866   1.360   3.056
  196DOPC  H15C24226   0.807   1.207   3.111
  196DOPC   C1124227   0.999   1.033   3.002
  196DOPC  H11A24228   0.945   0.948   2.954
  196DOPC  H11B24229   1.107   1.008   2.997
  196DOPC     P24230   0.855   0.973   3.217
  196DOPC   O1324231   0.730   1.051   3.205
  196DOPC   O1424232   0.907   0.941   3.351
  196DOPC   O1224233   0.965   1.055   3.138
  196DOPC   O1124234   0.841   0.841   3.129
  196DOPC    C124235   0.777   0.726   3.188
  196DOPC    HA24236   0.808   0.709   3.293
  196DOPC    HB24237   0.808   0.635   3.132
  196DOPC    C224238   0.622   0.733   3.181
  196DOPC    HS24239   0.595   0.770   3.079
  196DOPC   O2124240   0.577   0.822   3.284
  196DOPC   C2124241   0.464   0.886   3.260
  196DOPC   O2224242   0.392   0.868   3.163
  196DOPC   C2224243   0.436   0.987   3.372
  196DOPC   H2R24244   0.332   0.971   3.407
  196DOPC   H2S24245   0.445   1.087   3.327
  196DOPC    C324246   0.557   0.593   3.201
  196DOPC    HX24247   0.592   0.528   3.118
  196DOPC    HY24248   0.447   0.600   3.192
  196DOPC   O3124249   0.601   0.536   3.326
  196DOPC   C3124250   0.528   0.567   3.431
  196DOPC   O3224251   0.416   0.613   3.429
  196DOPC   C3224252   0.608   0.537   3.558
  196DOPC   H2X24253   0.540   0.555   3.644
  196DOPC   H2Y24254   0.638   0.430   3.555
  196DOPC   C2324255   0.534   0.977   3.492
  196DOPC   H3R24256   0.639   0.981   3.454
  196DOPC   H3S24257   0.522   0.879   3.543
  196DOPC   C2424258   0.519   1.091   3.593
  196DOPC   H4R24259   0.421   1.082   3.646
  196DOPC   H4S24260   0.521   1.188   3.538
  196DOPC   C2524261   0.633   1.091   3.696
  196DOPC   H5R24262   0.730   1.094   3.641
  196DOPC   H5S24263   0.631   0.996   3.753
  196DOPC   C2624264   0.627   1.210   3.792
  196DOPC   H6R24265   0.535   1.203   3.854
  196DOPC   H6S24266   0.621   1.304   3.732
  196DOPC   C2724267   0.751   1.220   3.884
  196DOPC   H7R24268   0.748   1.317   3.938
  196DOPC   H7S24269   0.841   1.221   3.820
  196DOPC   C2824270   0.763   1.105   3.986
  196DOPC   H8R24271   0.863   1.113   4.035
  196DOPC   H8S24272   0.764   1.009   3.930
  196DOPC   C2924273   0.656   1.109   4.091
  196DOPC   H9R24274   0.655   1.201   4.151
  196DOPC  C21024275   0.562   1.016   4.118
  196DOPC  H10R24276   0.490   1.037   4.198
  196DOPC  C21124277   0.540   0.883   4.050
  196DOPC  H11R24278   0.595   0.877   3.954
  196DOPC  H11S24279   0.432   0.872   4.025
  196DOPC  C21224280   0.582   0.763   4.138
  196DOPC  H12R24281   0.692   0.769   4.155
  196DOPC  H12S24282   0.562   0.670   4.081
  196DOPC  C21324283   0.513   0.754   4.275
  196DOPC  H13R24284   0.403   0.756   4.262
  196DOPC  H13S24285   0.542   0.842   4.336
  196DOPC  C21424286   0.553   0.625   4.349
  196DOPC  H14R24287   0.664   0.619   4.350
  196DOPC  H14S24288   0.515   0.538   4.293
  196DOPC  C21524289   0.505   0.617   4.495
  196DOPC  H15R24290   0.536   0.518   4.535
  196DOPC  H15S24291   0.394   0.622   4.499
  196DOPC  C21624292   0.565   0.724   4.587
  196DOPC  H16R24293   0.506   0.818   4.576
  196DOPC  H16S24294   0.669   0.746   4.553
  196DOPC  C21724295   0.571   0.681   4.734
  196DOPC  H17R24296   0.612   0.766   4.793
  196DOPC  H17S24297   0.642   0.597   4.743
  196DOPC  C21824298   0.436   0.639   4.793
  196DOPC  H18R24299   0.446   0.621   4.903
  196DOPC  H18S24300   0.401   0.545   4.746
  196DOPC  H18T24301   0.360   0.718   4.777
  196DOPC   C3324302   0.733   0.628   3.567
  196DOPC   H3X24303   0.702   0.734   3.568
  196DOPC   H3Y24304   0.796   0.612   3.478
  196DOPC   C3424305   0.822   0.602   3.690
  196DOPC   H4X24306   0.899   0.682   3.692
  196DOPC   H4Y24307   0.875   0.506   3.677
  196DOPC   C3524308   0.746   0.602   3.823
  196DOPC   H5X24309   0.677   0.514   3.826
  196DOPC   H5Y24310   0.684   0.693   3.830
  196DOPC   C3624311   0.839   0.595   3.945
  196DOPC   H6X24312   0.779   0.569   4.035
  196DOPC   H6Y24313   0.915   0.514   3.931
  196DOPC   C3724314   0.909   0.729   3.970
  196DOPC   H7X24315   0.979   0.751   3.887
  196DOPC   H7Y24316   0.831   0.808   3.970
  196DOPC   C3824317   0.985   0.733   4.104
  196DOPC   H8X24318   1.069   0.661   4.099
  196DOPC   H8Y24319   0.916   0.697   4.184
  196DOPC   C3924320   1.036   0.872   4.131
  196DOPC   H9X24321   1.093   0.915   4.048
  196DOPC  C31024322   1.018   0.947   4.241
  196DOPC  H10X24323   1.063   1.047   4.244
  196DOPC  C31124324   0.942   0.909   4.366
  196DOPC  H11X24325   0.880   0.818   4.352
  196DOPC  H11Y24326   0.872   0.991   4.393
  196DOPC  C31224327   1.037   0.885   4.485
  196DOPC  H12X24328   1.103   0.973   4.499
  196DOPC  H12Y24329   1.101   0.797   4.464
  196DOPC  C31324330   0.960   0.862   4.616
  196DOPC  H13X24331   0.900   0.953   4.637
  196DOPC  H13Y24332   0.889   0.777   4.603
  196DOPC  C31424333   1.053   0.835   4.735
  196DOPC  H14X24334   1.101   0.736   4.720
  196DOPC  H14Y24335   1.133   0.912   4.734
  196DOPC  C31524336   0.982   0.839   4.871
  196DOPC  H15X24337   0.914   0.927   4.875
  196DOPC  H15Y24338   1.059   0.853   4.950
  196DOPC  C31624339   0.903   0.712   4.904
  196DOPC  H16X24340   0.830   0.693   4.822
  196DOPC  H16Y24341   0.971   0.625   4.907
  196DOPC  C31724342   0.829   0.722   5.038
  196DOPC  H17X24343   0.902   0.748   5.117
  196DOPC  H17Y24344   0.755   0.805   5.032
  196DOPC  C31824345   0.757   0.593   5.076
  196DOPC  H18X24346   0.684   0.564   4.998
  196DOPC  H18Y24347   0.830   0.510   5.087
  196DOPC  H18Z24348   0.703   0.604   5.173
  197DOPC     N24349   1.321   7.262   2.865
  197DOPC   C1224350   1.371   7.371   2.958
  197DOPC  H12A24351   1.287   7.406   3.017
  197DOPC  H12B24352   1.406   7.453   2.897
  197DOPC   C1324353   1.294   7.134   2.940
  197DOPC  H13A24354   1.279   7.052   2.873
  197DOPC  H13B24355   1.380   7.108   3.001
  197DOPC  H13C24356   1.207   7.141   3.004
  197DOPC   C1424357   1.426   7.231   2.762
  197DOPC  H14A24358   1.518   7.205   2.812
  197DOPC  H14B24359   1.398   7.148   2.700
  197DOPC  H14C24360   1.447   7.316   2.698
  197DOPC   C1524361   1.195   7.301   2.794
  197DOPC  H15A24362   1.113   7.315   2.863
  197DOPC  H15B24363   1.167   7.224   2.724
  197DOPC  H15C24364   1.209   7.390   2.735
  197DOPC   C1124365   1.485   7.336   3.057
  197DOPC  H11A24366   1.515   7.428   3.112
  197DOPC  H11B24367   1.446   7.266   3.132
  197DOPC     P24368   1.682   7.164   3.049
  197DOPC   O1324369   1.736   7.205   3.179
  197DOPC   O1424370   1.778   7.122   2.944
  197DOPC   O1224371   1.599   7.285   2.988
  197DOPC   O1124372   1.569   7.053   3.064
  197DOPC    C124373   1.566   6.968   3.180
  197DOPC    HA24374   1.632   7.002   3.263
  197DOPC    HB24375   1.599   6.866   3.152
  197DOPC    C224376   1.422   6.960   3.238
  197DOPC    HS24377   1.359   6.918   3.156
  197DOPC   O2124378   1.381   7.092   3.277
  197DOPC   C2124379   1.251   7.112   3.274
  197DOPC   O2224380   1.168   7.034   3.230
  197DOPC   C2224381   1.220   7.254   3.324
  197DOPC   H2R24382   1.126   7.287   3.274
  197DOPC   H2S24383   1.302   7.322   3.294
  197DOPC    C324384   1.414   6.863   3.359
  197DOPC    HX24385   1.458   6.766   3.328
  197DOPC    HY24386   1.307   6.843   3.383
  197DOPC   O3124387   1.490   6.916   3.471
  197DOPC   C3124388   1.420   6.980   3.563
  197DOPC   O3224389   1.298   6.983   3.572
  197DOPC   C3224390   1.512   7.055   3.661
  197DOPC   H2X24391   1.482   7.162   3.660
  197DOPC   H2Y24392   1.488   7.014   3.761
  197DOPC   C2324393   1.203   7.257   3.477
  197DOPC   H3R24394   1.301   7.235   3.524
  197DOPC   H3S24395   1.132   7.177   3.508
  197DOPC   C2424396   1.153   7.391   3.532
  197DOPC   H4R24397   1.049   7.410   3.498
  197DOPC   H4S24398   1.217   7.473   3.494
  197DOPC   C2524399   1.157   7.393   3.686
  197DOPC   H5R24400   1.129   7.494   3.723
  197DOPC   H5S24401   1.262   7.374   3.719
  197DOPC   C2624402   1.066   7.290   3.754
  197DOPC   H6R24403   1.104   7.188   3.730
  197DOPC   H6S24404   0.963   7.298   3.712
  197DOPC   C2724405   1.060   7.311   3.906
  197DOPC   H7R24406   0.993   7.397   3.926
  197DOPC   H7S24407   1.161   7.340   3.943
  197DOPC   C2824408   1.009   7.189   3.985
  197DOPC   H8R24409   0.913   7.155   3.940
  197DOPC   H8S24410   0.986   7.224   4.088
  197DOPC   C2924411   1.111   7.078   3.985
  197DOPC   H9R24412   1.154   7.053   3.887
  197DOPC  C21024413   1.152   7.009   4.093
  197DOPC  H10R24414   1.230   6.932   4.081
  197DOPC  C21124415   1.103   7.029   4.234
  197DOPC  H11R24416   1.103   6.931   4.288
  197DOPC  H11S24417   0.997   7.062   4.233
  197DOPC  C21224418   1.184   7.133   4.313
  197DOPC  H12R24419   1.128   7.156   4.406
  197DOPC  H12S24420   1.190   7.227   4.254
  197DOPC  C21324421   1.326   7.088   4.352
  197DOPC  H13R24422   1.380   7.175   4.396
  197DOPC  H13S24423   1.381   7.059   4.259
  197DOPC  C21424424   1.331   6.972   4.452
  197DOPC  H14R24425   1.435   6.932   4.457
  197DOPC  H14S24426   1.267   6.889   4.415
  197DOPC  C21524427   1.288   7.012   4.594
  197DOPC  H15R24428   1.201   7.081   4.590
  197DOPC  H15S24429   1.371   7.066   4.643
  197DOPC  C21624430   1.248   6.891   4.678
  197DOPC  H16R24431   1.329   6.815   4.673
  197DOPC  H16S24432   1.156   6.845   4.636
  197DOPC  C21724433   1.223   6.927   4.825
  197DOPC  H17R24434   1.149   7.010   4.829
  197DOPC  H17S24435   1.318   6.965   4.867
  197DOPC  C21824436   1.173   6.810   4.910
  197DOPC  H18R24437   1.247   6.727   4.910
  197DOPC  H18S24438   1.077   6.772   4.870
  197DOPC  H18T24439   1.157   6.843   5.015
  197DOPC   C3324440   1.664   7.042   3.634
  197DOPC   H3X24441   1.693   7.104   3.546
  197DOPC   H3Y24442   1.689   6.937   3.609
  197DOPC   C3424443   1.746   7.082   3.758
  197DOPC   H4X24444   1.695   7.043   3.848
  197DOPC   H4Y24445   1.748   7.193   3.767
  197DOPC   C3524446   1.889   7.025   3.757
  197DOPC   H5X24447   1.946   7.068   3.672
  197DOPC   H5Y24448   1.883   6.915   3.742
  197DOPC   C3624449   1.962   7.053   3.889
  197DOPC   H6X24450   1.978   7.163   3.898
  197DOPC   H6Y24451   1.897   7.022   3.974
  197DOPC   C3724452   2.097   6.981   3.902
  197DOPC   H7X24453   2.076   6.871   3.898
  197DOPC   H7Y24454   2.162   7.005   3.815
  197DOPC   C3824455   2.170   7.011   4.035
  197DOPC   H8X24456   2.242   6.928   4.053
  197DOPC   H8Y24457   2.095   7.005   4.117
  197DOPC   C3924458   2.246   7.141   4.035
  197DOPC   H9X24459   2.321   7.148   3.955
  197DOPC  C31024460   2.232   7.247   4.118
  197DOPC  H10X24461   2.296   7.335   4.102
  197DOPC  C31124462   2.135   7.262   4.233
  197DOPC  H11X24463   2.085   7.166   4.255
  197DOPC  H11Y24464   2.057   7.334   4.202
  197DOPC  C31224465   2.191   7.313   4.367
  197DOPC  H12X24466   2.250   7.407   4.353
  197DOPC  H12Y24467   2.260   7.236   4.408
  197DOPC  C31324468   2.077   7.340   4.468
  197DOPC  H13X24469   2.023   7.432   4.439
  197DOPC  H13Y24470   2.006   7.255   4.458
  197DOPC  C31424471   2.121   7.348   4.615
  197DOPC  H14X24472   2.187   7.262   4.637
  197DOPC  H14Y24473   2.180   7.440   4.631
  197DOPC  C31524474   2.003   7.344   4.715
  197DOPC  H15X24475   1.936   7.430   4.697
  197DOPC  H15Y24476   2.045   7.353   4.817
  197DOPC  C31624477   1.921   7.214   4.707
  197DOPC  H16X24478   1.855   7.217   4.618
  197DOPC  H16Y24479   1.991   7.128   4.694
  197DOPC  C31724480   1.835   7.186   4.831
  197DOPC  H17X24481   1.900   7.184   4.921
  197DOPC  H17Y24482   1.763   7.270   4.844
  197DOPC  C31824483   1.757   7.055   4.822
  197DOPC  H18X24484   1.826   6.969   4.812
  197DOPC  H18Y24485   1.694   7.040   4.913
  197DOPC  H18Z24486   1.690   7.056   4.733
  198DOPC     N24487   7.061   6.552   3.083
  198DOPC   C1224488   6.982   6.425   3.056
  198DOPC  H12A24489   7.052   6.344   3.039
  198DOPC  H12B24490   6.924   6.437   2.966
  198DOPC   C1324491   6.971   6.661   3.130
  198DOPC  H13A24492   6.903   6.692   3.052
  198DOPC  H13B24493   6.909   6.625   3.211
  198DOPC  H13C24494   7.028   6.746   3.166
  198DOPC   C1424495   7.131   6.595   2.957
  198DOPC  H14A24496   7.059   6.614   2.878
  198DOPC  H14B24497   7.189   6.684   2.974
  198DOPC  H14C24498   7.198   6.517   2.924
  198DOPC   C1524499   7.165   6.526   3.187
  198DOPC  H15A24500   7.233   6.449   3.154
  198DOPC  H15B24501   7.118   6.492   3.279
  198DOPC  H15C24502   7.220   6.616   3.209
  198DOPC   C1124503   6.881   6.382   3.166
  198DOPC  H11A24504   6.860   6.273   3.155
  198DOPC  H11B24505   6.927   6.394   3.266
  198DOPC     P24506   6.654   6.422   3.048
  198DOPC   O1324507   6.619   6.279   3.062
  198DOPC   O1424508   6.706   6.465   2.915
  198DOPC   O1224509   6.761   6.460   3.159
  198DOPC   O1124510   6.527   6.507   3.083
  198DOPC    C124511   6.518   6.650   3.074
  198DOPC    HA24512   6.410   6.675   3.071
  198DOPC    HB24513   6.565   6.689   2.981
  198DOPC    C224514   6.577   6.723   3.199
  198DOPC    HS24515   6.686   6.733   3.180
  198DOPC   O2124516   6.550   6.644   3.315
  198DOPC   C2124517   6.647   6.640   3.404
  198DOPC   O2224518   6.757   6.693   3.393
  198DOPC   C2224519   6.599   6.560   3.525
  198DOPC   H2R24520   6.668   6.473   3.537
  198DOPC   H2S24521   6.498   6.522   3.503
  198DOPC    C324522   6.518   6.867   3.217
  198DOPC    HX24523   6.412   6.864   3.183
  198DOPC    HY24524   6.573   6.936   3.150
  198DOPC   O3124525   6.523   6.910   3.355
  198DOPC   C3124526   6.505   7.040   3.377
  198DOPC   O3224527   6.492   7.125   3.290
  198DOPC   C3224528   6.509   7.068   3.528
  198DOPC   H2X24529   6.473   7.172   3.546
  198DOPC   H2Y24530   6.436   6.999   3.576
  198DOPC   C2324531   6.595   6.645   3.654
  198DOPC   H3R24532   6.518   6.605   3.723
  198DOPC   H3S24533   6.562   6.748   3.627
  198DOPC   C2424534   6.729   6.648   3.730
  198DOPC   H4R24535   6.728   6.735   3.799
  198DOPC   H4S24536   6.812   6.664   3.657
  198DOPC   C2524537   6.753   6.521   3.812
  198DOPC   H5R24538   6.736   6.432   3.748
  198DOPC   H5S24539   6.677   6.518   3.894
  198DOPC   C2624540   6.893   6.511   3.874
  198DOPC   H6R24541   6.968   6.510   3.792
  198DOPC   H6S24542   6.901   6.414   3.928
  198DOPC   C2724543   6.927   6.624   3.972
  198DOPC   H7R24544   6.847   6.633   4.048
  198DOPC   H7S24545   6.931   6.720   3.915
  198DOPC   C2824546   7.063   6.600   4.042
  198DOPC   H8R24547   7.138   6.577   3.963
  198DOPC   H8S24548   7.053   6.509   4.104
  198DOPC   C2924549   7.110   6.719   4.121
  198DOPC   H9R24550   7.120   6.811   4.062
  198DOPC  C21024551   7.139   6.723   4.252
  198DOPC  H10R24552   7.174   6.819   4.295
  198DOPC  C21124553   7.132   6.611   4.353
  198DOPC  H11R24554   7.231   6.561   4.360
  198DOPC  H11S24555   7.058   6.534   4.323
  198DOPC  C21224556   7.094   6.664   4.493
  198DOPC  H12R24557   7.164   6.745   4.523
  198DOPC  H12S24558   7.106   6.582   4.566
  198DOPC  C21324559   6.949   6.715   4.502
  198DOPC  H13R24560   6.882   6.629   4.479
  198DOPC  H13S24561   6.931   6.793   4.424
  198DOPC  C21424562   6.912   6.772   4.640
  198DOPC  H14R24563   6.944   6.703   4.720
  198DOPC  H14S24564   6.801   6.781   4.646
  198DOPC  C21524565   6.968   6.913   4.665
  198DOPC  H15R24566   6.944   6.976   4.577
  198DOPC  H15S24567   7.078   6.908   4.674
  198DOPC  C21624568   6.908   6.977   4.792
  198DOPC  H16R24569   6.937   6.915   4.879
  198DOPC  H16S24570   6.797   6.976   4.784
  198DOPC  C21724571   6.954   7.122   4.816
  198DOPC  H17R24572   7.065   7.125   4.816
  198DOPC  H17S24573   6.919   7.152   4.918
  198DOPC  C21824574   6.899   7.223   4.715
  198DOPC  H18R24575   6.934   7.326   4.741
  198DOPC  H18S24576   6.788   7.222   4.714
  198DOPC  H18T24577   6.935   7.200   4.612
  198DOPC   C3324578   6.650   7.047   3.588
  198DOPC   H3X24579   6.711   7.139   3.575
  198DOPC   H3Y24580   6.700   6.965   3.532
  198DOPC   C3424581   6.650   7.003   3.735
  198DOPC   H4X24582   6.753   6.971   3.759
  198DOPC   H4Y24583   6.585   6.913   3.748
  198DOPC   C3524584   6.606   7.106   3.839
  198DOPC   H5X24585   6.497   7.096   3.856
  198DOPC   H5Y24586   6.626   7.209   3.802
  198DOPC   C3624587   6.684   7.084   3.970
  198DOPC   H6X24588   6.699   6.976   3.986
  198DOPC   H6Y24589   6.785   7.130   3.957
  198DOPC   C3724590   6.621   7.143   4.097
  198DOPC   H7X24591   6.702   7.145   4.173
  198DOPC   H7Y24592   6.587   7.247   4.080
  198DOPC   C3824593   6.505   7.058   4.150
  198DOPC   H8X24594   6.532   6.950   4.139
  198DOPC   H8Y24595   6.415   7.073   4.086
  198DOPC   C3924596   6.475   7.094   4.294
  198DOPC   H9X24597   6.422   7.189   4.307
  198DOPC  C31024598   6.507   7.021   4.403
  198DOPC  H10X24599   6.478   7.060   4.502
  198DOPC  C31124600   6.580   6.889   4.406
  198DOPC  H11X24601   6.673   6.900   4.466
  198DOPC  H11Y24602   6.612   6.854   4.306
  198DOPC  C31224603   6.494   6.779   4.472
  198DOPC  H12X24604   6.404   6.758   4.410
  198DOPC  H12Y24605   6.458   6.817   4.570
  198DOPC  C31324606   6.570   6.647   4.492
  198DOPC  H13X24607   6.592   6.602   4.394
  198DOPC  H13Y24608   6.668   6.670   4.540
  198DOPC  C31424609   6.497   6.545   4.581
  198DOPC  H14X24610   6.410   6.505   4.526
  198DOPC  H14Y24611   6.566   6.460   4.599
  198DOPC  C31524612   6.448   6.600   4.717
  198DOPC  H15X24613   6.410   6.514   4.777
  198DOPC  H15Y24614   6.362   6.667   4.698
  198DOPC  C31624615   6.550   6.677   4.802
  198DOPC  H16X24616   6.593   6.762   4.744
  198DOPC  H16Y24617   6.497   6.722   4.888
  198DOPC  C31724618   6.664   6.589   4.856
  198DOPC  H17X24619   6.619   6.495   4.895
  198DOPC  H17Y24620   6.731   6.562   4.772
  198DOPC  C31824621   6.745   6.656   4.967
  198DOPC  H18X24622   6.679   6.679   5.054
  198DOPC  H18Y24623   6.826   6.588   5.001
  198DOPC  H18Z24624   6.790   6.750   4.930
  199DOPC     N24625   6.394   0.280   2.943
  199DOPC   C1224626   6.394   0.428   2.910
  199DOPC  H12A24627   6.413   0.439   2.804
  199DOPC  H12B24628   6.474   0.477   2.963
  199DOPC   C1324629   6.373   0.260   3.090
  199DOPC  H13A24630   6.454   0.302   3.147
  199DOPC  H13B24631   6.285   0.316   3.120
  199DOPC  H13C24632   6.361   0.156   3.116
  199DOPC   C1424633   6.526   0.220   2.904
  199DOPC  H14A24634   6.525   0.113   2.916
  199DOPC  H14B24635   6.548   0.242   2.800
  199DOPC  H14C24636   6.606   0.261   2.964
  199DOPC   C1524637   6.285   0.213   2.866
  199DOPC  H15A24638   6.293   0.235   2.761
  199DOPC  H15B24639   6.188   0.249   2.897
  199DOPC  H15C24640   6.285   0.106   2.877
  199DOPC   C1124641   6.266   0.510   2.943
  199DOPC  H11A24642   6.275   0.612   2.899
  199DOPC  H11B24643   6.178   0.462   2.894
  199DOPC     P24644   6.339   0.603   3.175
  199DOPC   O1324645   6.266   0.720   3.226
  199DOPC   O1424646   6.467   0.626   3.103
  199DOPC   O1224647   6.241   0.518   3.084
  199DOPC   O1124648   6.364   0.501   3.294
  199DOPC    C124649   6.383   0.549   3.427
  199DOPC    HA24650   6.299   0.515   3.492
  199DOPC    HB24651   6.386   0.660   3.434
  199DOPC    C224652   6.516   0.498   3.488
  199DOPC    HS24653   6.597   0.515   3.414
  199DOPC   O2124654   6.503   0.359   3.521
  199DOPC   C2124655   6.529   0.272   3.426
  199DOPC   O2224656   6.578   0.294   3.317
  199DOPC   C2224657   6.487   0.133   3.474
  199DOPC   H2R24658   6.487   0.067   3.384
  199DOPC   H2S24659   6.383   0.139   3.514
  199DOPC    C324660   6.553   0.577   3.616
  199DOPC    HX24661   6.562   0.684   3.587
  199DOPC    HY24662   6.653   0.543   3.650
  199DOPC   O3124663   6.449   0.566   3.717
  199DOPC   C3124664   6.482   0.505   3.830
  199DOPC   O3224665   6.593   0.465   3.860
  199DOPC   C3224666   6.359   0.490   3.919
  199DOPC   H2X24667   6.272   0.464   3.855
  199DOPC   H2Y24668   6.380   0.406   3.988
  199DOPC   C2324669   6.583   0.074   3.580
  199DOPC   H3R24670   6.688   0.097   3.551
  199DOPC   H3S24671   6.573  -0.036   3.583
  199DOPC   C2424672   6.557   0.128   3.722
  199DOPC   H4R24673   6.529   0.235   3.718
  199DOPC   H4S24674   6.651   0.123   3.781
  199DOPC   C2524675   6.449   0.051   3.800
  199DOPC   H5R24676   6.487  -0.050   3.826
  199DOPC   H5S24677   6.358   0.037   3.737
  199DOPC   C2624678   6.411   0.126   3.928
  199DOPC   H6R24679   6.347   0.212   3.898
  199DOPC   H6S24680   6.503   0.166   3.975
  199DOPC   C2724681   6.337   0.041   4.033
  199DOPC   H7R24682   6.403  -0.044   4.061
  199DOPC   H7S24683   6.245  -0.002   3.989
  199DOPC   C2824684   6.303   0.121   4.160
  199DOPC   H8R24685   6.395   0.176   4.192
  199DOPC   H8S24686   6.280   0.050   4.242
  199DOPC   C2924687   6.191   0.219   4.138
  199DOPC   H9R24688   6.200   0.280   4.047
  199DOPC  C21024689   6.082   0.239   4.215
  199DOPC  H10R24690   6.010   0.316   4.184
  199DOPC  C21124691   6.045   0.169   4.344
  199DOPC  H11R24692   6.108   0.080   4.363
  199DOPC  H11S24693   5.941   0.132   4.336
  199DOPC  C21224694   6.052   0.264   4.466
  199DOPC  H12R24695   6.003   0.215   4.552
  199DOPC  H12S24696   5.995   0.356   4.443
  199DOPC  C21324697   6.195   0.303   4.508
  199DOPC  H13R24698   6.189   0.387   4.580
  199DOPC  H13S24699   6.252   0.339   4.420
  199DOPC  C21424700   6.272   0.187   4.574
  199DOPC  H14R24701   6.274   0.101   4.504
  199DOPC  H14S24702   6.217   0.154   4.665
  199DOPC  C21524703   6.417   0.220   4.611
  199DOPC  H15R24704   6.471   0.248   4.518
  199DOPC  H15S24705   6.466   0.128   4.650
  199DOPC  C21624706   6.435   0.334   4.713
  199DOPC  H16R24707   6.389   0.427   4.673
  199DOPC  H16S24708   6.543   0.352   4.725
  199DOPC  C21724709   6.377   0.305   4.853
  199DOPC  H17R24710   6.270   0.280   4.845
  199DOPC  H17S24711   6.384   0.399   4.912
  199DOPC  C21824712   6.452   0.195   4.929
  199DOPC  H18R24713   6.412   0.184   5.032
  199DOPC  H18S24714   6.560   0.220   4.937
  199DOPC  H18T24715   6.442   0.098   4.877
  199DOPC   C3324716   6.330   0.616   4.004
  199DOPC   H3X24717   6.303   0.701   3.937
  199DOPC   H3Y24718   6.423   0.642   4.058
  199DOPC   C3424719   6.218   0.595   4.107
  199DOPC   H4X24720   6.241   0.504   4.167
  199DOPC   H4Y24721   6.122   0.577   4.053
  199DOPC   C3524722   6.199   0.713   4.205
  199DOPC   H5X24723   6.110   0.693   4.268
  199DOPC   H5Y24724   6.179   0.806   4.147
  199DOPC   C3624725   6.321   0.733   4.296
  199DOPC   H6X24726   6.345   0.637   4.345
  199DOPC   H6Y24727   6.408   0.762   4.232
  199DOPC   C3724728   6.304   0.841   4.404
  199DOPC   H7X24729   6.278   0.939   4.358
  199DOPC   H7Y24730   6.218   0.813   4.469
  199DOPC   C3824731   6.429   0.856   4.493
  199DOPC   H8X24732   6.449   0.757   4.540
  199DOPC   H8Y24733   6.403   0.925   4.576
  199DOPC   C3924734   6.553   0.908   4.425
  199DOPC   H9X24735   6.563   1.018   4.425
  199DOPC  C31024736   6.648   0.836   4.363
  199DOPC  H10X24737   6.733   0.889   4.317
  199DOPC  C31124738   6.652   0.686   4.347
  199DOPC  H11X24739   6.629   0.662   4.241
  199DOPC  H11Y24740   6.575   0.634   4.408
  199DOPC  C31224741   6.789   0.622   4.378
  199DOPC  H12X24742   6.870   0.684   4.333
  199DOPC  H12Y24743   6.794   0.523   4.327
  199DOPC  C31324744   6.818   0.601   4.527
  199DOPC  H13X24745   6.928   0.601   4.542
  199DOPC  H13Y24746   6.775   0.685   4.586
  199DOPC  C31424747   6.764   0.466   4.578
  199DOPC  H14X24748   6.653   0.468   4.575
  199DOPC  H14Y24749   6.798   0.387   4.508
  199DOPC  C31524750   6.814   0.429   4.719
  199DOPC  H15X24751   6.925   0.431   4.721
  199DOPC  H15Y24752   6.782   0.324   4.739
  199DOPC  C31624753   6.758   0.519   4.830
  199DOPC  H16X24754   6.798   0.622   4.818
  199DOPC  H16Y24755   6.648   0.525   4.820
  199DOPC  C31724756   6.792   0.465   4.970
  199DOPC  H17X24757   6.763   0.358   4.975
  199DOPC  H17Y24758   6.902   0.471   4.985
  199DOPC  C31824759   6.721   0.541   5.082
  199DOPC  H18X24760   6.750   0.500   5.181
  199DOPC  H18Y24761   6.748   0.649   5.080
  199DOPC  H18Z24762   6.611   0.532   5.071
  200DOPC     N24763   1.169   0.125   2.904
  200DOPC   C1224764   1.216   0.269   2.920
  200DOPC  H12A24765   1.191   0.324   2.831
  200DOPC  H12B24766   1.324   0.269   2.926
  200DOPC   C1324767   1.178   0.052   3.034
  200DOPC  H13A24768   1.112   0.100   3.104
  200DOPC  H13B24769   1.144  -0.050   3.023
  200DOPC  H13C24770   1.279   0.054   3.074
  200DOPC   C1424771   1.249   0.057   2.796
  200DOPC  H14A24772   1.355   0.066   2.811
  200DOPC  H14B24773   1.221  -0.047   2.789
  200DOPC  H14C24774   1.226   0.101   2.700
  200DOPC   C1524775   1.025   0.119   2.862
  200DOPC  H15A24776   1.008   0.173   2.770
  200DOPC  H15B24777   0.962   0.162   2.938
  200DOPC  H15C24778   0.992   0.017   2.847
  200DOPC   C1124779   1.163   0.352   3.041
  200DOPC  H11A24780   1.179   0.297   3.136
  200DOPC  H11B24781   1.222   0.445   3.047
  200DOPC     P24782   0.907   0.345   3.113
  200DOPC   O1324783   0.913   0.198   3.128
  200DOPC   O1424784   0.789   0.402   3.047
  200DOPC   O1224785   1.027   0.388   3.020
  200DOPC   O1124786   0.933   0.417   3.251
  200DOPC    C124787   0.994   0.355   3.365
  200DOPC    HA24788   1.010   0.434   3.441
  200DOPC    HB24789   1.094   0.315   3.340
  200DOPC    C224790   0.907   0.244   3.431
  200DOPC    HS24791   0.813   0.235   3.371
  200DOPC   O2124792   0.875   0.281   3.567
  200DOPC   C2124793   0.781   0.207   3.624
  200DOPC   O2224794   0.712   0.124   3.566
  200DOPC   C2224795   0.765   0.245   3.771
  200DOPC   H2R24796   0.666   0.295   3.781
  200DOPC   H2S24797   0.844   0.319   3.798
  200DOPC    C324798   0.981   0.106   3.424
  200DOPC    HX24799   1.009   0.088   3.318
  200DOPC    HY24800   0.912   0.024   3.452
  200DOPC   O3124801   1.102   0.111   3.503
  200DOPC   C3124802   1.085   0.069   3.628
  200DOPC   O3224803   0.992   0.002   3.668
  200DOPC   C3224804   1.195   0.123   3.718
  200DOPC   H2X24805   1.180   0.077   3.818
  200DOPC   H2Y24806   1.293   0.088   3.679
  200DOPC   C2324807   0.771   0.124   3.867
  200DOPC   H3R24808   0.774   0.029   3.809
  200DOPC   H3S24809   0.679   0.120   3.929
  200DOPC   C2424810   0.893   0.126   3.961
  200DOPC   H4R24811   0.869   0.186   4.052
  200DOPC   H4S24812   0.979   0.174   3.911
  200DOPC   C2524813   0.935  -0.017   4.000
  200DOPC   H5R24814   0.976  -0.066   3.909
  200DOPC   H5S24815   0.845  -0.073   4.031
  200DOPC   C2624816   1.038  -0.028   4.113
  200DOPC   H6R24817   1.127   0.036   4.092
  200DOPC   H6S24818   1.073  -0.133   4.117
  200DOPC   C2724819   0.978   0.011   4.249
  200DOPC   H7R24820   0.875  -0.031   4.257
  200DOPC   H7S24821   0.966   0.121   4.251
  200DOPC   C2824822   1.059  -0.034   4.372
  200DOPC   H8R24823   1.014   0.018   4.459
  200DOPC   H8S24824   1.163   0.003   4.361
  200DOPC   C2924825   1.060  -0.184   4.394
  200DOPC   H9R24826   1.088  -0.242   4.304
  200DOPC  C21024827   1.033  -0.251   4.507
  200DOPC  H10R24828   1.042  -0.361   4.506
  200DOPC  C21124829   0.992  -0.196   4.641
  200DOPC  H11R24830   0.903  -0.252   4.678
  200DOPC  H11S24831   0.957  -0.090   4.632
  200DOPC  C21224832   1.101  -0.201   4.750
  200DOPC  H12R24833   1.198  -0.236   4.709
  200DOPC  H12S24834   1.070  -0.275   4.827
  200DOPC  C21324835   1.124  -0.065   4.818
  200DOPC  H13R24836   1.189  -0.079   4.906
  200DOPC  H13S24837   1.026  -0.025   4.854
  200DOPC  C21424838   1.189   0.037   4.723
  200DOPC  H14R24839   1.126   0.047   4.631
  200DOPC  H14S24840   1.288  -0.000   4.690
  200DOPC  C21524841   1.203   0.178   4.782
  200DOPC  H15R24842   1.278   0.176   4.865
  200DOPC  H15S24843   1.106   0.208   4.826
  200DOPC  C21624844   1.245   0.282   4.677
  200DOPC  H16R24845   1.252   0.382   4.727
  200DOPC  H16S24846   1.164   0.289   4.601
  200DOPC  C21724847   1.378   0.252   4.605
  200DOPC  H17R24848   1.397   0.334   4.533
  200DOPC  H17S24849   1.366   0.159   4.546
  200DOPC  C21824850   1.499   0.237   4.698
  200DOPC  H18R24851   1.517   0.330   4.755
  200DOPC  H18S24852   1.590   0.214   4.638
  200DOPC  H18T24853   1.483   0.153   4.769
  200DOPC   C3324854   1.192   0.277   3.728
  200DOPC   H3X24855   1.091   0.312   3.757
  200DOPC   H3Y24856   1.215   0.321   3.629
  200DOPC   C3424857   1.293   0.334   3.830
  200DOPC   H4X24858   1.292   0.444   3.824
  200DOPC   H4Y24859   1.395   0.299   3.803
  200DOPC   C3524860   1.262   0.292   3.975
  200DOPC   H5X24861   1.269   0.182   3.983
  200DOPC   H5Y24862   1.157   0.322   3.999
  200DOPC   C3624863   1.357   0.354   4.078
  200DOPC   H6X24864   1.461   0.342   4.040
  200DOPC   H6Y24865   1.337   0.462   4.087
  200DOPC   C3724866   1.348   0.286   4.216
  200DOPC   H7X24867   1.374   0.179   4.203
  200DOPC   H7Y24868   1.426   0.330   4.283
  200DOPC   C3824869   1.210   0.295   4.283
  200DOPC   H8X24870   1.210   0.224   4.369
  200DOPC   H8Y24871   1.132   0.259   4.213
  200DOPC   C3924872   1.181   0.433   4.334
  200DOPC   H9X24873   1.271   0.491   4.359
  200DOPC  C31024874   1.060   0.489   4.351
  200DOPC  H10X24875   1.053   0.592   4.389
  200DOPC  C31124876   0.927   0.424   4.320
  200DOPC  H11X24877   0.932   0.375   4.221
  200DOPC  H11Y24878   0.847   0.501   4.313
  200DOPC  C31224879   0.885   0.318   4.424
  200DOPC  H12X24880   0.967   0.244   4.435
  200DOPC  H12Y24881   0.797   0.264   4.384
  200DOPC  C31324882   0.850   0.372   4.563
  200DOPC  H13X24883   0.936   0.430   4.604
  200DOPC  H13Y24884   0.764   0.441   4.555
  200DOPC  C31424885   0.817   0.256   4.659
  200DOPC  H14X24886   0.737   0.195   4.613
  200DOPC  H14Y24887   0.907   0.192   4.669
  200DOPC  C31524888   0.771   0.301   4.798
  200DOPC  H15X24889   0.679   0.362   4.787
  200DOPC  H15Y24890   0.849   0.365   4.844
  200DOPC  C31624891   0.743   0.180   4.889
  200DOPC  H16X24892   0.667   0.115   4.840
  200DOPC  H16Y24893   0.837   0.122   4.899
  200DOPC  C31724894   0.692   0.217   5.029
  200DOPC  H17X24895   0.692   0.125   5.091
  200DOPC  H17Y24896   0.764   0.288   5.076
  200DOPC  C31824897   0.551   0.277   5.031
  200DOPC  H18X24898   0.520   0.299   5.135
  200DOPC  H18Y24899   0.548   0.371   4.972
  200DOPC  H18Z24900   0.479   0.205   4.987
  201SOD    SOD24901   7.255   1.864   7.413
  202SOD    SOD24902   6.685   6.402   2.450
  203SOD    SOD24903   7.092   1.754   9.753
  204SOD    SOD24904   7.271   7.042   0.280
  205SOD    SOD24905   6.186   3.123   9.687
  206SOD    SOD24906   2.735   2.615   1.433
  207SOD    SOD24907   1.582   1.167   2.049
  208SOD    SOD24908   3.753   3.253   8.709
  209SOD    SOD24909   1.091   2.720   2.694
  210SOD    SOD24910   4.714   0.758   7.209
  211SOD    SOD24911   2.380   2.517   9.176
  212SOD    SOD24912   0.516   4.942   9.103
  213SOD    SOD24913   2.461   5.546   0.275
  214SOD    SOD24914   2.345   3.284   8.765
  215SOD    SOD24915   6.635   5.118   9.369
  216SOD    SOD24916   1.911   5.591   8.434
  217SOD    SOD24917   0.917   2.831   1.534
  218SOD    SOD24918   5.870   4.061   9.312
  219SOD    SOD24919   7.018   2.892   9.730
  220SOD    SOD24920   4.044   2.151   0.621
  221SOD    SOD24921   0.273   6.940   1.238
  222SOD    SOD24922   4.915   5.554   8.070
  223SOD    SOD24923   2.811   6.036   1.593
  224SOD    SOD24924   0.338   4.713   0.784
  225SOD    SOD24925   3.172   2.226   1.558
  226SOD    SOD24926   0.821   7.365   9.321
  227CLA    CLA24927   6.020   3.563   1.526
  228CLA    CLA24928   5.005   4.828   0.212
  229CLA    CLA24929   0.371   4.625   2.031
  230CLA    CLA24930   5.806   3.063   8.054
  231CLA    CLA24931   4.634   6.674   9.883
  232CLA    CLA24932   4.742   2.850   9.665
  233CLA    CLA24933   4.695   1.326   8.098
  234CLA    CLA24934   6.226   5.562   9.025
  235CLA    CLA24935   1.296   0.679   0.192
  236CLA    CLA24936   2.628   0.607   8.470
  237CLA    CLA24937   2.527   2.119   7.752
  238CLA    CLA24938   5.390   1.474   1.855
  239CLA    CLA24939   7.302   0.629   2.098
  240CLA    CLA24940   6.460   4.100   7.277
  241CLA    CLA24941   4.893   7.204   2.457
  242CLA    CLA24942   5.154   3.235   8.300
  243CLA    CLA24943   0.799   0.710   1.666
  244CLA    CLA24944   3.470   2.402   2.093
  245CLA    CLA24945   7.163   6.368   1.943
  246CLA    CLA24946   1.012   0.842   9.744
  247CLA    CLA24947   4.123   0.798   1.612
  248CLA    CLA24948   4.512   4.476   1.870
  249CLA    CLA24949   1.984   6.132   1.961
  250CLA    CLA24950   4.500   2.798   8.812
  251CLA    CLA24951   1.186   3.274   8.018
  252CLA    CLA24952   0.700   2.311   2.410
  253TIP3   OH224953   4.199   4.723   7.061
  253TIP3    H124954   4.134   4.695   6.996
  253TIP3    H224955   4.154   4.789   7.113
  254TIP3   OH224956   3.948   4.473   7.126
  254TIP3    H124957   3.879   4.537   7.141
  254TIP3    H224958   3.994   4.504   7.048
  255TIP3   OH224959   2.842   4.400   7.094
  255TIP3    H124960   2.883   4.470   7.145
  255TIP3    H224961   2.818   4.442   7.011
  256TIP3   OH224962   2.498   4.604   7.049
  256TIP3    H124963   2.411   4.633   7.076
  256TIP3    H224964   2.509   4.518   7.091
  257TIP3   OH224965   2.298   2.606   7.091
  257TIP3    H124966   2.309   2.644   7.178
  257TIP3    H224967   2.384   2.617   7.049
  258TIP3   OH224968   6.091   4.065   7.307
  258TIP3    H124969   6.112   4.150   7.269
  258TIP3    H224970   6.139   4.001   7.254
  259TIP3   OH224971   5.868   4.237   6.980
  259TIP3    H124972   5.949   4.189   6.962
  259TIP3    H224973   5.798   4.173   6.966
  260TIP3   OH224974   6.250   3.930   7.124
  260TIP3    H124975   6.317   3.977   7.173
  260TIP3    H224976   6.298   3.865   7.073
  261TIP3   OH224977   1.694   2.429   7.069
  261TIP3    H124978   1.758   2.391   7.009
  261TIP3    H224979   1.628   2.361   7.079
  262TIP3   OH224980   6.227   2.266   7.032
  262TIP3    H124981   6.184   2.343   6.995
  262TIP3    H224982   6.267   2.222   6.957
  263TIP3   OH224983   5.853   2.674   6.998
  263TIP3    H124984   5.853   2.732   7.074
  263TIP3    H224985   5.818   2.727   6.927
  264TIP3   OH224986   2.883   6.396   7.143
  264TIP3    H124987   2.918   6.409   7.231
  264TIP3    H224988   2.792   6.427   7.149
  265TIP3   OH224989   2.817   6.161   7.000
  265TIP3    H124990   2.790   6.086   7.054
  265TIP3    H224991   2.844   6.227   7.063
  266TIP3   OH224992   2.637   6.502   7.061
  266TIP3    H124993   2.669   6.592   7.073
  266TIP3    H224994   2.665   6.479   6.972
  267TIP3   OH224995   1.320   5.791   7.179
  267TIP3    H124996   1.277   5.727   7.121
  267TIP3    H224997   1.326   5.870   7.126
  268TIP3   OH224998   1.009   5.549   7.214
  268TIP3    H124999   1.081   5.562   7.152
  268TIP3    H225000   0.942   5.613   7.187
  269TIP3   OH225001   1.229   5.552   7.043
  269TIP3    H125002   1.209   5.501   6.965
  269TIP3    H225003   1.291   5.498   7.092
  270TIP3   OH225004   1.275   5.123   6.995
  270TIP3    H125005   1.333   5.137   7.070
  270TIP3    H225006   1.240   5.035   7.007
  271TIP3   OH225007   3.446   0.645   7.164
  271TIP3    H125008   3.473   0.737   7.156
  271TIP3    H225009   3.371   0.637   7.105
  272TIP3   OH225010   0.635   5.188   6.973
  272TIP3    H125011   0.688   5.139   7.037
  272TIP3    H225012   0.613   5.123   6.907
  273TIP3   OH225013   5.573   7.175   7.052
  273TIP3    H125014   5.501   7.160   6.991
  273TIP3    H225015   5.575   7.270   7.065
  274TIP3   OH225016   1.975   0.606   7.051
  274TIP3    H125017   1.934   0.522   7.071
  274TIP3    H225018   1.915   0.649   6.990
  275TIP3   OH225019   2.641   0.024   7.201
  275TIP3    H125020   2.683   0.103   7.235
  275TIP3    H225021   2.580   0.057   7.134
  276TIP3   OH225022   2.464   0.165   7.024
  276TIP3    H125023   2.428   0.238   7.074
  276TIP3    H225024   2.519   0.206   6.957
  277TIP3   OH225025   5.400   0.132   7.010
  277TIP3    H125026   5.317   0.113   6.967
  277TIP3    H225027   5.434   0.209   6.964
  278TIP3   OH225028   5.689   0.539   6.984
  278TIP3    H125029   5.774   0.514   6.947
  278TIP3    H225030   5.667   0.621   6.939
  279TIP3   OH225031   7.062   2.061   6.860
  279TIP3    H125032   7.057   2.029   6.770
  279TIP3    H225033   7.135   2.123   6.859
  280TIP3   OH225034   7.533   1.785   7.132
  280TIP3    H125035   7.628   1.777   7.127
  280TIP3    H225036   7.500   1.716   7.074
  281TIP3   OH225037   7.529   1.295   6.973
  281TIP3    H125038   7.624   1.307   6.975
  281TIP3    H225039   7.517   1.200   6.971
  282TIP3   OH225040   1.013   0.097   7.072
  282TIP3    H125041   1.040   0.006   7.085
  282TIP3    H225042   0.949   0.114   7.141
  283TIP3   OH225043   1.387   0.468   7.037
  283TIP3    H125044   1.333   0.397   7.002
  283TIP3    H225045   1.339   0.547   7.013
  284TIP3   OH225046   4.171   3.596   2.894
  284TIP3    H125047   4.240   3.529   2.897
  284TIP3    H225048   4.200   3.662   2.956
  285TIP3   OH225049   4.408   4.025   2.947
  285TIP3    H125050   4.415   4.115   2.980
  285TIP3    H225051   4.436   4.031   2.856
  286TIP3   OH225052   5.132   3.583   2.983
  286TIP3    H125053   5.119   3.637   3.060
  286TIP3    H225054   5.226   3.564   2.983
  287TIP3   OH225055   4.779   4.207   2.842
  287TIP3    H125056   4.725   4.245   2.772
  287TIP3    H225057   4.819   4.130   2.802
  288TIP3   OH225058   3.238   5.162   3.115
  288TIP3    H125059   3.187   5.121   3.185
  288TIP3    H225060   3.181   5.158   3.038
  289TIP3   OH225061   3.732   5.074   2.998
  289TIP3    H125062   3.770   5.144   2.944
  289TIP3    H225063   3.661   5.116   3.045
  290TIP3   OH225064   4.513   5.427   2.899
  290TIP3    H125065   4.459   5.381   2.963
  290TIP3    H225066   4.597   5.381   2.901
  291TIP3   OH225067   4.361   4.991   2.969
  291TIP3    H125068   4.303   4.938   2.914
  291TIP3    H225069   4.447   4.949   2.960
  292TIP3   OH225070   3.040   5.111   2.925
  292TIP3    H125071   2.979   5.174   2.888
  292TIP3    H225072   2.994   5.027   2.919
  293TIP3   OH225073   2.440   5.284   2.781
  293TIP3    H125074   2.426   5.207   2.836
  293TIP3    H225075   2.498   5.339   2.832
  294TIP3   OH225076   2.636   5.423   2.935
  294TIP3    H125077   2.651   5.508   2.976
  294TIP3    H225078   2.602   5.368   3.006
  295TIP3   OH225079   2.423   5.048   2.935
  295TIP3    H125080   2.379   4.993   2.870
  295TIP3    H225081   2.499   4.996   2.962
  296TIP3   OH225082   2.842   5.278   2.804
  296TIP3    H125083   2.802   5.252   2.720
  296TIP3    H225084   2.774   5.329   2.848
  297TIP3   OH225085   2.598   1.770   3.021
  297TIP3    H125086   2.658   1.704   2.987
  297TIP3    H225087   2.605   1.763   3.116
  298TIP3   OH225088   2.660   2.110   3.017
  298TIP3    H125089   2.598   2.038   3.025
  298TIP3    H225090   2.609   2.188   3.039
  299TIP3   OH225091   2.076   1.504   2.921
  299TIP3    H125092   2.006   1.439   2.925
  299TIP3    H225093   2.140   1.467   2.861
  300TIP3   OH225094   2.215   1.394   2.706
  300TIP3    H125095   2.283   1.384   2.640
  300TIP3    H225096   2.209   1.308   2.748
  301TIP3   OH225097   2.004   1.810   2.801
  301TIP3    H125098   2.044   1.795   2.886
  301TIP3    H225099   1.962   1.895   2.808
  302TIP3   OH225100   2.359   1.797   2.876
  302TIP3    H125101   2.290   1.785   2.942
  302TIP3    H225102   2.441   1.789   2.924
  303TIP3   OH225103   5.820   6.095   2.859
  303TIP3    H125104   5.778   6.063   2.778
  303TIP3    H225105   5.888   6.155   2.828
  304TIP3   OH225106   2.808   6.440   3.053
  304TIP3    H125107   2.895   6.479   3.047
  304TIP3    H225108   2.824   6.345   3.058
  305TIP3   OH225109   2.409   6.811   3.040
  305TIP3    H125110   2.459   6.738   3.079
  305TIP3    H225111   2.438   6.813   2.949
  306TIP3   OH225112   0.846   5.513   2.939
  306TIP3    H125113   0.809   5.585   2.992
  306TIP3    H225114   0.940   5.520   2.952
  307TIP3   OH225115   0.635   5.114   2.872
  307TIP3    H125116   0.691   5.119   2.950
  307TIP3    H225117   0.617   5.021   2.861
  308TIP3   OH225118   0.617   4.838   2.857
  308TIP3    H125119   0.616   4.787   2.938
  308TIP3    H225120   0.643   4.775   2.789
  309TIP3   OH225121   3.962   7.263   2.866
  309TIP3    H125122   3.922   7.213   2.937
  309TIP3    H225123   4.041   7.214   2.844
  310TIP3   OH225124   3.510   7.218   3.118
  310TIP3    H125125   3.483   7.301   3.078
  310TIP3    H225126   3.431   7.165   3.119
  311TIP3   OH225127   1.119   2.256   2.972
  311TIP3    H125128   1.076   2.224   2.893
  311TIP3    H225129   1.185   2.190   2.992
  312TIP3   OH225130   0.729   2.597   2.959
  312TIP3    H125131   0.678   2.528   2.917
  312TIP3    H225132   0.797   2.551   3.007
  313TIP3   OH225133   7.091   2.490   2.740
  313TIP3    H125134   7.106   2.407   2.785
  313TIP3    H225135   7.026   2.535   2.794
  314TIP3   OH225136   6.858   2.489   2.907
  314TIP3    H125137   6.875   2.395   2.904
  314TIP3    H225138   6.788   2.503   2.843
  315TIP3   OH225139   6.777   2.950   3.082
  315TIP3    H125140   6.825   2.868   3.067
  315TIP3    H225141   6.769   2.956   3.177
  316TIP3   OH225142   5.458   0.243   2.958
  316TIP3    H125143   5.367   0.266   2.975
  316TIP3    H225144   5.509   0.313   2.999
  317TIP3   OH225145   5.838   0.302   3.074
  317TIP3    H125146   5.900   0.375   3.076
  317TIP3    H225147   5.752   0.343   3.075
  318TIP3   OH225148   5.976   0.541   3.068
  318TIP3    H125149   6.070   0.544   3.084
  318TIP3    H225150   5.943   0.623   3.104
  319TIP3   OH225151   6.929   1.362   2.915
  319TIP3    H125152   6.899   1.287   2.967
  319TIP3    H225153   6.926   1.331   2.825
  320TIP3   OH225154   0.300   6.740   2.867
  320TIP3    H125155   0.243   6.786   2.928
  320TIP3    H225156   0.389   6.762   2.896
  321TIP3   OH225157   7.297   0.310   2.907
  321TIP3    H125158   7.239   0.271   2.841
  321TIP3    H225159   7.383   0.313   2.866
  322TIP3   OH225160   7.034   0.475   2.803
  322TIP3    H125161   7.063   0.389   2.771
  322TIP3    H225162   7.070   0.481   2.892
  323TIP3   OH225163   1.230   0.998   7.571
  323TIP3    H125164   1.201   1.089   7.563
  323TIP3    H225165   1.166   0.948   7.522
  324TIP3   OH225166   1.145   0.983   8.051
  324TIP3    H125167   1.162   0.933   8.131
  324TIP3    H225168   1.093   0.923   7.997
  325TIP3   OH225169   0.380   0.996   8.244
  325TIP3    H125170   0.377   0.906   8.275
  325TIP3    H225171   0.414   1.046   8.319
  326TIP3   OH225172   1.461   1.297   7.865
  326TIP3    H125173   1.445   1.210   7.902
  326TIP3    H225174   1.486   1.351   7.940
  327TIP3   OH225175   0.565   1.323   7.875
  327TIP3    H125176   0.538   1.231   7.879
  327TIP3    H225177   0.659   1.321   7.896
  328TIP3   OH225178   0.164   0.751   7.532
  328TIP3    H125179   0.074   0.770   7.505
  328TIP3    H225180   0.167   0.656   7.539
  329TIP3   OH225181   0.032   0.829   7.763
  329TIP3    H125182  -0.046   0.815   7.710
  329TIP3    H225183   0.103   0.840   7.700
  330TIP3   OH225184   1.255   1.704   7.951
  330TIP3    H125185   1.270   1.658   7.868
  330TIP3    H225186   1.246   1.634   8.016
  331TIP3   OH225187   1.014   1.227   8.080
  331TIP3    H125188   1.066   1.150   8.055
  331TIP3    H225189   1.058   1.260   8.158
  332TIP3   OH225190   1.798   0.331   8.129
  332TIP3    H125191   1.799   0.398   8.198
  332TIP3    H225192   1.865   0.359   8.068
  333TIP3   OH225193   1.172   0.666   8.000
  333TIP3    H125194   1.199   0.577   8.023
  333TIP3    H225195   1.214   0.683   7.916
  334TIP3   OH225196   1.438   0.434   7.670
  334TIP3    H125197   1.479   0.408   7.753
  334TIP3    H225198   1.511   0.463   7.615
  335TIP3   OH225199   0.165   0.584   7.825
  335TIP3    H125200   0.120   0.667   7.808
  335TIP3    H225201   0.167   0.540   7.740
  336TIP3   OH225202   1.804   0.492   8.351
  336TIP3    H125203   1.733   0.556   8.353
  336TIP3    H225204   1.862   0.519   8.423
  337TIP3   OH225205   0.484   0.437   8.233
  337TIP3    H125206   0.481   0.519   8.184
  337TIP3    H225207   0.395   0.425   8.265
  338TIP3   OH225208   1.161   1.260   7.521
  338TIP3    H125209   1.096   1.330   7.512
  338TIP3    H225210   1.238   1.304   7.557
  339TIP3   OH225211   0.773   1.118   8.158
  339TIP3    H125212   0.720   1.190   8.193
  339TIP3    H225213   0.854   1.160   8.128
  340TIP3   OH225214   1.518   0.393   7.933
  340TIP3    H125215   1.431   0.409   7.970
  340TIP3    H225216   1.574   0.459   7.974
  341TIP3   OH225217   0.636   1.333   8.265
  341TIP3    H125218   0.623   1.426   8.246
  341TIP3    H225219   0.552   1.304   8.301
  342TIP3   OH225220  -0.004   1.322   7.251
  342TIP3    H125221   0.025   1.319   7.160
  342TIP3    H225222   0.061   1.378   7.295
  343TIP3   OH225223   1.507   1.459   8.089
  343TIP3    H125224   1.417   1.479   8.115
  343TIP3    H225225   1.543   1.543   8.061
  344TIP3   OH225226   1.559   0.183   8.202
  344TIP3    H125227   1.476   0.230   8.200
  344TIP3    H225228   1.619   0.238   8.152
  345TIP3   OH225229   0.834   0.170   7.935
  345TIP3    H125230   0.843   0.077   7.956
  345TIP3    H225231   0.764   0.201   7.992
  346TIP3   OH225232   1.292   1.611   7.675
  346TIP3    H125233   1.326   1.524   7.656
  346TIP3    H225234   1.366   1.670   7.662
  347TIP3   OH225235   1.401   1.366   7.609
  347TIP3    H125236   1.473   1.335   7.554
  347TIP3    H225237   1.425   1.339   7.697
  348TIP3   OH225238   1.654   1.215   8.435
  348TIP3    H125239   1.629   1.170   8.354
  348TIP3    H225240   1.674   1.304   8.407
  349TIP3   OH225241   1.049   0.874   7.402
  349TIP3    H125242   0.972   0.926   7.382
  349TIP3    H225243   1.106   0.886   7.325
  350TIP3   OH225244   1.237   0.912   7.208
  350TIP3    H125245   1.328   0.884   7.211
  350TIP3    H225246   1.220   0.928   7.115
  351TIP3   OH225247   1.750   0.910   8.262
  351TIP3    H125248   1.692   0.981   8.237
  351TIP3    H225249   1.811   0.902   8.188
  352TIP3   OH225250   1.492   0.991   7.497
  352TIP3    H125251   1.403   0.990   7.530
  352TIP3    H225252   1.541   0.936   7.558
  353TIP3   OH225253   1.367   0.771   8.453
  353TIP3    H125254   1.358   0.849   8.509
  353TIP3    H225255   1.307   0.787   8.380
  354TIP3   OH225256   0.514   0.917   7.622
  354TIP3    H125257   0.459   0.911   7.544
  354TIP3    H225258   0.579   0.984   7.600
  355TIP3   OH225259   0.846   1.375   7.911
  355TIP3    H125260   0.901   1.416   7.844
  355TIP3    H225261   0.908   1.328   7.967
  356TIP3   OH225262   0.677   0.907   8.007
  356TIP3    H125263   0.760   0.862   7.988
  356TIP3    H225264   0.702   0.982   8.060
  357TIP3   OH225265   1.248   1.514   8.177
  357TIP3    H125266   1.229   1.585   8.239
  357TIP3    H225267   1.208   1.436   8.216
  358TIP3   OH225268   0.737   1.359   8.524
  358TIP3    H125269   0.664   1.415   8.551
  358TIP3    H225270   0.718   1.336   8.433
  359TIP3   OH225271   1.508   0.853   7.261
  359TIP3    H125272   1.503   0.909   7.339
  359TIP3    H225273   1.598   0.861   7.231
  360TIP3   OH225274   0.451   0.997   8.522
  360TIP3    H125275   0.461   1.073   8.578
  360TIP3    H225276   0.359   0.972   8.530
  361TIP3   OH225277   1.013   1.613   7.700
  361TIP3    H125278   1.109   1.615   7.708
  361TIP3    H225279   0.989   1.704   7.685
  362TIP3   OH225280   0.513   1.526   8.548
  362TIP3    H125281   0.520   1.565   8.461
  362TIP3    H225282   0.421   1.503   8.557
  363TIP3   OH225283   1.751   0.053   7.196
  363TIP3    H125284   1.665   0.084   7.224
  363TIP3    H225285   1.745   0.047   7.101
  364TIP3   OH225286   0.355   0.889   7.390
  364TIP3    H125287   0.290   0.842   7.442
  364TIP3    H225288   0.311   0.908   7.307
  365TIP3   OH225289   0.152   1.213   8.471
  365TIP3    H125290   0.076   1.208   8.413
  365TIP3    H225291   0.157   1.127   8.511
  366TIP3   OH225292   0.141   1.356   8.062
  366TIP3    H125293   0.174   1.266   8.053
  366TIP3    H225294   0.199   1.397   8.126
  367TIP3   OH225295   1.894   1.549   8.649
  367TIP3    H125296   1.890   1.454   8.639
  367TIP3    H225297   1.805   1.575   8.675
  368TIP3   OH225298   0.955   1.531   8.483
  368TIP3    H125299   0.929   1.604   8.538
  368TIP3    H225300   0.891   1.462   8.502
  369TIP3   OH225301   1.005   1.883   7.603
  369TIP3    H125302   0.942   1.935   7.553
  369TIP3    H225303   1.055   1.947   7.654
  370TIP3   OH225304   1.169   1.733   7.442
  370TIP3    H125305   1.113   1.791   7.494
  370TIP3    H225306   1.222   1.687   7.507
  371TIP3   OH225307   1.534   0.663   8.663
  371TIP3    H125308   1.490   0.707   8.590
  371TIP3    H225309   1.541   0.572   8.636
  372TIP3   OH225310   0.409   1.278   8.405
  372TIP3    H125311   0.441   1.277   8.495
  372TIP3    H225312   0.318   1.250   8.412
  373TIP3   OH225313   0.604   0.229   8.098
  373TIP3    H125314   0.535   0.222   8.031
  373TIP3    H225315   0.574   0.300   8.155
  374TIP3   OH225316   1.061   0.140   8.303
  374TIP3    H125317   1.069   0.048   8.326
  374TIP3    H225318   0.968   0.159   8.313
  375TIP3   OH225319   1.285   0.482   8.444
  375TIP3    H125320   1.214   0.465   8.505
  375TIP3    H225321   1.297   0.577   8.447
  376TIP3   OH225322   0.526   0.693   8.105
  376TIP3    H125323   0.472   0.722   8.179
  376TIP3    H225324   0.556   0.774   8.064
  377TIP3   OH225325   1.164   0.658   7.528
  377TIP3    H125326   1.114   0.727   7.485
  377TIP3    H225327   1.239   0.644   7.471
  378TIP3   OH225328   1.022   0.732   8.675
  378TIP3    H125329   0.965   0.669   8.719
  378TIP3    H225330   1.109   0.713   8.709
  379TIP3   OH225331   1.306   0.658   7.762
  379TIP3    H125332   1.253   0.685   7.687
  379TIP3    H225333   1.347   0.576   7.735
  380TIP3   OH225334   0.410   0.740   8.348
  380TIP3    H125335   0.477   0.746   8.416
  380TIP3    H225336   0.334   0.703   8.393
  381TIP3   OH225337   1.174   0.786   8.250
  381TIP3    H125338   1.182   0.737   8.168
  381TIP3    H225339   1.115   0.734   8.303
  382TIP3   OH225340   1.260   0.412   8.027
  382TIP3    H125341   1.268   0.359   8.106
  382TIP3    H225342   1.196   0.365   7.973
  383TIP3   OH225343   1.606   1.889   8.701
  383TIP3    H125344   1.632   1.910   8.611
  383TIP3    H225345   1.676   1.925   8.755
  384TIP3   OH225346   0.450   1.218   8.680
  384TIP3    H125347   0.506   1.202   8.757
  384TIP3    H225348   0.361   1.219   8.715
  385TIP3   OH225349   0.910   0.750   7.997
  385TIP3    H125350   0.999   0.717   7.986
  385TIP3    H225351   0.875   0.700   8.071
  386TIP3   OH225352   0.775   0.636   8.210
  386TIP3    H125353   0.687   0.652   8.175
  386TIP3    H225354   0.797   0.716   8.257
  387TIP3   OH225355   0.833   1.045   7.368
  387TIP3    H125356   0.832   1.133   7.330
  387TIP3    H225357   0.790   1.056   7.453
  388TIP3   OH225358   1.600   1.125   8.184
  388TIP3    H125359   1.663   1.184   8.143
  388TIP3    H225360   1.534   1.110   8.116
  389TIP3   OH225361   1.362   0.368   7.296
  389TIP3    H125362   1.364   0.381   7.201
  389TIP3    H225363   1.368   0.457   7.333
  390TIP3   OH225364   1.032   1.210   8.559
  390TIP3    H125365   1.075   1.151   8.621
  390TIP3    H225366   0.960   1.249   8.609
  391TIP3   OH225367   1.401   0.627   7.387
  391TIP3    H125368   1.482   0.600   7.429
  391TIP3    H225369   1.427   0.700   7.331
  392TIP3   OH225370   0.482   1.051   7.869
  392TIP3    H125371   0.476   1.008   7.784
  392TIP3    H225372   0.543   0.996   7.919
  393TIP3   OH225373   0.180   0.950   8.556
  393TIP3    H125374   0.195   0.919   8.646
  393TIP3    H225375   0.110   0.893   8.523
  394TIP3   OH225376   0.836   0.936   8.672
  394TIP3    H125377   0.768   0.890   8.624
  394TIP3    H225378   0.914   0.881   8.663
  395TIP3   OH225379   1.233   1.486   8.544
  395TIP3    H125380   1.145   1.498   8.508
  395TIP3    H225381   1.219   1.481   8.639
  396TIP3   OH225382   1.808   0.654   7.317
  396TIP3    H125383   1.756   0.614   7.247
  396TIP3    H225384   1.814   0.746   7.292
  397TIP3   OH225385   1.880   1.281   8.595
  397TIP3    H125386   1.789   1.257   8.578
  397TIP3    H225387   1.926   1.258   8.514
  398TIP3   OH225388   1.670   1.486   7.330
  398TIP3    H125389   1.639   1.406   7.371
  398TIP3    H225390   1.741   1.458   7.273
  399TIP3   OH225391   1.414   1.052   7.990
  399TIP3    H125392   1.321   1.036   8.005
  399TIP3    H225393   1.447   0.970   7.953
  400TIP3   OH225394   0.597   1.369   7.598
  400TIP3    H125395   0.574   1.454   7.559
  400TIP3    H225396   0.571   1.377   7.690
  401TIP3   OH225397   0.223   0.940   7.153
  401TIP3    H125398   0.225   1.035   7.137
  401TIP3    H225399   0.139   0.912   7.117
  402TIP3   OH225400   0.703   1.120   7.599
  402TIP3    H125401   0.661   1.205   7.585
  402TIP3    H225402   0.758   1.132   7.676
  403TIP3   OH225403   0.844   1.655   8.257
  403TIP3    H125404   0.898   1.731   8.239
  403TIP3    H225405   0.892   1.606   8.324
  404TIP3   OH225406   0.535   1.614   7.486
  404TIP3    H125407   0.480   1.638   7.411
  404TIP3    H225408   0.551   1.697   7.531
  405TIP3   OH225409   1.151   1.281   8.316
  405TIP3    H125410   1.093   1.268   8.391
  405TIP3    H225411   1.237   1.254   8.346
  406TIP3   OH225412   1.466   1.607   8.458
  406TIP3    H125413   1.378   1.577   8.480
  406TIP3    H225414   1.452   1.679   8.396
  407TIP3   OH225415   0.190   0.628   8.468
  407TIP3    H125416   0.110   0.676   8.446
  407TIP3    H225417   0.188   0.551   8.411
  408TIP3   OH225418   1.590   1.240   7.433
  408TIP3    H125419   1.543   1.159   7.455
  408TIP3    H225420   1.681   1.213   7.424
  409TIP3   OH225421   0.317   1.481   8.232
  409TIP3    H125422   0.344   1.420   8.301
  409TIP3    H225423   0.399   1.523   8.204
  410TIP3   OH225424   0.824   1.310   7.295
  410TIP3    H125425   0.883   1.327   7.369
  410TIP3    H225426   0.783   1.395   7.277
  411TIP3   OH225427   1.297   0.277   8.259
  411TIP3    H125428   1.294   0.347   8.325
  411TIP3    H225429   1.220   0.224   8.277
  412TIP3   OH225430   1.256   0.270   7.533
  412TIP3    H125431   1.283   0.286   7.442
  412TIP3    H225432   1.312   0.329   7.585
  413TIP3   OH225433   0.978   1.463   7.474
  413TIP3    H125434   0.914   1.513   7.423
  413TIP3    H225435   0.986   1.511   7.556
  414TIP3   OH225436   1.001   0.475   7.657
  414TIP3    H125437   1.061   0.537   7.615
  414TIP3    H225438   1.054   0.433   7.725
  415TIP3   OH225439   1.019   0.640   8.418
  415TIP3    H125440   1.015   0.682   8.504
  415TIP3    H225441   1.015   0.546   8.437
  416TIP3   OH225442   0.976   0.247   7.507
  416TIP3    H125443   0.964   0.333   7.546
  416TIP3    H225444   1.071   0.237   7.499
  417TIP3   OH225445   0.765   1.579   7.337
  417TIP3    H125446   0.772   1.668   7.302
  417TIP3    H225447   0.686   1.581   7.392
  418TIP3   OH225448   1.529   0.417   8.550
  418TIP3    H125449   1.445   0.426   8.505
  418TIP3    H225450   1.566   0.336   8.516
  419TIP3   OH225451   1.497   0.801   7.900
  419TIP3    H125452   1.426   0.751   7.859
  419TIP3    H225453   1.541   0.738   7.958
  420TIP3   OH225454   1.615   1.706   8.039
  420TIP3    H125455   1.598   1.769   7.969
  420TIP3    H225456   1.709   1.717   8.059
  421TIP3   OH225457   0.393   0.208   7.926
  421TIP3    H125458   0.396   0.200   7.831
  421TIP3    H225459   0.351   0.127   7.956
  422TIP3   OH225460   0.192   1.485   7.366
  422TIP3    H125461   0.237   1.469   7.449
  422TIP3    H225462   0.256   1.532   7.313
  423TIP3   OH225463   0.040   1.765   8.708
  423TIP3    H125464   0.119   1.740   8.755
  423TIP3    H225465  -0.004   1.682   8.689
  424TIP3   OH225466   0.522   1.602   8.814
  424TIP3    H125467   0.603   1.564   8.849
  424TIP3    H225468   0.524   1.580   8.721
  425TIP3   OH225469   1.212   1.468   8.821
  425TIP3    H125470   1.210   1.384   8.866
  425TIP3    H225471   1.296   1.508   8.847
  426TIP3   OH225472   1.533   1.554   7.095
  426TIP3    H125473   1.551   1.551   7.189
  426TIP3    H225474   1.617   1.534   7.054
  427TIP3   OH225475   0.211   1.159   8.802
  427TIP3    H125476   0.243   1.070   8.815
  427TIP3    H225477   0.120   1.147   8.773
  428TIP3   OH225478   0.793   1.200   8.740
  428TIP3    H125479   0.764   1.242   8.659
  428TIP3    H225480   0.815   1.110   8.714
  429TIP3   OH225481   1.372   1.244   8.491
  429TIP3    H125482   1.466   1.260   8.481
  429TIP3    H225483   1.335   1.328   8.515
  430TIP3   OH225484   0.269   0.885   8.811
  430TIP3    H125485   0.337   0.817   8.816
  430TIP3    H225486   0.218   0.874   8.892
  431TIP3   OH225487   0.651   0.818   8.497
  431TIP3    H125488   0.586   0.888   8.506
  431TIP3    H225489   0.709   0.848   8.426
  432TIP3   OH225490   1.147   1.043   8.754
  432TIP3    H125491   1.226   1.016   8.707
  432TIP3    H225492   1.129   0.969   8.813
  433TIP3   OH225493   1.729   1.026   6.977
  433TIP3    H125494   1.639   1.039   6.946
  433TIP3    H225495   1.773   1.109   6.958
  434TIP3   OH225496   0.605   0.574   8.607
  434TIP3    H125497   0.647   0.509   8.550
  434TIP3    H225498   0.632   0.658   8.572
  435TIP3   OH225499   0.713   0.430   8.385
  435TIP3    H125500   0.761   0.496   8.335
  435TIP3    H225501   0.625   0.430   8.346
  436TIP3   OH225502   0.831   0.892   8.306
  436TIP3    H125503   0.923   0.902   8.329
  436TIP3    H225504   0.810   0.972   8.257
  437TIP3   OH225505   1.270   0.650   8.786
  437TIP3    H125506   1.267   0.556   8.803
  437TIP3    H225507   1.362   0.667   8.762
  438TIP3   OH225508   1.387   1.000   8.618
  438TIP3    H125509   1.370   1.083   8.574
  438TIP3    H225510   1.482   0.988   8.613
  439TIP3   OH225511   0.453   0.667   8.818
  439TIP3    H125512   0.400   0.590   8.840
  439TIP3    H225513   0.504   0.640   8.742
  440TIP3   OH225514   0.767   0.165   8.330
  440TIP3    H125515   0.763   0.252   8.369
  440TIP3    H225516   0.719   0.173   8.248
  441TIP3   OH225517   0.875   0.525   8.781
  441TIP3    H125518   0.904   0.493   8.867
  441TIP3    H225519   0.782   0.503   8.778
  442TIP3   OH225520   1.085   0.430   8.625
  442TIP3    H125521   1.003   0.453   8.669
  442TIP3    H225522   1.142   0.398   8.695
  443TIP3   OH225523   1.258   0.376   8.837
  443TIP3    H125524   1.318   0.302   8.827
  443TIP3    H225525   1.241   0.381   8.931
  444TIP3   OH225526   0.340   0.404   8.810
  444TIP3    H125527   0.304   0.345   8.744
  444TIP3    H225528   0.339   0.354   8.891
  445TIP3   OH225529   0.714   0.078   8.615
  445TIP3    H125530   0.715  -0.018   8.619
  445TIP3    H225531   0.734   0.099   8.524
  446TIP3   OH225532   0.812   0.186   8.849
  446TIP3    H125533   0.795   0.144   8.765
  446TIP3    H225534   0.751   0.259   8.852
  447TIP3   OH225535   0.784   1.848   7.262
  447TIP3    H125536   0.802   1.927   7.313
  447TIP3    H225537   0.706   1.870   7.210
  448TIP3   OH225538   0.211   1.528   7.857
  448TIP3    H125539   0.181   1.456   7.914
  448TIP3    H225540   0.300   1.546   7.887
  449TIP3   OH225541   1.875   1.745   8.125
  449TIP3    H125542   1.876   1.721   8.218
  449TIP3    H225543   1.960   1.786   8.110
  450TIP3   OH225544   1.829   1.670   8.394
  450TIP3    H125545   1.779   1.594   8.362
  450TIP3    H225546   1.875   1.637   8.471
  451TIP3   OH225547   1.687   1.294   8.854
  451TIP3    H125548   1.606   1.292   8.905
  451TIP3    H225549   1.738   1.365   8.893
  452TIP3   OH225550   1.839   1.128   7.404
  452TIP3    H125551   1.920   1.177   7.388
  452TIP3    H225552   1.861   1.069   7.476
  453TIP3   OH225553   1.876   0.935   7.597
  453TIP3    H125554   1.791   0.904   7.627
  453TIP3    H225555   1.926   0.950   7.677
  454TIP3   OH225556   1.844   1.252   8.124
  454TIP3    H125557   1.876   1.169   8.091
  454TIP3    H225558   1.906   1.317   8.092
  455TIP3   OH225559   1.658   1.465   8.326
  455TIP3    H125560   1.587   1.513   8.368
  455TIP3    H225561   1.628   1.450   8.237
  456TIP3   OH225562   1.791   0.922   7.227
  456TIP3    H125563   1.781   0.957   7.138
  456TIP3    H225564   1.793   0.999   7.284
  457TIP3   OH225565   1.655   0.562   7.106
  457TIP3    H125566   1.677   0.608   7.026
  457TIP3    H225567   1.571   0.520   7.088
  458TIP3   OH225568   1.634   0.813   7.659
  458TIP3    H125569   1.637   0.719   7.639
  458TIP3    H225570   1.594   0.817   7.746
  459TIP3   OH225571   0.249   1.098   8.028
  459TIP3    H125572   0.317   1.091   7.961
  459TIP3    H225573   0.292   1.065   8.108
  460TIP3   OH225574   1.658   0.978   8.592
  460TIP3    H125575   1.719   0.908   8.570
  460TIP3    H225576   1.679   1.049   8.531
  461TIP3   OH225577   1.811   0.737   8.595
  461TIP3    H125578   1.730   0.703   8.633
  461TIP3    H225579   1.874   0.665   8.604
  462TIP3   OH225580   1.638   0.533   7.500
  462TIP3    H125581   1.664   0.442   7.485
  462TIP3    H225582   1.699   0.585   7.448
  463TIP3   OH225583   1.631   0.615   8.060
  463TIP3    H125584   1.725   0.631   8.056
  463TIP3    H225585   1.608   0.626   8.152
  464TIP3   OH225586   1.605   0.685   8.327
  464TIP3    H125587   1.524   0.717   8.368
  464TIP3    H225588   1.657   0.764   8.312
  465TIP3   OH225589   0.141   0.575   8.736
  465TIP3    H125590   0.213   0.517   8.760
  465TIP3    H225591   0.163   0.606   8.648
  466TIP3   OH225592   1.963   0.142   8.786
  466TIP3    H125593   2.047   0.131   8.741
  466TIP3    H225594   1.915   0.204   8.731
  467TIP3   OH225595   1.702   0.267   7.453
  467TIP3    H125596   1.716   0.225   7.538
  467TIP3    H225597   1.638   0.212   7.409
  468TIP3   OH225598   0.231   0.410   8.030
  468TIP3    H125599   0.278   0.337   7.991
  468TIP3    H225600   0.205   0.464   7.955
  469TIP3   OH225601  -0.002   0.651   8.046
  469TIP3    H125602   0.076   0.621   8.000
  469TIP3    H225603   0.006   0.746   8.049
  470TIP3   OH225604   1.797   0.315   8.653
  470TIP3    H125605   1.731   0.344   8.715
  470TIP3    H225606   1.747   0.275   8.582
  471TIP3   OH225607   1.509   1.766   7.624
  471TIP3    H125608   1.591   1.754   7.578
  471TIP3    H225609   1.533   1.810   7.706
  472TIP3   OH225610   0.211   0.408   8.302
  472TIP3    H125611   0.148   0.343   8.332
  472TIP3    H225612   0.201   0.410   8.207
  473TIP3   OH225613   0.246   1.454   8.591
  473TIP3    H125614   0.204   1.378   8.550
  473TIP3    H225615   0.214   1.454   8.681
  474TIP3   OH225616   0.568   1.617   8.285
  474TIP3    H125617   0.523   1.699   8.266
  474TIP3    H225618   0.661   1.639   8.278
  475TIP3   OH225619   0.893   1.748   8.644
  475TIP3    H125620   0.911   1.706   8.728
  475TIP3    H225621   0.974   1.793   8.622
  476TIP3   OH225622   1.140   1.849   8.585
  476TIP3    H125623   1.181   1.801   8.513
  476TIP3    H225624   1.210   1.861   8.649
  477TIP3   OH225625   1.650   0.181   8.460
  477TIP3    H125626   1.617   0.185   8.370
  477TIP3    H225627   1.639   0.089   8.485
  478TIP3   OH225628   0.355   1.819   8.254
  478TIP3    H125629   0.295   1.891   8.274
  478TIP3    H225630   0.306   1.740   8.276
  479TIP3   OH225631   0.581   1.952   8.165
  479TIP3    H125632   0.502   1.908   8.195
  479TIP3    H225633   0.560   2.046   8.170
  480TIP3   OH225634   1.006   1.873   8.206
  480TIP3    H125635   0.988   1.913   8.121
  480TIP3    H225636   1.007   1.947   8.267
  481TIP3   OH225637   1.215   1.745   8.332
  481TIP3    H125638   1.146   1.787   8.281
  481TIP3    H225639   1.296   1.779   8.294
  482TIP3   OH225640   1.470   1.802   8.253
  482TIP3    H125641   1.499   1.893   8.248
  482TIP3    H225642   1.511   1.759   8.178
  483TIP3   OH225643   0.467   1.566   7.952
  483TIP3    H125644   0.488   1.477   7.924
  483TIP3    H225645   0.551   1.604   7.976
  484TIP3   OH225646   0.734   1.614   8.007
  484TIP3    H125647   0.771   1.534   7.969
  484TIP3    H225648   0.780   1.625   8.090
  485TIP3   OH225649   1.079   0.288   7.864
  485TIP3    H125650   0.996   0.248   7.891
  485TIP3    H225651   1.130   0.215   7.828
  486TIP3   OH225652   1.528   0.141   7.816
  486TIP3    H125653   1.611   0.150   7.770
  486TIP3    H225654   1.524   0.219   7.872
  487TIP3   OH225655   1.777   0.192   7.710
  487TIP3    H125656   1.848   0.141   7.748
  487TIP3    H225657   1.806   0.283   7.717
  488TIP3   OH225658   0.385   0.141   7.665
  488TIP3    H125659   0.341   0.182   7.590
  488TIP3    H225660   0.352   0.051   7.665
  489TIP3   OH225661   0.199   0.083   7.294
  489TIP3    H125662   0.145   0.136   7.234
  489TIP3    H225663   0.222   0.144   7.365
  490TIP3   OH225664   0.859   0.062   7.676
  490TIP3    H125665   0.898   0.123   7.613
  490TIP3    H225666   0.849   0.113   7.756
  491TIP3   OH225667   1.257   0.103   7.755
  491TIP3    H125668   1.250   0.144   7.669
  491TIP3    H225669   1.350   0.113   7.778
  492TIP3   OH225670   1.504   0.129   7.310
  492TIP3    H125671   1.456   0.210   7.298
  492TIP3    H225672   1.438   0.060   7.307
  493TIP3   OH225673   0.402   1.613   7.228
  493TIP3    H125674   0.384   1.551   7.157
  493TIP3    H225675   0.436   1.690   7.184
  494TIP3   OH225676   0.833   0.140   7.286
  494TIP3    H125677   0.879   0.181   7.360
  494TIP3    H225678   0.761   0.199   7.266
  495TIP3   OH225679   1.025   1.723   7.208
  495TIP3    H125680   1.070   1.726   7.292
  495TIP3    H225681   0.940   1.763   7.225
  496TIP3   OH225682   1.741   1.726   7.454
  496TIP3    H125683   1.715   1.641   7.418
  496TIP3    H225684   1.711   1.789   7.388
  497TIP3   OH225685   0.213   0.210   8.655
  497TIP3    H125686   0.195   0.195   8.562
  497TIP3    H225687   0.292   0.159   8.673
  498TIP3   OH225688   0.456   0.095   8.725
  498TIP3    H125689   0.545   0.112   8.693
  498TIP3    H225690   0.441   0.003   8.705
  499TIP3   OH225691   1.424   0.154   8.857
  499TIP3    H125692   1.381   0.074   8.827
  499TIP3    H225693   1.480   0.126   8.929
  500TIP3   OH225694   1.628   1.616   8.683
  500TIP3    H125695   1.575   1.600   8.605
  500TIP3    H225696   1.618   1.710   8.699
  501TIP3   OH225697   3.080   1.056   7.625
  501TIP3    H125698   3.054   1.139   7.664
  501TIP3    H225699   3.009   1.034   7.566
  502TIP3   OH225700   2.988   0.948   8.064
  502TIP3    H125701   3.020   0.899   8.140
  502TIP3    H225702   2.934   0.885   8.016
  503TIP3   OH225703   2.141   0.898   8.217
  503TIP3    H125704   2.129   0.804   8.232
  503TIP3    H225705   2.186   0.929   8.296
  504TIP3   OH225706   2.321   1.313   7.979
  504TIP3    H125707   2.290   1.231   7.939
  504TIP3    H225708   2.415   1.299   7.992
  505TIP3   OH225709   1.953   0.665   7.567
  505TIP3    H125710   1.943   0.759   7.579
  505TIP3    H225711   1.916   0.648   7.480
  506TIP3   OH225712   2.032   0.948   7.821
  506TIP3    H125713   2.059   0.861   7.852
  506TIP3    H225714   2.111   1.001   7.827
  507TIP3   OH225715   2.837   1.181   8.078
  507TIP3    H125716   2.884   1.100   8.060
  507TIP3    H225717   2.902   1.237   8.120
  508TIP3   OH225718   3.681   0.360   8.134
  508TIP3    H125719   3.697   0.435   8.190
  508TIP3    H225720   3.735   0.375   8.057
  509TIP3   OH225721   3.128   0.599   8.034
  509TIP3    H125722   3.160   0.515   8.067
  509TIP3    H225723   3.072   0.576   7.960
  510TIP3   OH225724   2.500   0.403   7.847
  510TIP3    H125725   2.514   0.493   7.819
  510TIP3    H225726   2.444   0.365   7.780
  511TIP3   OH225727   3.232   0.497   7.692
  511TIP3    H125728   3.280   0.469   7.770
  511TIP3    H225729   3.299   0.532   7.634
  512TIP3   OH225730   2.110   0.704   7.918
  512TIP3    H125731   2.170   0.665   7.981
  512TIP3    H225732   2.138   0.669   7.833
  513TIP3   OH225733   2.613   0.856   7.815
  513TIP3    H125734   2.695   0.827   7.854
  513TIP3    H225735   2.573   0.776   7.781
  514TIP3   OH225736   3.741   0.553   8.325
  514TIP3    H125737   3.659   0.599   8.341
  514TIP3    H225738   3.778   0.539   8.413
  515TIP3   OH225739   2.331   0.325   8.219
  515TIP3    H125740   2.304   0.386   8.150
  515TIP3    H225741   2.256   0.321   8.278
  516TIP3   OH225742   2.615   1.086   8.221
  516TIP3    H125743   2.569   1.166   8.247
  516TIP3    H225744   2.696   1.118   8.181
  517TIP3   OH225745   3.396   0.438   7.899
  517TIP3    H125746   3.418   0.349   7.927
  517TIP3    H225747   3.443   0.495   7.960
  518TIP3   OH225748   2.289   0.503   8.013
  518TIP3    H125749   2.337   0.573   8.056
  518TIP3    H225750   2.350   0.467   7.949
  519TIP3   OH225751   2.488   1.326   8.284
  519TIP3    H125752   2.498   1.404   8.229
  519TIP3    H225753   2.396   1.325   8.309
  520TIP3   OH225754   2.077   1.248   7.326
  520TIP3    H125755   2.041   1.281   7.244
  520TIP3    H225756   2.106   1.327   7.372
  521TIP3   OH225757   3.433   0.292   8.251
  521TIP3    H125758   3.352   0.306   8.202
  521TIP3    H225759   3.503   0.311   8.188
  522TIP3   OH225760   2.778   0.090   7.924
  522TIP3    H125761   2.762   0.003   7.959
  522TIP3    H225762   2.708   0.144   7.960
  523TIP3   OH225763   3.525   1.255   8.396
  523TIP3    H125764   3.500   1.199   8.322
  523TIP3    H225765   3.526   1.344   8.360
  524TIP3   OH225766   2.967   0.922   7.369
  524TIP3    H125767   2.935   1.012   7.373
  524TIP3    H225768   3.057   0.930   7.336
  525TIP3   OH225769   2.815   0.802   7.171
  525TIP3    H125770   2.858   0.848   7.243
  525TIP3    H225771   2.874   0.730   7.149
  526TIP3   OH225772   3.655   0.943   8.284
  526TIP3    H125773   3.584   0.999   8.252
  526TIP3    H225774   3.721   0.945   8.214
  527TIP3   OH225775   3.330   0.993   7.529
  527TIP3    H125776   3.248   1.011   7.574
  527TIP3    H225777   3.377   0.933   7.587
  528TIP3   OH225778   3.278   0.788   8.464
  528TIP3    H125779   3.263   0.867   8.515
  528TIP3    H225780   3.216   0.793   8.392
  529TIP3   OH225781   2.465   1.039   7.669
  529TIP3    H125782   2.416   0.991   7.602
  529TIP3    H225783   2.521   0.973   7.710
  530TIP3   OH225784   2.612   1.300   7.952
  530TIP3    H125785   2.632   1.323   7.861
  530TIP3    H225786   2.691   1.255   7.983
  531TIP3   OH225787   2.466   0.956   8.029
  531TIP3    H125788   2.529   0.935   7.959
  531TIP3    H225789   2.518   1.003   8.094
  532TIP3   OH225790   3.233   1.488   8.204
  532TIP3    H125791   3.182   1.559   8.243
  532TIP3    H225792   3.172   1.414   8.202
  533TIP3   OH225793   2.622   1.348   8.526
  533TIP3    H125794   2.561   1.408   8.568
  533TIP3    H225795   2.582   1.330   8.441
  534TIP3   OH225796   3.241   0.890   7.289
  534TIP3    H125797   3.282   0.932   7.365
  534TIP3    H225798   3.302   0.904   7.217
  535TIP3   OH225799   2.222   0.966   8.484
  535TIP3    H125800   2.248   1.044   8.533
  535TIP3    H225801   2.127   0.961   8.494
  536TIP3   OH225802   3.030   1.456   7.663
  536TIP3    H125803   3.070   1.543   7.656
  536TIP3    H225804   2.941   1.468   7.629
  537TIP3   OH225805   2.443   1.535   8.626
  537TIP3    H125806   2.469   1.583   8.548
  537TIP3    H225807   2.348   1.532   8.622
  538TIP3   OH225808   3.577   0.209   7.287
  538TIP3    H125809   3.530   0.269   7.229
  538TIP3    H225810   3.561   0.243   7.375
  539TIP3   OH225811   2.320   0.914   7.473
  539TIP3    H125812   2.237   0.929   7.429
  539TIP3    H225813   2.360   0.841   7.425
  540TIP3   OH225814   1.990   1.200   8.359
  540TIP3    H125815   1.936   1.217   8.281
  540TIP3    H225816   1.981   1.106   8.374
  541TIP3   OH225817   2.066   1.412   8.059
  541TIP3    H125818   2.149   1.371   8.033
  541TIP3    H225819   2.088   1.469   8.132
  542TIP3   OH225820   3.760   1.503   8.611
  542TIP3    H125821   3.752   1.408   8.601
  542TIP3    H225822   3.682   1.528   8.659
  543TIP3   OH225823   2.863   1.476   8.504
  543TIP3    H125824   2.844   1.558   8.549
  543TIP3    H225825   2.781   1.427   8.507
  544TIP3   OH225826   2.212   1.631   7.680
  544TIP3    H125827   2.281   1.615   7.744
  544TIP3    H225828   2.131   1.614   7.726
  545TIP3   OH225829   3.445   0.654   8.649
  545TIP3    H125830   3.384   0.705   8.595
  545TIP3    H225831   3.449   0.568   8.605
  546TIP3   OH225832   2.233   1.328   8.388
  546TIP3    H125833   2.252   1.296   8.476
  546TIP3    H225834   2.151   1.284   8.364
  547TIP3   OH225835   2.525   0.210   8.049
  547TIP3    H125836   2.524   0.275   7.979
  547TIP3    H225837   2.462   0.243   8.114
  548TIP3   OH225838   2.863   0.133   8.465
  548TIP3    H125839   2.910   0.052   8.448
  548TIP3    H225840   2.791   0.133   8.401
  549TIP3   OH225841   3.176   0.474   8.537
  549TIP3    H125842   3.138   0.454   8.622
  549TIP3    H225843   3.145   0.563   8.517
  550TIP3   OH225844   3.437   0.914   7.082
  550TIP3    H125845   3.384   0.897   7.004
  550TIP3    H225846   3.512   0.965   7.050
  551TIP3   OH225847   2.939   0.336   7.106
  551TIP3    H125848   2.878   0.305   7.173
  551TIP3    H225849   2.957   0.258   7.053
  552TIP3   OH225850   2.416   0.708   8.133
  552TIP3    H125851   2.387   0.719   8.224
  552TIP3    H225852   2.420   0.797   8.098
  553TIP3   OH225853   2.474   0.642   7.709
  553TIP3    H125854   2.379   0.654   7.711
  553TIP3    H225855   2.491   0.603   7.623
  554TIP3   OH225856   2.959   0.683   7.513
  554TIP3    H125857   2.941   0.771   7.480
  554TIP3    H225858   3.043   0.659   7.473
  555TIP3   OH225859   2.972   0.803   8.631
  555TIP3    H125860   2.959   0.743   8.558
  555TIP3    H225861   3.025   0.755   8.694
  556TIP3   OH225862   2.985   0.583   7.779
  556TIP3    H125863   2.961   0.634   7.701
  556TIP3    H225864   3.071   0.547   7.758
  557TIP3   OH225865   2.116   0.624   8.276
  557TIP3    H125866   2.192   0.648   8.328
  557TIP3    H225867   2.102   0.531   8.295
  558TIP3   OH225868   1.879   0.443   7.737
  558TIP3    H125869   1.928   0.449   7.819
  558TIP3    H225870   1.906   0.521   7.687
  559TIP3   OH225871   2.028   0.465   7.320
  559TIP3    H125872   2.097   0.527   7.297
  559TIP3    H225873   1.947   0.517   7.317
  560TIP3   OH225874   3.092   0.767   8.254
  560TIP3    H125875   3.110   0.709   8.180
  560TIP3    H225876   3.029   0.719   8.307
  561TIP3   OH225877   2.782   0.392   7.726
  561TIP3    H125878   2.710   0.385   7.790
  561TIP3    H225879   2.849   0.443   7.771
  562TIP3   OH225880   2.198   0.598   7.684
  562TIP3    H125881   2.124   0.614   7.627
  562TIP3    H225882   2.226   0.508   7.663
  563TIP3   OH225883   2.487   0.506   7.464
  563TIP3    H125884   2.581   0.496   7.451
  563TIP3    H225885   2.461   0.575   7.404
  564TIP3   OH225886   3.176   0.344   8.139
  564TIP3    H125887   3.116   0.342   8.214
  564TIP3    H225888   3.126   0.306   8.068
  565TIP3   OH225889   2.422   0.716   7.305
  565TIP3    H125890   2.338   0.705   7.262
  565TIP3    H225891   2.469   0.779   7.250
  566TIP3   OH225892   3.504   1.876   8.721
  566TIP3    H125893   3.524   1.889   8.628
  566TIP3    H225894   3.577   1.917   8.767
  567TIP3   OH225895   2.247   1.216   8.649
  567TIP3    H125896   2.325   1.199   8.702
  567TIP3    H225897   2.173   1.199   8.707
  568TIP3   OH225898   2.829   0.747   7.951
  568TIP3    H125899   2.882   0.682   7.904
  568TIP3    H225900   2.788   0.697   8.021
  569TIP3   OH225901   2.330   0.355   7.638
  569TIP3    H125902   2.281   0.279   7.607
  569TIP3    H225903   2.377   0.386   7.560
  570TIP3   OH225904   2.681   0.624   8.150
  570TIP3    H125905   2.590   0.649   8.134
  570TIP3    H225906   2.686   0.609   8.244
  571TIP3   OH225907   2.866   1.172   7.412
  571TIP3    H125908   2.790   1.201   7.464
  571TIP3    H225909   2.895   1.251   7.366
  572TIP3   OH225910   3.473   1.111   8.169
  572TIP3    H125911   3.530   1.159   8.110
  572TIP3    H225912   3.398   1.086   8.115
  573TIP3   OH225913   3.007   0.602   7.136
  573TIP3    H125914   2.982   0.511   7.121
  573TIP3    H225915   3.066   0.598   7.211
  574TIP3   OH225916   2.986   1.216   8.480
  574TIP3    H125917   3.003   1.171   8.563
  574TIP3    H225918   2.942   1.297   8.505
  575TIP3   OH225919   3.191   0.626   7.362
  575TIP3    H125920   3.278   0.601   7.392
  575TIP3    H225921   3.202   0.715   7.328
  576TIP3   OH225922   2.275   1.066   7.866
  576TIP3    H125923   2.333   1.069   7.790
  576TIP3    H225924   2.325   1.021   7.933
  577TIP3   OH225925   1.941   0.941   8.460
  577TIP3    H125926   1.921   0.872   8.523
  577TIP3    H225927   1.884   0.922   8.385
  578TIP3   OH225928   2.738   0.940   8.687
  578TIP3    H125929   2.681   0.937   8.611
  578TIP3    H225930   2.816   0.891   8.661
  579TIP3   OH225931   3.139   1.495   8.556
  579TIP3    H125932   3.051   1.490   8.518
  579TIP3    H225933   3.125   1.483   8.650
  580TIP3   OH225934   3.653   0.582   7.330
  580TIP3    H125935   3.580   0.583   7.267
  580TIP3    H225936   3.700   0.663   7.312
  581TIP3   OH225937   3.751   1.234   8.551
  581TIP3    H125938   3.664   1.234   8.510
  581TIP3    H225939   3.810   1.205   8.481
  582TIP3   OH225940   3.635   1.384   7.307
  582TIP3    H125941   3.576   1.322   7.350
  582TIP3    H225942   3.593   1.470   7.319
  583TIP3   OH225943   3.259   1.019   8.021
  583TIP3    H125944   3.163   1.011   8.022
  583TIP3    H225945   3.289   0.939   7.978
  584TIP3   OH225946   2.569   1.456   7.701
  584TIP3    H125947   2.592   1.535   7.652
  584TIP3    H225948   2.499   1.484   7.760
  585TIP3   OH225949   2.092   0.966   7.300
  585TIP3    H125950   2.102   1.061   7.305
  585TIP3    H225951   2.000   0.952   7.281
  586TIP3   OH225952   2.620   1.228   7.544
  586TIP3    H125953   2.608   1.312   7.589
  586TIP3    H225954   2.569   1.166   7.597
  587TIP3   OH225955   2.771   1.601   8.261
  587TIP3    H125956   2.820   1.680   8.239
  587TIP3    H225957   2.828   1.554   8.323
  588TIP3   OH225958   2.586   1.719   7.602
  588TIP3    H125959   2.506   1.772   7.611
  588TIP3    H225960   2.654   1.770   7.645
  589TIP3   OH225961   3.069   1.259   8.222
  589TIP3    H125962   3.041   1.242   8.312
  589TIP3    H225963   3.127   1.186   8.201
  590TIP3   OH225964   3.356   1.648   8.489
  590TIP3    H125965   3.275   1.600   8.506
  590TIP3    H225966   3.332   1.715   8.426
  591TIP3   OH225967   3.648   1.840   7.312
  591TIP3    H125968   3.555   1.860   7.309
  591TIP3    H225969   3.686   1.911   7.363
  592TIP3   OH225970   2.101   0.360   8.371
  592TIP3    H125971   2.043   0.285   8.358
  592TIP3    H225972   2.071   0.399   8.453
  593TIP3   OH225973   3.500   1.196   7.452
  593TIP3    H125974   3.429   1.136   7.474
  593TIP3    H225975   3.577   1.139   7.447
  594TIP3   OH225976   2.170   1.577   8.264
  594TIP3    H125977   2.201   1.504   8.318
  594TIP3    H225978   2.184   1.654   8.318
  595TIP3   OH225979   2.677   1.450   7.297
  595TIP3    H125980   2.770   1.442   7.275
  595TIP3    H225981   2.663   1.545   7.302
  596TIP3   OH225982   3.008   0.348   8.361
  596TIP3    H125983   3.075   0.370   8.426
  596TIP3    H225984   2.957   0.277   8.401
  597TIP3   OH225985   3.103   0.379   7.478
  597TIP3    H125986   3.115   0.452   7.417
  597TIP3    H225987   3.141   0.410   7.560
  598TIP3   OH225988   2.761   0.489   7.468
  598TIP3    H125989   2.823   0.562   7.467
  598TIP3    H225990   2.765   0.454   7.557
  599TIP3   OH225991   2.936   0.613   8.423
  599TIP3    H125992   2.841   0.619   8.438
  599TIP3    H225993   2.950   0.524   8.391
  600TIP3   OH225994   2.899   0.211   7.553
  600TIP3    H125995   2.856   0.266   7.619
  600TIP3    H225996   2.973   0.263   7.524
  601TIP3   OH225997   2.638   1.717   7.325
  601TIP3    H125998   2.702   1.785   7.304
  601TIP3    H225999   2.628   1.722   7.420
  602TIP3   OH226000   3.439   0.427   8.494
  602TIP3    H126001   3.344   0.434   8.507
  602TIP3    H226002   3.448   0.387   8.407
  603TIP3   OH226003   3.326   0.764   7.924
  603TIP3    H126004   3.249   0.715   7.952
  603TIP3    H226005   3.399   0.722   7.970
  604TIP3   OH226006   2.162   0.703   7.224
  604TIP3    H126007   2.139   0.795   7.242
  604TIP3    H226008   2.104   0.678   7.152
  605TIP3   OH226009   3.499   1.781   8.032
  605TIP3    H126010   3.504   1.849   7.966
  605TIP3    H226011   3.589   1.767   8.060
  606TIP3   OH226012   2.143   0.174   7.873
  606TIP3    H126013   2.157   0.179   7.778
  606TIP3    H226014   2.165   0.083   7.896
  607TIP3   OH226015   2.141   1.497   7.438
  607TIP3    H126016   2.098   1.573   7.400
  607TIP3    H226017   2.182   1.530   7.518
  608TIP3   OH226018   2.037   1.780   8.741
  608TIP3    H126019   2.100   1.749   8.806
  608TIP3    H226020   1.997   1.700   8.706
  609TIP3   OH226021   2.467   1.601   8.890
  609TIP3    H126022   2.544   1.552   8.920
  609TIP3    H226023   2.460   1.580   8.797
  610TIP3   OH226024   3.108   1.457   8.826
  610TIP3    H126025   3.108   1.368   8.862
  610TIP3    H226026   3.190   1.495   8.857
  611TIP3   OH226027   2.025   1.183   8.809
  611TIP3    H126028   2.033   1.088   8.804
  611TIP3    H226029   1.959   1.205   8.743
  612TIP3   OH226030   2.694   1.206   8.749
  612TIP3    H126031   2.681   1.245   8.662
  612TIP3    H226032   2.726   1.117   8.730
  613TIP3   OH226033   3.304   1.265   8.567
  613TIP3    H126034   3.380   1.276   8.510
  613TIP3    H226035   3.250   1.342   8.550
  614TIP3   OH226036   2.108   0.919   8.805
  614TIP3    H126037   2.173   0.855   8.778
  614TIP3    H226038   2.101   0.907   8.899
  615TIP3   OH226039   2.342   0.725   8.401
  615TIP3    H126040   2.329   0.812   8.438
  615TIP3    H226041   2.428   0.699   8.432
  616TIP3   OH226042   2.554   0.906   7.157
  616TIP3    H126043   2.537   0.947   7.072
  616TIP3    H226044   2.643   0.872   7.150
  617TIP3   OH226045   3.048   1.061   8.712
  617TIP3    H126046   3.141   1.046   8.693
  617TIP3    H226047   3.006   0.978   8.691
  618TIP3   OH226048   3.651   1.049   6.943
  618TIP3    H126049   3.646   1.049   6.848
  618TIP3    H226050   3.744   1.053   6.963
  619TIP3   OH226051   2.443   0.425   8.647
  619TIP3    H126052   2.459   0.349   8.591
  619TIP3    H226053   2.494   0.496   8.607
  620TIP3   OH226054   2.535   0.314   8.403
  620TIP3    H126055   2.574   0.401   8.413
  620TIP3    H226056   2.462   0.328   8.343
  621TIP3   OH226057   2.596   0.924   8.455
  621TIP3    H126058   2.616   0.833   8.434
  621TIP3    H226059   2.605   0.970   8.371
  622TIP3   OH226060   3.133   0.664   8.808
  622TIP3    H126061   3.108   0.572   8.810
  622TIP3    H226062   3.228   0.663   8.822
  623TIP3   OH226063   3.316   1.008   8.643
  623TIP3    H126064   3.308   1.101   8.620
  623TIP3    H226065   3.406   0.985   8.619
  624TIP3   OH226066   2.299   0.702   8.777
  624TIP3    H126067   2.255   0.618   8.762
  624TIP3    H226068   2.341   0.722   8.694
  625TIP3   OH226069   2.654   0.103   8.282
  625TIP3    H126070   2.610   0.167   8.338
  625TIP3    H226071   2.631   0.130   8.193
  626TIP3   OH226072   2.788   0.469   8.733
  626TIP3    H126073   2.713   0.428   8.776
  626TIP3    H226074   2.751   0.515   8.658
  627TIP3   OH226075   3.054   0.405   8.767
  627TIP3    H126076   2.959   0.414   8.760
  627TIP3    H226077   3.068   0.313   8.789
  628TIP3   OH226078   3.293   0.262   8.999
  628TIP3    H126079   3.237   0.220   8.934
  628TIP3    H226080   3.232   0.310   9.056
  629TIP3   OH226081   2.194   0.445   8.758
  629TIP3    H126082   2.277   0.423   8.716
  629TIP3    H226083   2.190   0.388   8.835
  630TIP3   OH226084   2.698   0.103   8.710
  630TIP3    H126085   2.683   0.012   8.686
  630TIP3    H226086   2.760   0.135   8.644
  631TIP3   OH226087   2.681   0.109   8.995
  631TIP3    H126088   2.700   0.107   8.901
  631TIP3    H226089   2.655   0.199   9.013
  632TIP3   OH226090   2.788   1.922   7.230
  632TIP3    H126091   2.847   1.983   7.275
  632TIP3    H226092   2.717   1.977   7.197
  633TIP3   OH226093   1.884   1.805   7.683
  633TIP3    H126094   1.836   1.769   7.608
  633TIP3    H226095   1.906   1.729   7.737
  634TIP3   OH226096   1.994   1.607   7.850
  634TIP3    H126097   1.981   1.524   7.896
  634TIP3    H226098   2.032   1.665   7.916
  635TIP3   OH226099   3.756   1.758   8.128
  635TIP3    H126100   3.756   1.719   8.216
  635TIP3    H226101   3.847   1.754   8.100
  636TIP3   OH226102   3.710   1.652   8.383
  636TIP3    H126103   3.647   1.594   8.341
  636TIP3    H226104   3.743   1.602   8.457
  637TIP3   OH226105   3.574   1.292   8.867
  637TIP3    H126106   3.489   1.290   8.912
  637TIP3    H226107   3.619   1.368   8.905
  638TIP3   OH226108   3.725   1.031   7.447
  638TIP3    H126109   3.795   1.096   7.457
  638TIP3    H226110   3.747   0.963   7.511
  639TIP3   OH226111   3.741   0.821   7.643
  639TIP3    H126112   3.648   0.827   7.668
  639TIP3    H226113   3.788   0.858   7.718
  640TIP3   OH226114   3.695   1.226   8.050
  640TIP3    H126115   3.751   1.150   8.060
  640TIP3    H226116   3.754   1.301   8.058
  641TIP3   OH226117   3.491   1.507   8.299
  641TIP3    H126118   3.451   1.556   8.371
  641TIP3    H226119   3.422   1.496   8.235
  642TIP3   OH226120   3.763   0.817   7.265
  642TIP3    H126121   3.745   0.901   7.308
  642TIP3    H226122   3.834   0.837   7.204
  643TIP3   OH226123   3.459   0.797   7.682
  643TIP3    H126124   3.449   0.712   7.639
  643TIP3    H226125   3.412   0.788   7.765
  644TIP3   OH226126   1.938   1.004   8.072
  644TIP3    H126127   1.956   0.987   7.980
  644TIP3    H226128   2.015   0.971   8.119
  645TIP3   OH226129   3.576   0.955   8.568
  645TIP3    H126130   3.624   0.873   8.581
  645TIP3    H226131   3.602   0.985   8.480
  646TIP3   OH226132   3.711   0.718   8.607
  646TIP3    H126133   3.624   0.687   8.632
  646TIP3    H226134   3.767   0.641   8.617
  647TIP3   OH226135   3.439   0.556   7.515
  647TIP3    H126136   3.461   0.464   7.531
  647TIP3    H226137   3.509   0.587   7.458
  648TIP3   OH226138   3.516   0.626   8.066
  648TIP3    H126139   3.608   0.648   8.052
  648TIP3    H226140   3.500   0.641   8.159
  649TIP3   OH226141   3.512   0.709   8.329
  649TIP3    H126142   3.431   0.730   8.376
  649TIP3    H226143   3.555   0.794   8.316
  650TIP3   OH226144   1.978   0.505   8.591
  650TIP3    H126145   2.052   0.496   8.652
  650TIP3    H226146   1.916   0.437   8.618
  651TIP3   OH226147   3.850   0.143   8.781
  651TIP3    H126148   3.935   0.154   8.739
  651TIP3    H226149   3.790   0.197   8.728
  652TIP3   OH226150   3.490   0.284   7.539
  652TIP3    H126151   3.536   0.231   7.604
  652TIP3    H226152   3.408   0.236   7.524
  653TIP3   OH226153   2.026   0.397   7.974
  653TIP3    H126154   2.061   0.313   7.943
  653TIP3    H226155   2.104   0.447   7.997
  654TIP3   OH226156   1.897   0.675   8.094
  654TIP3    H126157   1.958   0.691   8.023
  654TIP3    H226158   1.952   0.652   8.169
  655TIP3   OH226159   3.676   0.299   8.639
  655TIP3    H126160   3.606   0.327   8.697
  655TIP3    H226161   3.631   0.254   8.567
  656TIP3   OH226162   1.981   0.201   7.394
  656TIP3    H126163   1.885   0.205   7.395
  656TIP3    H226164   2.008   0.288   7.367
  657TIP3   OH226165   1.899   0.166   8.329
  657TIP3    H126166   1.826   0.183   8.388
  657TIP3    H226167   1.873   0.208   8.247
  658TIP3   OH226168   2.173   1.499   8.640
  658TIP3    H126169   2.078   1.512   8.643
  658TIP3    H226170   2.184   1.404   8.651
  659TIP3   OH226171   2.534   1.647   8.399
  659TIP3    H126172   2.502   1.724   8.353
  659TIP3    H226173   2.616   1.625   8.354
  660TIP3   OH226174   2.823   1.710   8.643
  660TIP3    H126175   2.842   1.679   8.731
  660TIP3    H226176   2.899   1.764   8.620
  661TIP3   OH226177   3.049   1.849   8.573
  661TIP3    H126178   3.094   1.801   8.503
  661TIP3    H226179   3.116   1.862   8.640
  662TIP3   OH226180   3.580   0.140   8.430
  662TIP3    H126181   3.520   0.186   8.371
  662TIP3    H226182   3.551   0.049   8.427
  663TIP3   OH226183   2.192   1.841   8.367
  663TIP3    H126184   2.115   1.888   8.335
  663TIP3    H226185   2.209   1.877   8.454
  664TIP3   OH226186   2.454   1.874   8.273
  664TIP3    H126187   2.359   1.869   8.283
  664TIP3    H226188   2.468   1.913   8.186
  665TIP3   OH226189   2.903   1.840   8.208
  665TIP3    H126190   2.862   1.869   8.126
  665TIP3    H226191   2.902   1.917   8.264
  666TIP3   OH226192   3.129   1.732   8.320
  666TIP3    H126193   3.052   1.764   8.273
  666TIP3    H226194   3.202   1.780   8.283
  667TIP3   OH226195   3.374   1.848   8.269
  667TIP3    H126196   3.364   1.942   8.252
  667TIP3    H226197   3.412   1.814   8.188
  668TIP3   OH226198   2.173   1.728   8.032
  668TIP3    H126199   2.174   1.682   8.116
  668TIP3    H226200   2.247   1.690   7.983
  669TIP3   OH226201   2.370   1.569   7.901
  669TIP3    H126202   2.339   1.482   7.924
  669TIP3    H226203   2.442   1.586   7.963
  670TIP3   OH226204   2.561   1.527   8.097
  670TIP3    H126205   2.595   1.452   8.049
  670TIP3    H226206   2.637   1.561   8.145
  671TIP3   OH226207   3.015   0.256   7.933
  671TIP3    H126208   2.940   0.198   7.927
  671TIP3    H226209   3.074   0.226   7.864
  672TIP3   OH226210   3.424   0.157   7.904
  672TIP3    H126211   3.495   0.140   7.842
  672TIP3    H226212   3.347   0.170   7.848
  673TIP3   OH226213   3.622   0.108   7.714
  673TIP3    H126214   3.666   0.023   7.707
  673TIP3    H226215   3.694   0.172   7.712
  674TIP3   OH226216   2.161   0.140   7.597
  674TIP3    H126217   2.096   0.164   7.531
  674TIP3    H226218   2.158   0.044   7.600
  675TIP3   OH226219   2.076   7.616   7.351
  675TIP3    H126220   2.107   7.599   7.440
  675TIP3    H226221   2.032   7.701   7.357
  676TIP3   OH226222   2.811  -0.022   7.666
  676TIP3    H126223   2.844   0.049   7.612
  676TIP3    H226224   2.810   0.013   7.755
  677TIP3   OH226225   3.195   0.153   7.748
  677TIP3    H126226   3.216   0.163   7.655
  677TIP3    H226227   3.174   0.060   7.758
  678TIP3   OH226228   3.260   0.150   7.480
  678TIP3    H126229   3.195   0.213   7.449
  678TIP3    H226230   3.250   0.074   7.422
  679TIP3   OH226231   2.018   1.736   7.359
  679TIP3    H126232   1.930   1.738   7.397
  679TIP3    H226233   2.039   1.828   7.344
  680TIP3   OH226234   2.769   0.255   7.311
  680TIP3    H126235   2.812   0.212   7.385
  680TIP3    H226236   2.748   0.343   7.342
  681TIP3   OH226237   2.194   0.097   8.648
  681TIP3    H126238   2.231   0.009   8.641
  681TIP3    H226239   2.265   0.151   8.683
  682TIP3   OH226240   2.432   0.146   8.787
  682TIP3    H126241   2.526   0.154   8.772
  682TIP3    H226242   2.412   0.054   8.773
  683TIP3   OH226243   2.161   1.789   7.105
  683TIP3    H126244   2.137   1.872   7.146
  683TIP3    H226245   2.137   1.722   7.170
  684TIP3   OH226246   3.162   0.149   8.783
  684TIP3    H126247   3.163   0.054   8.798
  684TIP3    H226248   3.218   0.161   8.706
  685TIP3   OH226249   3.520   1.603   8.705
  685TIP3    H126250   3.463   1.601   8.628
  685TIP3    H226251   3.524   1.695   8.730
  686TIP3   OH226252   4.901   1.032   7.648
  686TIP3    H126253   4.886   1.097   7.580
  686TIP3    H226254   4.868   1.072   7.728
  687TIP3   OH226255   4.779   0.884   8.105
  687TIP3    H126256   4.853   0.845   8.151
  687TIP3    H226257   4.752   0.817   8.041
  688TIP3   OH226258   4.089   0.869   8.155
  688TIP3    H126259   4.117   0.792   8.205
  688TIP3    H226260   4.169   0.899   8.111
  689TIP3   OH226261   4.147   1.319   7.954
  689TIP3    H126262   4.140   1.236   7.906
  689TIP3    H226263   4.241   1.333   7.964
  690TIP3   OH226264   3.810   0.563   7.559
  690TIP3    H126265   3.792   0.650   7.594
  690TIP3    H226266   3.758   0.558   7.479
  691TIP3   OH226267   3.912   0.912   7.844
  691TIP3    H126268   3.953   0.830   7.874
  691TIP3    H226269   3.986   0.971   7.828
  692TIP3   OH226270   4.843   1.107   7.924
  692TIP3    H126271   4.820   1.032   7.979
  692TIP3    H226272   4.801   1.182   7.966
  693TIP3   OH226273   5.636   0.385   8.153
  693TIP3    H126274   5.640   0.464   8.206
  693TIP3    H226275   5.699   0.400   8.082
  694TIP3   OH226276   5.005   0.553   8.044
  694TIP3    H126277   5.043   0.465   8.051
  694TIP3    H226278   4.959   0.552   7.960
  695TIP3   OH226279   4.389   0.433   7.805
  695TIP3    H126280   4.393   0.519   7.765
  695TIP3    H226281   4.330   0.383   7.748
  696TIP3   OH226282   5.143   0.504   7.670
  696TIP3    H126283   5.203   0.475   7.739
  696TIP3    H226284   5.200   0.549   7.607
  697TIP3   OH226285   4.009   0.652   7.921
  697TIP3    H126286   4.092   0.636   7.965
  697TIP3    H226287   4.027   0.634   7.829
  698TIP3   OH226288   4.481   0.836   7.832
  698TIP3    H126289   4.559   0.789   7.862
  698TIP3    H226290   4.437   0.773   7.774
  699TIP3   OH226291   5.637   0.590   8.333
  699TIP3    H126292   5.554   0.638   8.328
  699TIP3    H226293   5.660   0.592   8.425
  700TIP3   OH226294   4.245   0.367   8.202
  700TIP3    H126295   4.227   0.436   8.139
  700TIP3    H226296   4.168   0.366   8.260
  701TIP3   OH226297   4.909   1.173   7.395
  701TIP3    H126298   5.004   1.185   7.387
  701TIP3    H226299   4.872   1.231   7.329
  702TIP3   OH226300   4.445   1.156   8.161
  702TIP3    H126301   4.391   1.225   8.199
  702TIP3    H226302   4.527   1.200   8.137
  703TIP3   OH226303   5.314   0.438   7.881
  703TIP3    H126304   5.261   0.403   7.952
  703TIP3    H226305   5.370   0.503   7.923
  704TIP3   OH226306   4.252   0.564   8.008
  704TIP3    H126307   4.316   0.616   8.057
  704TIP3    H226308   4.304   0.522   7.939
  705TIP3   OH226309   4.316   1.366   8.283
  705TIP3    H126310   4.321   1.460   8.268
  705TIP3    H226311   4.230   1.353   8.325
  706TIP3   OH226312   3.858   1.281   7.443
  706TIP3    H126313   3.785   1.309   7.388
  706TIP3    H226314   3.857   1.342   7.517
  707TIP3   OH226315   5.272   1.449   8.098
  707TIP3    H126316   5.183   1.460   8.132
  707TIP3    H226317   5.291   1.531   8.053
  708TIP3   OH226318   5.383   0.304   8.238
  708TIP3    H126319   5.315   0.304   8.171
  708TIP3    H226320   5.463   0.330   8.192
  709TIP3   OH226321   4.636   0.089   7.954
  709TIP3    H126322   4.613   0.001   7.983
  709TIP3    H226323   4.561   0.143   7.980
  710TIP3   OH226324   5.341   1.694   7.730
  710TIP3    H126325   5.330   1.612   7.683
  710TIP3    H226326   5.344   1.761   7.661
  711TIP3   OH226327   5.422   1.224   8.471
  711TIP3    H126328   5.327   1.220   8.477
  711TIP3    H226329   5.440   1.292   8.406
  712TIP3   OH226330   4.856   0.928   7.269
  712TIP3    H126331   4.844   1.010   7.318
  712TIP3    H226332   4.949   0.928   7.247
  713TIP3   OH226333   4.909   0.691   7.077
  713TIP3    H126334   4.982   0.746   7.049
  713TIP3    H226335   4.845   0.701   7.006
  714TIP3   OH226336   5.518   0.987   8.273
  714TIP3    H126337   5.449   1.052   8.259
  714TIP3    H226338   5.584   1.007   8.207
  715TIP3   OH226339   5.165   0.790   8.442
  715TIP3    H126340   5.132   0.865   8.491
  715TIP3    H226341   5.096   0.772   8.378
  716TIP3   OH226342   4.367   1.043   7.657
  716TIP3    H126343   4.356   1.004   7.570
  716TIP3    H226344   4.423   0.980   7.703
  717TIP3   OH226345   4.423   1.404   7.940
  717TIP3    H126346   4.441   1.373   7.852
  717TIP3    H226347   4.499   1.377   7.992
  718TIP3   OH226348   4.317   0.955   8.021
  718TIP3    H126349   4.382   0.917   7.962
  718TIP3    H226350   4.364   1.026   8.065
  719TIP3   OH226351   5.031   1.475   8.217
  719TIP3    H126352   4.996   1.536   8.282
  719TIP3    H226353   4.987   1.392   8.236
  720TIP3   OH226354   4.483   1.357   8.506
  720TIP3    H126355   4.426   1.424   8.544
  720TIP3    H226356   4.448   1.341   8.419
  721TIP3   OH226357   5.135   0.944   7.231
  721TIP3    H126358   5.144   1.025   7.282
  721TIP3    H226359   5.212   0.944   7.174
  722TIP3   OH226360   4.143   0.829   8.523
  722TIP3    H126361   4.056   0.860   8.496
  722TIP3    H226362   4.139   0.826   8.618
  723TIP3   OH226363   4.302   1.562   8.570
  723TIP3    H126364   4.316   1.599   8.483
  723TIP3    H226365   4.208   1.569   8.584
  724TIP3   OH226366   5.586   0.108   7.209
  724TIP3    H126367   5.517   0.108   7.143
  724TIP3    H226368   5.632   0.191   7.195
  725TIP3   OH226369   4.293   0.943   7.397
  725TIP3    H126370   4.233   1.018   7.401
  725TIP3    H226371   4.240   0.872   7.363
  726TIP3   OH226372   3.917   1.132   8.354
  726TIP3    H126373   3.901   1.117   8.260
  726TIP3    H226374   3.925   1.044   8.391
  727TIP3   OH226375   3.913   1.398   8.077
  727TIP3    H126376   3.995   1.365   8.041
  727TIP3    H226377   3.940   1.452   8.151
  728TIP3   OH226378   5.676   1.570   8.624
  728TIP3    H126379   5.673   1.475   8.611
  728TIP3    H226380   5.589   1.593   8.655
  729TIP3   OH226381   4.739   1.457   8.543
  729TIP3    H126382   4.716   1.547   8.565
  729TIP3    H226383   4.657   1.417   8.515
  730TIP3   OH226384   5.077   1.938   7.212
  730TIP3    H126385   5.112   1.970   7.295
  730TIP3    H226386   4.985   1.920   7.230
  731TIP3   OH226387   5.313   0.655   8.637
  731TIP3    H126388   5.267   0.710   8.574
  731TIP3    H226389   5.323   0.570   8.593
  732TIP3   OH226390   4.080   1.342   8.421
  732TIP3    H126391   4.096   1.326   8.514
  732TIP3    H226392   4.024   1.269   8.394
  733TIP3   OH226393   4.401   0.233   8.014
  733TIP3    H126394   4.403   0.294   7.941
  733TIP3    H226395   4.344   0.275   8.079
  734TIP3   OH226396   4.768   0.133   8.342
  734TIP3    H126397   4.789   0.050   8.384
  734TIP3    H226398   4.673   0.140   8.348
  735TIP3   OH226399   5.048   0.440   8.446
  735TIP3    H126400   4.986   0.424   8.518
  735TIP3    H226401   5.025   0.528   8.415
  736TIP3   OH226402   4.626   0.548   7.175
  736TIP3    H126403   4.629   0.468   7.228
  736TIP3    H226404   4.572   0.525   7.099
  737TIP3   OH226405   4.413   0.686   8.193
  737TIP3    H126406   4.334   0.681   8.246
  737TIP3    H226407   4.446   0.774   8.208
  738TIP3   OH226408   4.338   0.665   7.668
  738TIP3    H126409   4.242   0.662   7.671
  738TIP3    H226410   4.359   0.654   7.576
  739TIP3   OH226411   4.861   0.771   7.569
  739TIP3    H126412   4.864   0.862   7.598
  739TIP3    H226413   4.936   0.762   7.509
  740TIP3   OH226414   4.798   0.709   8.664
  740TIP3    H126415   4.745   0.647   8.714
  740TIP3    H226416   4.887   0.696   8.697
  741TIP3   OH226417   4.912   0.603   7.783
  741TIP3    H126418   4.886   0.665   7.715
  741TIP3    H226419   4.991   0.561   7.748
  742TIP3   OH226420   4.169   0.652   8.318
  742TIP3    H126421   4.159   0.705   8.396
  742TIP3    H226422   4.118   0.573   8.335
  743TIP3   OH226423   4.460   0.469   6.972
  743TIP3    H126424   4.378   0.440   6.931
  743TIP3    H226425   4.529   0.423   6.924
  744TIP3   OH226426   3.807   0.312   7.695
  744TIP3    H126427   3.821   0.343   7.784
  744TIP3    H226428   3.800   0.391   7.642
  745TIP3   OH226429   4.963   0.707   8.267
  745TIP3    H126430   4.981   0.654   8.189
  745TIP3    H226431   4.888   0.665   8.308
  746TIP3   OH226432   4.654   0.423   7.714
  746TIP3    H126433   4.569   0.419   7.760
  746TIP3    H226434   4.718   0.402   7.782
  747TIP3   OH226435   4.070   0.577   7.666
  747TIP3    H126436   3.988   0.573   7.617
  747TIP3    H226437   4.115   0.495   7.645
  748TIP3   OH226438   4.388   0.608   7.402
  748TIP3    H126439   4.483   0.615   7.413
  748TIP3    H226440   4.372   0.630   7.311
  749TIP3   OH226441   5.153   0.309   8.062
  749TIP3    H126442   5.107   0.271   8.136
  749TIP3    H226443   5.126   0.257   7.987
  750TIP3   OH226444   4.322   0.648   7.135
  750TIP3    H126445   4.231   0.649   7.108
  750TIP3    H226446   4.365   0.587   7.074
  751TIP3   OH226447   5.372   1.898   8.703
  751TIP3    H126448   5.390   1.917   8.611
  751TIP3    H226449   5.447   1.932   8.750
  752TIP3   OH226450   4.107   1.289   8.694
  752TIP3    H126451   4.183   1.247   8.735
  752TIP3    H226452   4.031   1.244   8.732
  753TIP3   OH226453   4.693   0.676   7.937
  753TIP3    H126454   4.763   0.643   7.882
  753TIP3    H226455   4.682   0.610   8.005
  754TIP3   OH226456   4.212   0.345   7.617
  754TIP3    H126457   4.157   0.269   7.633
  754TIP3    H226458   4.249   0.331   7.530
  755TIP3   OH226459   4.644   0.543   8.178
  755TIP3    H126460   4.568   0.600   8.183
  755TIP3    H226461   4.692   0.561   8.259
  756TIP3   OH226462   5.345   1.184   8.174
  756TIP3    H126463   5.424   1.212   8.129
  756TIP3    H226464   5.286   1.259   8.168
  757TIP3   OH226465   4.937   0.528   7.301
  757TIP3    H126466   4.922   0.555   7.210
  757TIP3    H226467   4.985   0.601   7.340
  758TIP3   OH226468   4.832   1.188   8.552
  758TIP3    H126469   4.845   1.148   8.638
  758TIP3    H226470   4.798   1.275   8.572
  759TIP3   OH226471   5.080   0.736   7.404
  759TIP3    H126472   5.163   0.696   7.428
  759TIP3    H226473   5.104   0.807   7.345
  760TIP3   OH226474   4.149   1.063   7.831
  760TIP3    H126475   4.208   1.069   7.756
  760TIP3    H226476   4.202   1.023   7.901
  761TIP3   OH226477   3.875   0.874   8.450
  761TIP3    H126478   3.835   0.822   8.519
  761TIP3    H226479   3.807   0.883   8.384
  762TIP3   OH226480   4.619   0.922   8.663
  762TIP3    H126481   4.550   0.889   8.605
  762TIP3    H226482   4.694   0.864   8.647
  763TIP3   OH226483   5.017   1.465   8.559
  763TIP3    H126484   4.925   1.464   8.533
  763TIP3    H226485   5.016   1.472   8.654
  764TIP3   OH226486   5.682   0.678   7.232
  764TIP3    H126487   5.668   0.629   7.151
  764TIP3    H226488   5.596   0.712   7.255
  765TIP3   OH226489   5.670   1.299   8.570
  765TIP3    H126490   5.579   1.275   8.554
  765TIP3    H226491   5.717   1.265   8.494
  766TIP3   OH226492   4.462   1.316   7.687
  766TIP3    H126493   4.465   1.367   7.606
  766TIP3    H226494   4.430   1.230   7.659
  767TIP3   OH226495   4.585   1.600   8.204
  767TIP3    H126496   4.663   1.655   8.208
  767TIP3    H226497   4.619   1.513   8.182
  768TIP3   OH226498   4.922   1.231   8.295
  768TIP3    H126499   4.879   1.206   8.377
  768TIP3    H226500   4.850   1.245   8.233
  769TIP3   OH226501   5.243   1.595   8.462
  769TIP3    H126502   5.159   1.557   8.489
  769TIP3    H226503   5.220   1.658   8.394
  770TIP3   OH226504   5.611   1.703   7.277
  770TIP3    H126505   5.542   1.769   7.276
  770TIP3    H226506   5.566   1.621   7.254
  771TIP3   OH226507   4.024   0.402   8.369
  771TIP3    H126508   3.982   0.437   8.447
  771TIP3    H226509   3.966   0.331   8.340
  772TIP3   OH226510   4.009   1.572   8.282
  772TIP3    H126511   4.036   1.502   8.341
  772TIP3    H226512   4.008   1.651   8.336
  773TIP3   OH226513   4.100   1.139   7.393
  773TIP3    H126514   4.024   1.194   7.414
  773TIP3    H226515   4.140   1.182   7.317
  774TIP3   OH226516   5.021   0.219   8.280
  774TIP3    H126517   5.033   0.291   8.342
  774TIP3    H226518   4.931   0.190   8.294
  775TIP3   OH226519   4.987   0.346   7.498
  775TIP3    H126520   4.968   0.402   7.423
  775TIP3    H226521   5.036   0.403   7.558
  776TIP3   OH226522   4.655   0.598   7.501
  776TIP3    H126523   4.723   0.663   7.518
  776TIP3    H226524   4.653   0.544   7.580
  777TIP3   OH226525   4.773   0.577   8.421
  777TIP3    H126526   4.772   0.640   8.494
  777TIP3    H226527   4.782   0.492   8.464
  778TIP3   OH226528   4.757   0.217   7.563
  778TIP3    H126529   4.719   0.285   7.618
  778TIP3    H226530   4.843   0.251   7.538
  779TIP3   OH226531   4.324   0.340   7.368
  779TIP3    H126532   4.329   0.435   7.373
  779TIP3    H226533   4.413   0.312   7.349
  780TIP3   OH226534   5.319   0.433   8.478
  780TIP3    H126535   5.224   0.426   8.469
  780TIP3    H226536   5.354   0.398   8.397
  781TIP3   OH226537   5.190   0.743   7.961
  781TIP3    H126538   5.122   0.682   7.987
  781TIP3    H226539   5.272   0.700   7.984
  782TIP3   OH226540   4.247   1.203   7.166
  782TIP3    H126541   4.340   1.193   7.182
  782TIP3    H226542   4.223   1.127   7.113
  783TIP3   OH226543   4.059   0.623   7.052
  783TIP3    H126544   4.018   0.709   7.060
  783TIP3    H226545   4.051   0.601   6.959
  784TIP3   OH226546   5.351   1.705   8.004
  784TIP3    H126547   5.346   1.701   7.909
  784TIP3    H226548   5.444   1.715   8.024
  785TIP3   OH226549   4.070   0.203   7.956
  785TIP3    H126550   4.077   0.192   7.862
  785TIP3    H226551   4.062   0.114   7.990
  786TIP3   OH226552   3.797   1.491   7.608
  786TIP3    H126553   3.823   1.518   7.696
  786TIP3    H226554   3.822   1.565   7.552
  787TIP3   OH226555   3.971   1.809   8.743
  787TIP3    H126556   4.027   1.802   8.820
  787TIP3    H226557   3.980   1.724   8.699
  788TIP3   OH226558   4.351   1.587   8.844
  788TIP3    H126559   4.427   1.533   8.865
  788TIP3    H226560   4.343   1.580   8.749
  789TIP3   OH226561   5.009   1.478   8.833
  789TIP3    H126562   5.006   1.397   8.882
  789TIP3    H226563   5.089   1.521   8.861
  790TIP3   OH226564   3.871   1.186   8.794
  790TIP3    H126565   3.818   1.116   8.832
  790TIP3    H226566   3.826   1.210   8.713
  791TIP3   OH226567   4.554   1.190   8.716
  791TIP3    H126568   4.541   1.237   8.633
  791TIP3    H226569   4.590   1.105   8.690
  792TIP3   OH226570   5.144   1.233   8.469
  792TIP3    H126571   5.108   1.313   8.508
  792TIP3    H226572   5.085   1.214   8.396
  793TIP3   OH226573   4.130   0.807   8.795
  793TIP3    H126574   4.209   0.768   8.833
  793TIP3    H226575   4.088   0.852   8.868
  794TIP3   OH226576   4.499   0.842   7.220
  794TIP3    H126577   4.450   0.899   7.280
  794TIP3    H226578   4.431   0.788   7.179
  795TIP3   OH226579   4.427   0.819   8.489
  795TIP3    H126580   4.335   0.843   8.492
  795TIP3    H226581   4.461   0.862   8.411
  796TIP3   OH226582   4.928   1.054   8.785
  796TIP3    H126583   5.002   1.029   8.730
  796TIP3    H226584   4.908   0.974   8.834
  797TIP3   OH226585   4.445   0.555   8.571
  797TIP3    H126586   4.456   0.499   8.494
  797TIP3    H226587   4.444   0.644   8.536
  798TIP3   OH226588   4.476   0.394   8.345
  798TIP3    H126589   4.541   0.426   8.283
  798TIP3    H226590   4.394   0.394   8.297
  799TIP3   OH226591   4.542   0.920   8.257
  799TIP3    H126592   4.628   0.916   8.215
  799TIP3    H226593   4.508   1.007   8.233
  800TIP3   OH226594   5.048   0.647   8.780
  800TIP3    H126595   5.047   0.555   8.807
  800TIP3    H226596   5.136   0.662   8.746
  801TIP3   OH226597   5.162   1.012   8.635
  801TIP3    H126598   5.146   1.090   8.582
  801TIP3    H226599   5.254   0.992   8.620
  802TIP3   OH226600   4.300   0.559   8.802
  802TIP3    H126601   4.213   0.523   8.787
  802TIP3    H226602   4.340   0.561   8.715
  803TIP3   OH226603   4.481   0.123   8.377
  803TIP3    H126604   4.485   0.218   8.385
  803TIP3    H226605   4.415   0.107   8.309
  804TIP3   OH226606   4.637   0.504   8.765
  804TIP3    H126607   4.597   0.460   8.840
  804TIP3    H226608   4.564   0.516   8.704
  805TIP3   OH226609   4.863   0.405   8.645
  805TIP3    H126610   4.781   0.426   8.689
  805TIP3    H226611   4.924   0.385   8.717
  806TIP3   OH226612   5.049   0.378   8.849
  806TIP3    H126613   5.099   0.301   8.820
  806TIP3    H226614   5.044   0.368   8.944
  807TIP3   OH226615   4.056   0.423   8.788
  807TIP3    H126616   4.068   0.348   8.731
  807TIP3    H226617   4.059   0.387   8.877
  808TIP3   OH226618   4.507   0.074   8.671
  808TIP3    H126619   4.507  -0.022   8.676
  808TIP3    H226620   4.506   0.093   8.577
  809TIP3   OH226621   4.600   0.143   8.923
  809TIP3    H126622   4.587   0.116   8.833
  809TIP3    H226623   4.543   0.219   8.934
  810TIP3   OH226624   3.857   1.567   7.863
  810TIP3    H126625   3.863   1.496   7.928
  810TIP3    H226626   3.893   1.643   7.907
  811TIP3   OH226627   5.605   1.759   8.110
  811TIP3    H126628   5.598   1.748   8.204
  811TIP3    H226629   5.681   1.816   8.098
  812TIP3   OH226630   5.576   1.678   8.373
  812TIP3    H126631   5.533   1.595   8.352
  812TIP3    H226632   5.632   1.657   8.448
  813TIP3   OH226633   5.494   1.306   8.865
  813TIP3    H126634   5.408   1.311   8.906
  813TIP3    H226635   5.548   1.370   8.912
  814TIP3   OH226636   5.574   1.259   8.056
  814TIP3    H126637   5.646   1.197   8.067
  814TIP3    H226638   5.616   1.345   8.062
  815TIP3   OH226639   5.430   1.454   8.322
  815TIP3    H126640   5.361   1.494   8.375
  815TIP3    H226641   5.391   1.443   8.235
  816TIP3   OH226642   5.457   0.818   7.331
  816TIP3    H126643   5.426   0.858   7.250
  816TIP3    H226644   5.428   0.878   7.400
  817TIP3   OH226645   3.858   1.001   8.102
  817TIP3    H126646   3.849   0.977   8.009
  817TIP3    H226647   3.939   0.958   8.129
  818TIP3   OH226648   5.430   0.976   8.594
  818TIP3    H126649   5.487   0.903   8.568
  818TIP3    H226650   5.448   1.045   8.531
  819TIP3   OH226651   5.587   0.739   8.595
  819TIP3    H126652   5.502   0.704   8.622
  819TIP3    H226653   5.650   0.675   8.626
  820TIP3   OH226654   5.313   0.610   7.470
  820TIP3    H126655   5.342   0.519   7.476
  820TIP3    H226656   5.384   0.655   7.424
  821TIP3   OH226657   5.432   0.636   8.042
  821TIP3    H126658   5.523   0.660   8.024
  821TIP3    H226659   5.419   0.657   8.134
  822TIP3   OH226660   5.403   0.737   8.301
  822TIP3    H126661   5.319   0.748   8.346
  822TIP3    H226662   5.437   0.826   8.290
  823TIP3   OH226663   3.866   0.488   8.589
  823TIP3    H126664   3.928   0.482   8.662
  823TIP3    H226665   3.802   0.419   8.606
  824TIP3   OH226666   5.730   0.146   8.796
  824TIP3    H126667   5.821   0.151   8.769
  824TIP3    H226668   5.684   0.209   8.740
  825TIP3   OH226669   5.370   0.346   7.515
  825TIP3    H126670   5.448   0.313   7.560
  825TIP3    H226671   5.302   0.282   7.535
  826TIP3   OH226672   3.879   0.401   7.946
  826TIP3    H126673   3.951   0.340   7.963
  826TIP3    H226674   3.921   0.487   7.943
  827TIP3   OH226675   3.781   0.688   8.080
  827TIP3    H126676   3.864   0.686   8.033
  827TIP3    H226677   3.801   0.649   8.166
  828TIP3   OH226678   5.575   0.320   8.648
  828TIP3    H126679   5.504   0.337   8.709
  828TIP3    H226680   5.534   0.271   8.576
  829TIP3   OH226681   5.744   0.334   7.172
  829TIP3    H126682   5.836   0.317   7.150
  829TIP3    H226683   5.715   0.396   7.106
  830TIP3   OH226684   3.823   0.209   8.317
  830TIP3    H126685   3.750   0.194   8.377
  830TIP3    H226686   3.783   0.251   8.241
  831TIP3   OH226687   4.028   1.555   8.642
  831TIP3    H126688   3.935   1.538   8.626
  831TIP3    H226689   4.061   1.472   8.675
  832TIP3   OH226690   4.341   1.649   8.309
  832TIP3    H126691   4.318   1.737   8.280
  832TIP3    H226692   4.429   1.634   8.274
  833TIP3   OH226693   4.679   1.715   8.638
  833TIP3    H126694   4.695   1.677   8.724
  833TIP3    H226695   4.756   1.768   8.620
  834TIP3   OH226696   4.908   1.855   8.588
  834TIP3    H126697   4.951   1.802   8.522
  834TIP3    H226698   4.976   1.874   8.652
  835TIP3   OH226699   5.481   0.153   8.447
  835TIP3    H126700   5.433   0.197   8.377
  835TIP3    H226701   5.457   0.060   8.438
  836TIP3   OH226702   4.011   1.861   8.356
  836TIP3    H126703   3.934   1.905   8.320
  836TIP3    H226704   4.030   1.907   8.437
  837TIP3   OH226705   4.263   1.914   8.250
  837TIP3    H126706   4.176   1.885   8.277
  837TIP3    H226707   4.250   2.003   8.218
  838TIP3   OH226708   4.771   1.813   8.191
  838TIP3    H126709   4.722   1.854   8.120
  838TIP3    H226710   4.766   1.876   8.263
  839TIP3   OH226711   4.976   1.718   8.353
  839TIP3    H126712   4.903   1.743   8.295
  839TIP3    H226713   5.054   1.743   8.304
  840TIP3   OH226714   5.219   1.775   8.241
  840TIP3    H126715   5.223   1.870   8.241
  840TIP3    H226716   5.258   1.749   8.157
  841TIP3   OH226717   4.021   1.712   8.046
  841TIP3    H126718   4.026   1.667   8.131
  841TIP3    H226719   4.098   1.681   7.999
  842TIP3   OH226720   4.223   1.595   7.904
  842TIP3    H126721   4.165   1.524   7.878
  842TIP3    H226722   4.307   1.552   7.923
  843TIP3   OH226723   4.818   0.302   7.896
  843TIP3    H126724   4.772   0.229   7.936
  843TIP3    H226725   4.905   0.267   7.874
  844TIP3   OH226726   5.386   0.171   7.823
  844TIP3    H126727   5.462   0.177   7.764
  844TIP3    H226728   5.362   0.263   7.839
  845TIP3   OH226729   5.589   0.242   7.648
  845TIP3    H126730   5.653   0.215   7.581
  845TIP3    H226731   5.627   0.321   7.686
  846TIP3   OH226732   4.038   0.153   7.685
  846TIP3    H126733   3.949   0.187   7.676
  846TIP3    H226734   4.027   0.057   7.685
  847TIP3   OH226735   4.755  -0.007   7.723
  847TIP3    H126736   4.757   0.060   7.655
  847TIP3    H226737   4.717   0.037   7.799
  848TIP3   OH226738   5.064   0.185   7.833
  848TIP3    H126739   5.116   0.193   7.754
  848TIP3    H226740   5.042   0.092   7.838
  849TIP3   OH226741   5.172   0.156   7.570
  849TIP3    H126742   5.100   0.205   7.529
  849TIP3    H226743   5.172   0.071   7.525
  850TIP3   OH226744   3.851   1.706   7.447
  850TIP3    H126745   3.779   1.747   7.398
  850TIP3    H226746   3.889   1.778   7.497
  851TIP3   OH226747   4.607   0.352   7.369
  851TIP3    H126748   4.655   0.284   7.416
  851TIP3    H226749   4.630   0.433   7.414
  852TIP3   OH226750   4.087   0.190   8.648
  852TIP3    H126751   4.104   0.145   8.565
  852TIP3    H226752   4.155   0.159   8.707
  853TIP3   OH226753   4.278   0.116   8.827
  853TIP3    H126754   4.366   0.126   8.789
  853TIP3    H226755   4.261   0.022   8.824
  854TIP3   OH226756   4.041   1.648   7.254
  854TIP3    H126757   3.975   1.663   7.322
  854TIP3    H226758   4.124   1.661   7.299
  855TIP3   OH226759   5.187   0.155   8.766
  855TIP3    H126760   5.160   0.070   8.801
  855TIP3    H226761   5.207   0.138   8.674
  856TIP3   OH226762   5.412   1.627   8.679
  856TIP3    H126763   5.356   1.604   8.605
  856TIP3    H226764   5.394   1.720   8.695
  857TIP3   OH226765   6.836   0.901   7.617
  857TIP3    H126766   6.795   0.976   7.660
  857TIP3    H226767   6.786   0.889   7.537
  858TIP3   OH226768   6.893   0.926   8.093
  858TIP3    H126769   6.874   0.846   8.143
  858TIP3    H226770   6.845   0.995   8.139
  859TIP3   OH226771   5.930   0.849   8.162
  859TIP3    H126772   5.959   0.779   8.220
  859TIP3    H226773   6.009   0.876   8.115
  860TIP3   OH226774   7.169   1.283   7.872
  860TIP3    H126775   7.148   1.194   7.901
  860TIP3    H226776   7.179   1.333   7.953
  861TIP3   OH226777   6.171   1.354   8.007
  861TIP3    H126778   6.123   1.285   7.962
  861TIP3    H226779   6.258   1.353   7.967
  862TIP3   OH226780   5.770   0.833   7.447
  862TIP3    H126781   5.695   0.893   7.454
  862TIP3    H226782   5.751   0.779   7.371
  863TIP3   OH226783   5.817   1.009   7.860
  863TIP3    H126784   5.851   0.920   7.849
  863TIP3    H226785   5.893   1.065   7.843
  864TIP3   OH226786   6.812   1.803   7.752
  864TIP3    H126787   6.844   1.718   7.720
  864TIP3    H226788   6.717   1.800   7.736
  865TIP3   OH226789   6.619   1.186   7.993
  865TIP3    H126790   6.667   1.159   7.914
  865TIP3    H226791   6.681   1.173   8.064
  866TIP3   OH226792   7.546   0.314   8.182
  866TIP3    H126793   7.510   0.379   8.242
  866TIP3    H226794   7.549   0.358   8.097
  867TIP3   OH226795   6.194   0.346   7.832
  867TIP3    H126796   6.216   0.345   7.739
  867TIP3    H226797   6.114   0.294   7.837
  868TIP3   OH226798   5.915   0.746   7.850
  868TIP3    H126799   5.978   0.691   7.897
  868TIP3    H226800   5.909   0.707   7.763
  869TIP3   OH226801   6.273   0.777   7.813
  869TIP3    H126802   6.359   0.737   7.830
  869TIP3    H226803   6.229   0.714   7.756
  870TIP3   OH226804   7.431   0.476   8.365
  870TIP3    H126805   7.399   0.562   8.338
  870TIP3    H226806   7.360   0.441   8.420
  871TIP3   OH226807   6.103   0.374   8.207
  871TIP3    H126808   6.067   0.438   8.145
  871TIP3    H226809   6.039   0.372   8.278
  872TIP3   OH226810   6.701   1.129   7.702
  872TIP3    H126811   6.750   1.180   7.637
  872TIP3    H226812   6.610   1.134   7.674
  873TIP3   OH226813   6.375   1.106   8.118
  873TIP3    H126814   6.338   1.180   8.165
  873TIP3    H226815   6.451   1.142   8.073
  874TIP3   OH226816   6.088   0.557   7.977
  874TIP3    H126817   6.154   0.601   8.030
  874TIP3    H226818   6.137   0.498   7.920
  875TIP3   OH226819   6.237   1.309   8.271
  875TIP3    H126820   6.213   1.337   8.183
  875TIP3    H226821   6.160   1.330   8.324
  876TIP3   OH226822   5.831   1.350   7.405
  876TIP3    H126823   5.741   1.380   7.392
  876TIP3    H226824   5.867   1.414   7.467
  877TIP3   OH226825   7.184   1.461   8.090
  877TIP3    H126826   7.094   1.477   8.117
  877TIP3    H226827   7.214   1.545   8.056
  878TIP3   OH226828   7.353   0.122   8.146
  878TIP3    H126829   7.300   0.139   8.068
  878TIP3    H226830   7.420   0.191   8.146
  879TIP3   OH226831   6.502   0.096   7.910
  879TIP3    H126832   6.488   0.002   7.924
  879TIP3    H226833   6.435   0.138   7.963
  880TIP3   OH226834   6.894   1.571   7.624
  880TIP3    H126835   6.976   1.525   7.640
  880TIP3    H226836   6.904   1.609   7.537
  881TIP3   OH226837   7.139   1.444   7.648
  881TIP3    H126838   7.155   1.378   7.581
  881TIP3    H226839   7.152   1.397   7.731
  882TIP3   OH226840   7.276   1.179   8.396
  882TIP3    H126841   7.286   1.137   8.311
  882TIP3    H226842   7.287   1.273   8.378
  883TIP3   OH226843   7.516   0.913   8.230
  883TIP3    H126844   7.445   0.967   8.196
  883TIP3    H226845   7.579   0.909   8.158
  884TIP3   OH226846   7.072   0.995   7.483
  884TIP3    H126847   6.987   0.982   7.525
  884TIP3    H226848   7.129   0.928   7.522
  885TIP3   OH226849   7.034   0.744   8.443
  885TIP3    H126850   7.009   0.823   8.492
  885TIP3    H226851   6.975   0.743   8.368
  886TIP3   OH226852   6.209   1.008   7.669
  886TIP3    H126853   6.143   0.992   7.602
  886TIP3    H226854   6.227   0.922   7.706
  887TIP3   OH226855   6.427   1.375   7.909
  887TIP3    H126856   6.418   1.376   7.814
  887TIP3    H226857   6.501   1.316   7.925
  888TIP3   OH226858   6.181   0.924   8.034
  888TIP3    H126859   6.216   0.879   7.957
  888TIP3    H226860   6.251   0.984   8.060
  889TIP3   OH226861   6.938   1.506   8.202
  889TIP3    H126862   6.919   1.586   8.250
  889TIP3    H226863   6.853   1.464   8.190
  890TIP3   OH226864   6.392   1.307   8.508
  890TIP3    H126865   6.334   1.366   8.556
  890TIP3    H226866   6.350   1.297   8.422
  891TIP3   OH226867   6.002   0.872   8.498
  891TIP3    H126868   6.010   0.921   8.580
  891TIP3    H226869   5.914   0.889   8.467
  892TIP3   OH226870   6.683   1.413   7.533
  892TIP3    H126871   6.744   1.473   7.576
  892TIP3    H226872   6.739   1.347   7.492
  893TIP3   OH226873   6.221   1.493   8.617
  893TIP3    H126874   6.243   1.553   8.547
  893TIP3    H226875   6.125   1.495   8.621
  894TIP3   OH226876   7.336   0.087   7.076
  894TIP3    H126877   7.256   0.139   7.076
  894TIP3    H226878   7.404   0.147   7.107
  895TIP3   OH226879   6.012   0.966   7.482
  895TIP3    H126880   5.999   1.033   7.415
  895TIP3    H226881   5.928   0.920   7.487
  896TIP3   OH226882   5.808   1.175   8.364
  896TIP3    H126883   5.790   1.159   8.271
  896TIP3    H226884   5.798   1.090   8.406
  897TIP3   OH226885   5.706   1.499   8.088
  897TIP3    H126886   5.776   1.516   8.152
  897TIP3    H226887   5.654   1.580   8.088
  898TIP3   OH226888   7.558   1.540   8.656
  898TIP3    H126889   7.561   1.447   8.636
  898TIP3    H226890   7.467   1.556   8.682
  899TIP3   OH226891   6.611   1.483   8.501
  899TIP3    H126892   6.590   1.558   8.557
  899TIP3    H226893   6.537   1.424   8.510
  900TIP3   OH226894   6.883   1.704   7.382
  900TIP3    H126895   6.803   1.688   7.333
  900TIP3    H226896   6.874   1.794   7.414
  901TIP3   OH226897   6.126   1.678   7.684
  901TIP3    H126898   6.128   1.657   7.777
  901TIP3    H226899   6.057   1.623   7.647
  902TIP3   OH226900   7.005   1.956   7.108
  902TIP3    H126901   7.023   1.994   7.023
  902TIP3    H226902   7.052   1.872   7.107
  903TIP3   OH226903   7.139   1.716   7.270
  903TIP3    H126904   7.050   1.696   7.301
  903TIP3    H226905   7.180   1.630   7.258
  904TIP3   OH226906   7.187   0.621   8.636
  904TIP3    H126907   7.141   0.662   8.564
  904TIP3    H226908   7.202   0.531   8.607
  905TIP3   OH226909   5.995   1.378   8.396
  905TIP3    H126910   5.982   1.405   8.486
  905TIP3    H226911   5.935   1.305   8.383
  906TIP3   OH226912   6.271   0.212   8.057
  906TIP3    H126913   6.263   0.258   7.974
  906TIP3    H226914   6.210   0.258   8.115
  907TIP3   OH226915   6.706   0.203   8.266
  907TIP3    H126916   6.730   0.121   8.309
  907TIP3    H226917   6.611   0.200   8.259
  908TIP3   OH226918   6.950   0.464   8.458
  908TIP3    H126919   6.879   0.438   8.516
  908TIP3    H226920   6.957   0.559   8.469
  909TIP3   OH226921   6.242   0.689   8.169
  909TIP3    H126922   6.177   0.672   8.237
  909TIP3    H226923   6.226   0.780   8.143
  910TIP3   OH226924   6.160   0.598   7.641
  910TIP3    H126925   6.067   0.613   7.622
  910TIP3    H226926   6.178   0.511   7.604
  911TIP3   OH226927   6.679   0.708   8.670
  911TIP3    H126928   6.626   0.642   8.715
  911TIP3    H226929   6.768   0.691   8.700
  912TIP3   OH226930   6.028   0.653   8.333
  912TIP3    H126931   6.019   0.712   8.408
  912TIP3    H226932   5.984   0.573   8.361
  913TIP3   OH226933   6.312   0.513   7.177
  913TIP3    H126934   6.293   0.430   7.221
  913TIP3    H226935   6.405   0.506   7.155
  914TIP3   OH226936   5.709   0.467   7.738
  914TIP3    H126937   5.742   0.461   7.828
  914TIP3    H226938   5.767   0.530   7.696
  915TIP3   OH226939   5.900   0.508   7.363
  915TIP3    H126940   5.944   0.430   7.330
  915TIP3    H226941   5.819   0.513   7.311
  916TIP3   OH226942   6.843   0.697   8.244
  916TIP3    H126943   6.859   0.611   8.207
  916TIP3    H226944   6.765   0.687   8.298
  917TIP3   OH226945   5.886   0.637   7.599
  917TIP3    H126946   5.842   0.714   7.562
  917TIP3    H226947   5.893   0.576   7.525
  918TIP3   OH226948   7.268   1.877   8.696
  918TIP3    H126949   7.290   1.894   8.604
  918TIP3    H226950   7.346   1.903   8.745
  919TIP3   OH226951   6.003   1.008   8.733
  919TIP3    H126952   6.075   1.038   8.788
  919TIP3    H226953   5.931   1.067   8.754
  920TIP3   OH226954   6.186   0.332   7.552
  920TIP3    H126955   6.114   0.269   7.556
  920TIP3    H226956   6.237   0.305   7.475
  921TIP3   OH226957   6.494   0.579   8.179
  921TIP3    H126958   6.418   0.637   8.176
  921TIP3    H226959   6.545   0.611   8.254
  922TIP3   OH226960   6.539   1.117   7.350
  922TIP3    H126961   6.504   1.036   7.313
  922TIP3    H226962   6.503   1.121   7.438
  923TIP3   OH226963   7.315   1.076   8.147
  923TIP3    H126964   7.372   1.139   8.102
  923TIP3    H226965   7.247   1.056   8.083
  924TIP3   OH226966   6.609   1.127   8.464
  924TIP3    H126967   6.643   1.101   8.549
  924TIP3    H226968   6.543   1.194   8.483
  925TIP3   OH226969   6.074   1.130   7.876
  925TIP3    H126970   6.120   1.104   7.796
  925TIP3    H226971   6.095   1.060   7.939
  926TIP3   OH226972   6.797   1.186   7.424
  926TIP3    H126973   6.860   1.176   7.352
  926TIP3    H226974   6.713   1.162   7.386
  927TIP3   OH226975   5.730   0.922   8.445
  927TIP3    H126976   5.697   0.856   8.505
  927TIP3    H226977   5.659   0.935   8.382
  928TIP3   OH226978   6.491   0.911   8.668
  928TIP3    H126979   6.416   0.874   8.623
  928TIP3    H226980   6.562   0.848   8.654
  929TIP3   OH226981   6.876   1.412   8.542
  929TIP3    H126982   6.786   1.432   8.516
  929TIP3    H226983   6.876   1.417   8.638
  930TIP3   OH226984  -0.002   0.683   7.271
  930TIP3    H126985   0.083   0.639   7.269
  930TIP3    H226986   0.002   0.745   7.197
  931TIP3   OH226987   7.511   1.286   8.550
  931TIP3    H126988   7.416   1.275   8.539
  931TIP3    H226989   7.548   1.255   8.468
  932TIP3   OH226990   7.325   1.483   7.351
  932TIP3    H126991   7.265   1.428   7.402
  932TIP3    H226992   7.386   1.422   7.311
  933TIP3   OH226993   7.121   1.011   7.964
  933TIP3    H126994   7.037   0.991   8.006
  933TIP3    H226995   7.143   0.932   7.915
  934TIP3   OH226996   6.349   1.398   7.643
  934TIP3    H126997   6.388   1.480   7.612
  934TIP3    H226998   6.260   1.399   7.607
  935TIP3   OH226999   6.442   1.143   7.604
  935TIP3    H127000   6.418   1.235   7.613
  935TIP3    H227001   6.363   1.095   7.630
  936TIP3   OH227002   6.537   1.602   8.264
  936TIP3    H127003   6.598   1.674   8.249
  936TIP3    H227004   6.575   1.555   8.339
  937TIP3   OH227005   6.380   1.668   7.577
  937TIP3    H127006   6.294   1.685   7.616
  937TIP3    H227007   6.440   1.727   7.623
  938TIP3   OH227008   6.776   1.133   8.241
  938TIP3    H127009   6.709   1.129   8.309
  938TIP3    H227010   6.857   1.154   8.287
  939TIP3   OH227011   7.088   1.577   8.480
  939TIP3    H127012   7.018   1.516   8.503
  939TIP3    H227013   7.045   1.647   8.433
  940TIP3   OH227014   5.908   0.409   8.404
  940TIP3    H127015   5.862   0.449   8.478
  940TIP3    H227016   5.857   0.331   8.384
  941TIP3   OH227017   7.196   1.249   7.461
  941TIP3    H127018   7.142   1.170   7.459
  941TIP3    H227019   7.270   1.229   7.404
  942TIP3   OH227020   5.901   1.609   8.262
  942TIP3    H127021   5.945   1.535   8.304
  942TIP3    H227022   5.920   1.684   8.319
  943TIP3   OH227023   6.488   1.393   7.339
  943TIP3    H127024   6.501   1.300   7.324
  943TIP3    H227025   6.551   1.416   7.407
  944TIP3   OH227026   5.939   1.131   7.276
  944TIP3    H127027   5.904   1.208   7.322
  944TIP3    H227028   5.939   1.157   7.184
  945TIP3   OH227029   6.861   0.423   8.200
  945TIP3    H127030   6.905   0.424   8.285
  945TIP3    H227031   6.802   0.348   8.204
  946TIP3   OH227032   6.645   1.690   7.239
  946TIP3    H127033   6.552   1.678   7.258
  946TIP3    H227034   6.661   1.639   7.160
  947TIP3   OH227035   6.646   0.611   8.414
  947TIP3    H127036   6.648   0.656   8.499
  947TIP3    H227037   6.654   0.518   8.437
  948TIP3   OH227038   6.376   1.640   7.303
  948TIP3    H127039   6.400   1.547   7.298
  948TIP3    H227040   6.373   1.659   7.397
  949TIP3   OH227041   6.310   0.257   7.298
  949TIP3    H127042   6.402   0.244   7.320
  949TIP3    H227043   6.290   0.185   7.238
  950TIP3   OH227044   7.206   0.377   8.496
  950TIP3    H127045   7.114   0.389   8.473
  950TIP3    H227046   7.225   0.285   8.475
  951TIP3   OH227047   7.162   0.746   7.863
  951TIP3    H127048   7.096   0.682   7.837
  951TIP3    H227049   7.217   0.699   7.926
  952TIP3   OH227050   7.284   1.718   8.032
  952TIP3    H127051   7.273   1.770   7.953
  952TIP3    H227052   7.378   1.721   8.050
  953TIP3   OH227053   5.964   0.201   7.854
  953TIP3    H127054   5.954   0.189   7.760
  953TIP3    H227055   5.954   0.113   7.891
  954TIP3   OH227056   5.899   1.562   7.577
  954TIP3    H127057   5.851   1.562   7.660
  954TIP3    H227058   5.864   1.638   7.530
  955TIP3   OH227059   5.824   1.797   8.719
  955TIP3    H127060   5.883   1.763   8.786
  955TIP3    H227061   5.778   1.720   8.685
  956TIP3   OH227062   6.232   1.565   8.885
  956TIP3    H127063   6.310   1.522   8.920
  956TIP3    H227064   6.232   1.543   8.792
  957TIP3   OH227065   6.702   1.543   7.011
  957TIP3    H127066   6.752   1.599   6.952
  957TIP3    H227067   6.759   1.467   7.026
  958TIP3   OH227068   6.882   1.445   8.816
  958TIP3    H127069   6.885   1.363   8.865
  958TIP3    H227070   6.965   1.489   8.838
  959TIP3   OH227071   5.778   1.162   8.787
  959TIP3    H127072   5.706   1.108   8.820
  959TIP3    H227073   5.739   1.211   8.715
  960TIP3   OH227074   6.433   1.167   8.750
  960TIP3    H127075   6.412   1.208   8.666
  960TIP3    H227076   6.464   1.080   8.727
  961TIP3   OH227077   6.987   1.186   8.423
  961TIP3    H127078   7.080   1.203   8.409
  961TIP3    H227079   6.954   1.267   8.461
  962TIP3   OH227080   5.924   0.759   8.833
  962TIP3    H127081   5.959   0.828   8.776
  962TIP3    H227082   5.905   0.803   8.916
  963TIP3   OH227083   6.279   0.809   8.512
  963TIP3    H127084   6.188   0.837   8.504
  963TIP3    H227085   6.325   0.854   8.441
  964TIP3   OH227086   6.803   1.042   8.763
  964TIP3    H127087   6.874   1.016   8.704
  964TIP3    H227088   6.787   0.964   8.816
  965TIP3   OH227089   6.318   0.548   8.587
  965TIP3    H127090   6.324   0.497   8.506
  965TIP3    H227091   6.305   0.638   8.557
  966TIP3   OH227092   6.340   0.419   8.343
  966TIP3    H127093   6.395   0.466   8.280
  966TIP3    H227094   6.255   0.411   8.299
  967TIP3   OH227095   6.433   0.947   8.336
  967TIP3    H127096   6.501   0.998   8.379
  967TIP3    H227097   6.414   0.995   8.255
  968TIP3   OH227098   6.934   0.634   8.772
  968TIP3    H127099   6.929   0.541   8.793
  968TIP3    H227100   7.024   0.647   8.740
  969TIP3   OH227101   7.028   0.981   8.604
  969TIP3    H127102   7.004   1.050   8.542
  969TIP3    H227103   7.123   0.978   8.601
  970TIP3   OH227104   6.182   0.551   8.825
  970TIP3    H127105   6.090   0.526   8.815
  970TIP3    H227106   6.217   0.553   8.736
  971TIP3   OH227107   6.427   0.167   8.280
  971TIP3    H127108   6.404   0.249   8.325
  971TIP3    H227109   6.383   0.173   8.196
  972TIP3   OH227110   6.523   0.500   8.765
  972TIP3    H127111   6.487   0.465   8.846
  972TIP3    H227112   6.447   0.511   8.708
  973TIP3   OH227113   6.750   0.407   8.636
  973TIP3    H127114   6.668   0.424   8.682
  973TIP3    H227115   6.809   0.372   8.702
  974TIP3   OH227116   6.949   0.359   8.826
  974TIP3    H127117   6.983   0.269   8.824
  974TIP3    H227118   6.943   0.380   8.919
  975TIP3   OH227119   5.941   0.406   8.807
  975TIP3    H127120   5.956   0.328   8.754
  975TIP3    H227121   5.944   0.375   8.898
  976TIP3   OH227122   6.423   0.082   8.701
  976TIP3    H127123   6.406  -0.012   8.690
  976TIP3    H227124   6.440   0.114   8.612
  977TIP3   OH227125   6.547   0.205   8.915
  977TIP3    H127126   6.522   0.153   8.839
  977TIP3    H227127   6.471   0.262   8.931
  978TIP3   OH227128   5.795   1.585   7.829
  978TIP3    H127129   5.754   1.521   7.887
  978TIP3    H227130   5.827   1.654   7.888
  979TIP3   OH227131   7.545   1.736   8.155
  979TIP3    H127132   7.531   1.697   8.241
  979TIP3    H227133   7.563   1.828   8.173
  980TIP3   OH227134   7.487   1.630   8.401
  980TIP3    H127135   7.428   1.557   8.381
  980TIP3    H227136   7.531   1.603   8.482
  981TIP3   OH227137   7.383   1.305   8.860
  981TIP3    H127138   7.307   1.311   8.917
  981TIP3    H227139   7.449   1.360   8.902
  982TIP3   OH227140   7.437   1.215   7.330
  982TIP3    H127141   7.517   1.248   7.291
  982TIP3    H227142   7.462   1.131   7.368
  983TIP3   OH227143   7.405   1.013   7.531
  983TIP3    H127144   7.343   0.946   7.559
  983TIP3    H227145   7.370   1.095   7.564
  984TIP3   OH227146   7.519   1.232   8.053
  984TIP3    H127147   7.578   1.198   7.986
  984TIP3    H227148   7.518   1.327   8.038
  985TIP3   OH227149   7.288   1.446   8.343
  985TIP3    H127150   7.218   1.494   8.386
  985TIP3    H227151   7.264   1.447   8.250
  986TIP3   OH227152   7.439   0.582   7.178
  986TIP3    H127153   7.521   0.602   7.224
  986TIP3    H227154   7.413   0.664   7.137
  987TIP3   OH227155   7.235   0.811   7.606
  987TIP3    H127156   7.262   0.724   7.577
  987TIP3    H227157   7.219   0.801   7.700
  988TIP3   OH227158   5.745   1.045   8.118
  988TIP3    H127159   5.753   1.040   8.023
  988TIP3    H227160   5.805   0.978   8.151
  989TIP3   OH227161   7.302   0.977   8.592
  989TIP3    H127162   7.365   0.905   8.578
  989TIP3    H227163   7.317   1.036   8.518
  990TIP3   OH227164   7.442   0.728   8.620
  990TIP3    H127165   7.353   0.695   8.624
  990TIP3    H227166   7.492   0.671   8.678
  991TIP3   OH227167   7.294   0.548   7.553
  991TIP3    H127168   7.263   0.458   7.558
  991TIP3    H227169   7.383   0.541   7.518
  992TIP3   OH227170   7.273   0.566   8.032
  992TIP3    H127171   7.350   0.518   8.003
  992TIP3    H227172   7.295   0.597   8.120
  993TIP3   OH227173   7.319   0.709   8.275
  993TIP3    H127174   7.241   0.752   8.309
  993TIP3    H227175   7.382   0.780   8.260
  994TIP3   OH227176   5.759   0.519   8.617
  994TIP3    H127177   5.820   0.511   8.690
  994TIP3    H227178   5.695   0.449   8.631
  995TIP3   OH227179   7.654   0.152   8.788
  995TIP3    H127180   7.743   0.168   8.756
  995TIP3    H227181   7.598   0.183   8.717
  996TIP3   OH227182   7.233   0.276   7.554
  996TIP3    H127183   7.280   0.216   7.612
  996TIP3    H227184   7.176   0.220   7.502
  997TIP3   OH227185   5.847   0.420   7.974
  997TIP3    H127186   5.879   0.337   7.939
  997TIP3    H227187   5.924   0.476   7.979
  998TIP3   OH227188   5.692   0.728   8.025
  998TIP3    H127189   5.755   0.736   7.953
  998TIP3    H227190   5.743   0.746   8.104
  999TIP3   OH227191   7.480   0.263   8.604
  999TIP3    H127192   7.414   0.295   8.666
  999TIP3    H227193   7.430   0.218   8.536
 1000TIP3   OH227194   7.510   0.308   7.169
 1000TIP3    H127195   7.603   0.311   7.147
 1000TIP3    H227196   7.480   0.398   7.157
 1001TIP3   OH227197   5.751   0.194   7.427
 1001TIP3    H127198   5.688   0.137   7.383
 1001TIP3    H227199   5.771   0.262   7.363
 1002TIP3   OH227200   7.196   1.721   7.590
 1002TIP3    H127201   7.185   1.626   7.602
 1002TIP3    H227202   7.207   1.755   7.678
 1003TIP3   OH227203   5.729   0.205   8.338
 1003TIP3    H127204   5.650   0.194   8.391
 1003TIP3    H227205   5.700   0.257   8.263
 1004TIP3   OH227206   5.945   1.487   8.646
 1004TIP3    H127207   5.860   1.528   8.626
 1004TIP3    H227208   5.936   1.458   8.737
 1005TIP3   OH227209   6.299   1.644   8.407
 1005TIP3    H127210   6.265   1.726   8.372
 1005TIP3    H227211   6.374   1.624   8.351
 1006TIP3   OH227212   6.578   1.705   8.661
 1006TIP3    H127213   6.598   1.671   8.748
 1006TIP3    H227214   6.655   1.757   8.638
 1007TIP3   OH227215   6.806   1.841   8.587
 1007TIP3    H127216   6.855   1.807   8.512
 1007TIP3    H227217   6.872   1.857   8.654
 1008TIP3   OH227218   7.317   0.128   8.422
 1008TIP3    H127219   7.320   0.132   8.327
 1008TIP3    H227220   7.317   0.035   8.443
 1009TIP3   OH227221   5.943   1.861   8.385
 1009TIP3    H127222   5.858   1.895   8.358
 1009TIP3    H227223   5.963   1.908   8.466
 1010TIP3   OH227224   6.205   1.879   8.298
 1010TIP3    H127225   6.112   1.873   8.318
 1010TIP3    H227226   6.208   1.912   8.208
 1011TIP3   OH227227   6.681   1.827   8.199
 1011TIP3    H127228   6.628   1.854   8.124
 1011TIP3    H227229   6.665   1.895   8.265
 1012TIP3   OH227230   6.918   1.755   8.337
 1012TIP3    H127231   6.846   1.787   8.283
 1012TIP3    H227232   6.995   1.798   8.302
 1013TIP3   OH227233   7.162   1.841   8.247
 1013TIP3    H127234   7.185   1.931   8.225
 1013TIP3    H227235   7.196   1.790   8.173
 1014TIP3   OH227236   5.915   1.749   8.022
 1014TIP3    H127237   5.898   1.712   8.108
 1014TIP3    H227238   5.998   1.711   7.995
 1015TIP3   OH227239   6.144   1.622   7.954
 1015TIP3    H127240   6.133   1.530   7.976
 1015TIP3    H227241   6.234   1.643   7.980
 1016TIP3   OH227242   6.411   1.628   8.023
 1016TIP3    H127243   6.424   1.545   7.976
 1016TIP3    H227244   6.448   1.612   8.110
 1017TIP3   OH227245   7.213   0.150   7.901
 1017TIP3    H127246   7.281   0.147   7.833
 1017TIP3    H227247   7.132   0.166   7.853
 1018TIP3   OH227248   7.405   0.113   7.706
 1018TIP3    H127249   7.427   0.021   7.693
 1018TIP3    H227250   7.488   0.159   7.700
 1019TIP3   OH227251   5.976   0.149   7.583
 1019TIP3    H127252   5.901   0.165   7.526
 1019TIP3    H227253   5.980   0.053   7.592
 1020TIP3   OH227254   5.779   7.586   7.207
 1020TIP3    H127255   5.862   7.630   7.190
 1020TIP3    H227256   5.716   7.657   7.217
 1021TIP3   OH227257   6.637   0.038   7.669
 1021TIP3    H127258   6.688   0.105   7.623
 1021TIP3    H227259   6.601   0.083   7.745
 1022TIP3   OH227260   6.967   0.170   7.754
 1022TIP3    H127261   6.915   0.185   7.675
 1022TIP3    H227262   6.954   0.078   7.775
 1023TIP3   OH227263   7.087   0.107   7.399
 1023TIP3    H127264   7.017   0.167   7.375
 1023TIP3    H227265   7.062   0.024   7.357
 1024TIP3   OH227266   5.820   1.787   7.432
 1024TIP3    H127267   5.745   1.743   7.393
 1024TIP3    H227268   5.826   1.870   7.386
 1025TIP3   OH227269   6.022   0.288   7.258
 1025TIP3    H127270   6.001   0.202   7.223
 1025TIP3    H227271   6.116   0.285   7.276
 1026TIP3   OH227272   7.448   1.727   7.392
 1026TIP3    H127273   7.412   1.638   7.389
 1026TIP3    H227274   7.485   1.741   7.305
 1027TIP3   OH227275   5.988   0.152   8.701
 1027TIP3    H127276   5.995   0.071   8.651
 1027TIP3    H227277   6.062   0.149   8.762
 1028TIP3   OH227278   6.202   0.109   8.872
 1028TIP3    H127279   6.286   0.123   8.828
 1028TIP3    H227280   6.175   0.021   8.845
 1029TIP3   OH227281   7.080   0.117   8.832
 1029TIP3    H127282   7.052   0.029   8.806
 1029TIP3    H227283   7.154   0.102   8.892
 1030TIP3   OH227284   7.286   1.603   8.674
 1030TIP3    H127285   7.223   1.584   8.604
 1030TIP3    H227286   7.280   1.698   8.686
 1031TIP3   OH227287   7.575   0.796   7.508
 1031TIP3    H127288   7.522   0.875   7.499
 1031TIP3    H227289   7.583   0.762   7.419
 1032TIP3   OH227290   7.604   1.172   8.315
 1032TIP3    H127291   7.585   1.210   8.230
 1032TIP3    H227292   7.592   1.078   8.304
 1033TIP3   OH227293   7.584   1.497   8.020
 1033TIP3    H127294   7.670   1.461   8.042
 1033TIP3    H227295   7.579   1.579   8.069
 1034TIP3   OH227296   7.611   0.394   7.684
 1034TIP3    H127297   7.698   0.422   7.654
 1034TIP3    H227298   7.562   0.378   7.604
 1035TIP3   OH227299   7.650   0.795   8.448
 1035TIP3    H127300   7.579   0.769   8.506
 1035TIP3    H227301   7.607   0.826   8.369
 1036TIP3   OH227302   7.632   1.127   8.741
 1036TIP3    H127303   7.560   1.086   8.789
 1036TIP3    H227304   7.589   1.189   8.682
 1037TIP3   OH227305   7.583   1.840   7.611
 1037TIP3    H127306   7.553   1.790   7.536
 1037TIP3    H227307   7.606   1.774   7.676
 1038TIP3   OH227308   7.660   1.662   7.803
 1038TIP3    H127309   7.602   1.607   7.857
 1038TIP3    H227310   7.744   1.616   7.804
 1039TIP3   OH227311   0.020   0.931   8.021
 1039TIP3    H127312   0.018   0.906   7.928
 1039TIP3    H227313   0.096   0.990   8.028
 1040TIP3   OH227314   7.560   0.501   8.749
 1040TIP3    H127315   7.652   0.527   8.750
 1040TIP3    H227316   7.554   0.434   8.681
 1041TIP3   OH227317   7.514   0.455   7.945
 1041TIP3    H127318   7.543   0.432   7.856
 1041TIP3    H227319   7.571   0.527   7.971
 1042TIP3   OH227320   7.480   0.345   7.447
 1042TIP3    H127321   7.393   0.310   7.463
 1042TIP3    H227322   7.498   0.326   7.355
 1043TIP3   OH227323   7.693   0.233   8.402
 1043TIP3    H127324   7.631   0.256   8.472
 1043TIP3    H227325   7.644   0.249   8.321
 1044TIP3   OH227326   1.253   2.866   7.518
 1044TIP3    H127327   1.231   2.956   7.542
 1044TIP3    H227328   1.173   2.831   7.480
 1045TIP3   OH227329   1.165   2.806   8.089
 1045TIP3    H127330   1.176   2.731   8.148
 1045TIP3    H227331   1.102   2.776   8.023
 1046TIP3   OH227332   0.329   2.694   8.125
 1046TIP3    H127333   0.367   2.636   8.191
 1046TIP3    H227334   0.404   2.731   8.079
 1047TIP3   OH227335   1.414   3.123   7.858
 1047TIP3    H127336   1.412   3.036   7.897
 1047TIP3    H227337   1.343   3.171   7.901
 1048TIP3   OH227338   0.428   3.204   7.931
 1048TIP3    H127339   0.396   3.120   7.899
 1048TIP3    H227340   0.523   3.196   7.929
 1049TIP3   OH227341   0.101   2.526   7.625
 1049TIP3    H127342   0.127   2.598   7.683
 1049TIP3    H227343   0.005   2.526   7.628
 1050TIP3   OH227344   0.177   2.731   7.805
 1050TIP3    H127345   0.238   2.660   7.827
 1050TIP3    H227346   0.230   2.811   7.813
 1051TIP3   OH227347   1.275   3.550   7.904
 1051TIP3    H127348   1.306   3.506   7.825
 1051TIP3    H227349   1.233   3.480   7.954
 1052TIP3   OH227350   0.911   3.124   8.079
 1052TIP3    H127351   0.989   3.172   8.050
 1052TIP3    H227352   0.944   3.066   8.148
 1053TIP3   OH227353   1.829   2.172   8.160
 1053TIP3    H127354   1.816   2.255   8.205
 1053TIP3    H227355   1.898   2.190   8.096
 1054TIP3   OH227356   1.287   2.435   8.056
 1054TIP3    H127357   1.333   2.351   8.062
 1054TIP3    H227358   1.264   2.443   7.963
 1055TIP3   OH227359   0.681   2.259   7.718
 1055TIP3    H127360   0.679   2.343   7.673
 1055TIP3    H227361   0.656   2.195   7.652
 1056TIP3   OH227362   1.428   2.346   7.713
 1056TIP3    H127363   1.475   2.287   7.772
 1056TIP3    H227364   1.490   2.366   7.643
 1057TIP3   OH227365   0.339   2.502   7.818
 1057TIP3    H127366   0.397   2.435   7.855
 1057TIP3    H227367   0.355   2.498   7.724
 1058TIP3   OH227368   0.733   2.704   7.798
 1058TIP3    H127369   0.826   2.700   7.816
 1058TIP3    H227370   0.717   2.632   7.736
 1059TIP3   OH227371   1.796   2.403   8.304
 1059TIP3    H127372   1.739   2.474   8.275
 1059TIP3    H227373   1.876   2.448   8.334
 1060TIP3   OH227374   0.510   2.216   8.186
 1060TIP3    H127375   0.500   2.255   8.100
 1060TIP3    H227376   0.435   2.247   8.236
 1061TIP3   OH227377   1.189   3.129   7.550
 1061TIP3    H127378   1.145   3.141   7.466
 1061TIP3    H227379   1.138   3.183   7.611
 1062TIP3   OH227380   0.669   2.995   8.162
 1062TIP3    H127381   0.623   3.065   8.208
 1062TIP3    H227382   0.747   3.037   8.126
 1063TIP3   OH227383   1.587   2.211   7.889
 1063TIP3    H127384   1.675   2.176   7.870
 1063TIP3    H227385   1.604   2.290   7.940
 1064TIP3   OH227386   0.520   2.324   7.932
 1064TIP3    H127387   0.569   2.396   7.970
 1064TIP3    H227388   0.575   2.292   7.860
 1065TIP3   OH227389   0.570   3.220   8.295
 1065TIP3    H127390   0.611   3.289   8.242
 1065TIP3    H227391   0.482   3.252   8.312
 1066TIP3   OH227392   0.080   3.077   7.509
 1066TIP3    H127393   0.132   3.047   7.583
 1066TIP3    H227394   0.112   3.166   7.491
 1067TIP3   OH227395   1.478   3.372   8.127
 1067TIP3    H127396   1.396   3.340   8.087
 1067TIP3    H227397   1.497   3.454   8.081
 1068TIP3   OH227398   1.588   2.050   8.231
 1068TIP3    H127399   1.515   2.100   8.194
 1068TIP3    H227400   1.666   2.088   8.191
 1069TIP3   OH227401   0.680   1.869   7.915
 1069TIP3    H127402   0.705   1.778   7.931
 1069TIP3    H227403   0.652   1.902   8.000
 1070TIP3   OH227404   1.347   3.428   7.663
 1070TIP3    H127405   1.369   3.339   7.635
 1070TIP3    H227406   1.431   3.474   7.666
 1071TIP3   OH227407   1.456   3.181   7.591
 1071TIP3    H127408   1.370   3.149   7.563
 1071TIP3    H227409   1.462   3.157   7.683
 1072TIP3   OH227410   1.619   3.121   8.408
 1072TIP3    H127411   1.605   3.082   8.321
 1072TIP3    H227412   1.625   3.215   8.392
 1073TIP3   OH227413   1.043   2.753   7.373
 1073TIP3    H127414   0.982   2.825   7.358
 1073TIP3    H227415   1.015   2.685   7.313
 1074TIP3   OH227416   0.989   2.545   7.205
 1074TIP3    H127417   1.059   2.496   7.161
 1074TIP3    H227418   0.934   2.578   7.134
 1075TIP3   OH227419   1.760   2.834   8.185
 1075TIP3    H127420   1.705   2.911   8.168
 1075TIP3    H227421   1.825   2.835   8.114
 1076TIP3   OH227422   1.503   2.815   7.429
 1076TIP3    H127423   1.423   2.848   7.470
 1076TIP3    H227424   1.554   2.778   7.502
 1077TIP3   OH227425   1.400   2.640   8.430
 1077TIP3    H127426   1.384   2.720   8.480
 1077TIP3    H227427   1.327   2.636   8.368
 1078TIP3   OH227428   0.558   2.871   7.629
 1078TIP3    H127429   0.539   2.830   7.545
 1078TIP3    H227430   0.626   2.816   7.668
 1079TIP3   OH227431   0.704   3.203   7.913
 1079TIP3    H127432   0.737   3.238   7.830
 1079TIP3    H227433   0.781   3.164   7.954
 1080TIP3   OH227434   0.565   2.791   8.003
 1080TIP3    H127435   0.626   2.776   7.931
 1080TIP3    H227436   0.605   2.861   8.054
 1081TIP3   OH227437   1.163   3.407   8.294
 1081TIP3    H127438   1.216   3.485   8.277
 1081TIP3    H227439   1.168   3.356   8.213
 1082TIP3   OH227440   0.699   3.222   8.542
 1082TIP3    H127441   0.639   3.287   8.577
 1082TIP3    H227442   0.668   3.205   8.453
 1083TIP3   OH227443   1.305   2.685   7.273
 1083TIP3    H127444   1.362   2.737   7.329
 1083TIP3    H227445   1.218   2.723   7.286
 1084TIP3   OH227446   0.452   2.873   8.541
 1084TIP3    H127447   0.456   2.966   8.564
 1084TIP3    H227448   0.360   2.856   8.524
 1085TIP3   OH227449   1.082   3.320   7.725
 1085TIP3    H127450   1.102   3.298   7.816
 1085TIP3    H227451   1.155   3.375   7.698
 1086TIP3   OH227452   0.521   3.433   8.600
 1086TIP3    H127453   0.579   3.484   8.543
 1086TIP3    H227454   0.442   3.419   8.548
 1087TIP3   OH227455   1.664   1.902   7.256
 1087TIP3    H127456   1.581   1.942   7.231
 1087TIP3    H227457   1.720   1.975   7.282
 1088TIP3   OH227458   0.499   2.721   7.397
 1088TIP3    H127459   0.535   2.704   7.310
 1088TIP3    H227460   0.456   2.640   7.422
 1089TIP3   OH227461   0.179   3.063   8.368
 1089TIP3    H127462   0.085   3.070   8.352
 1089TIP3    H227463   0.188   2.985   8.424
 1090TIP3   OH227464   0.209   3.372   8.003
 1090TIP3    H127465   0.276   3.306   7.984
 1090TIP3    H227466   0.237   3.410   8.087
 1091TIP3   OH227467   1.887   3.450   8.666
 1091TIP3    H127468   1.880   3.359   8.639
 1091TIP3    H227469   1.798   3.474   8.693
 1092TIP3   OH227470   0.952   3.323   8.586
 1092TIP3    H127471   0.938   3.417   8.591
 1092TIP3    H227472   0.865   3.287   8.566
 1093TIP3   OH227473   1.020   3.704   7.483
 1093TIP3    H127474   0.968   3.686   7.405
 1093TIP3    H227475   1.001   3.795   7.506
 1094TIP3   OH227476   0.458   3.605   7.722
 1094TIP3    H127477   0.487   3.559   7.801
 1094TIP3    H227478   0.363   3.596   7.722
 1095TIP3   OH227479   1.281   3.678   7.561
 1095TIP3    H127480   1.190   3.680   7.532
 1095TIP3    H227481   1.297   3.586   7.584
 1096TIP3   OH227482   1.603   2.546   8.606
 1096TIP3    H127483   1.542   2.585   8.543
 1096TIP3    H227484   1.607   2.453   8.581
 1097TIP3   OH227485   0.314   3.289   8.444
 1097TIP3    H127486   0.360   3.243   8.515
 1097TIP3    H227487   0.262   3.221   8.401
 1098TIP3   OH227488   1.013   2.040   8.431
 1098TIP3    H127489   1.053   1.980   8.494
 1098TIP3    H227490   0.919   2.028   8.442
 1099TIP3   OH227491   1.349   2.357   8.462
 1099TIP3    H127492   1.308   2.355   8.548
 1099TIP3    H227493   1.358   2.450   8.442
 1100TIP3   OH227494   1.037   2.088   7.234
 1100TIP3    H127495   0.998   2.087   7.321
 1100TIP3    H227496   1.119   2.136   7.244
 1101TIP3   OH227497   0.627   2.527   8.082
 1101TIP3    H127498   0.570   2.519   8.159
 1101TIP3    H227499   0.613   2.616   8.051
 1102TIP3   OH227500   0.652   2.511   7.607
 1102TIP3    H127501   0.559   2.514   7.585
 1102TIP3    H227502   0.697   2.515   7.522
 1103TIP3   OH227503   1.100   2.534   7.543
 1103TIP3    H127504   1.070   2.613   7.498
 1103TIP3    H227505   1.182   2.510   7.500
 1104TIP3   OH227506   1.011   2.566   8.563
 1104TIP3    H127507   0.982   2.498   8.623
 1104TIP3    H227508   1.093   2.599   8.601
 1105TIP3   OH227509   1.221   2.501   7.788
 1105TIP3    H127510   1.172   2.521   7.708
 1105TIP3    H227511   1.289   2.439   7.759
 1106TIP3   OH227512   0.451   2.512   8.294
 1106TIP3    H127513   0.493   2.549   8.371
 1106TIP3    H227514   0.394   2.443   8.329
 1107TIP3   OH227515   0.769   2.154   7.143
 1107TIP3    H127516   0.743   2.229   7.196
 1107TIP3    H227517   0.861   2.140   7.164
 1108TIP3   OH227518   0.047   2.264   7.740
 1108TIP3    H127519  -0.031   2.253   7.687
 1108TIP3    H227520   0.088   2.344   7.708
 1109TIP3   OH227521   1.195   2.588   8.257
 1109TIP3    H127522   1.233   2.532   8.189
 1109TIP3    H227523   1.107   2.552   8.272
 1110TIP3   OH227524   0.930   2.247   7.837
 1110TIP3    H127525   0.840   2.245   7.804
 1110TIP3    H227526   0.927   2.310   7.910
 1111TIP3   OH227527   0.376   2.492   7.537
 1111TIP3    H127528   0.281   2.495   7.536
 1111TIP3    H227529   0.398   2.410   7.492
 1112TIP3   OH227530   0.750   2.523   7.351
 1112TIP3    H127531   0.837   2.522   7.311
 1112TIP3    H227532   0.694   2.564   7.285
 1113TIP3   OH227533   1.356   2.166   8.128
 1113TIP3    H127534   1.272   2.182   8.171
 1113TIP3    H227535   1.336   2.104   8.058
 1114TIP3   OH227536   1.612   3.788   8.708
 1114TIP3    H127537   1.642   3.793   8.618
 1114TIP3    H227538   1.679   3.835   8.758
 1115TIP3   OH227539   0.405   3.133   8.649
 1115TIP3    H127540   0.472   3.118   8.716
 1115TIP3    H227541   0.322   3.127   8.696
 1116TIP3   OH227542   1.007   2.642   7.912
 1116TIP3    H127543   1.083   2.605   7.867
 1116TIP3    H227544   0.966   2.567   7.956
 1117TIP3   OH227545   0.882   2.432   8.044
 1117TIP3    H127546   0.793   2.465   8.053
 1117TIP3    H227547   0.916   2.430   8.133
 1118TIP3   OH227548   0.857   2.950   7.319
 1118TIP3    H127549   0.784   2.940   7.259
 1118TIP3    H227550   0.820   2.994   7.395
 1119TIP3   OH227551   1.578   3.043   8.146
 1119TIP3    H127552   1.574   3.127   8.100
 1119TIP3    H227553   1.517   2.987   8.098
 1120TIP3   OH227554   1.047   3.057   8.533
 1120TIP3    H127555   1.078   3.027   8.619
 1120TIP3    H227556   1.022   3.148   8.547
 1121TIP3   OH227557   1.342   2.463   7.433
 1121TIP3    H127558   1.436   2.458   7.448
 1121TIP3    H227559   1.333   2.522   7.358
 1122TIP3   OH227560   0.383   2.931   7.833
 1122TIP3    H127561   0.435   2.922   7.753
 1122TIP3    H227562   0.435   2.886   7.900
 1123TIP3   OH227563   1.055   3.150   7.317
 1123TIP3    H127564   1.040   3.212   7.246
 1123TIP3    H227565   0.992   3.079   7.301
 1124TIP3   OH227566   0.180   2.825   8.517
 1124TIP3    H127567   0.201   2.756   8.580
 1124TIP3    H227568   0.094   2.801   8.483
 1125TIP3   OH227569   0.857   2.795   8.630
 1125TIP3    H127570   0.818   2.825   8.548
 1125TIP3    H227571   0.912   2.721   8.604
 1126TIP3   OH227572   1.226   3.319   8.542
 1126TIP3    H127573   1.203   3.336   8.451
 1126TIP3    H227574   1.142   3.320   8.589
 1127TIP3   OH227575   1.791   2.537   7.295
 1127TIP3    H127576   1.750   2.503   7.216
 1127TIP3    H227577   1.821   2.624   7.271
 1128TIP3   OH227578   1.850   3.199   8.569
 1128TIP3    H127579   1.757   3.180   8.554
 1128TIP3    H227580   1.895   3.162   8.493
 1129TIP3   OH227581   1.647   3.290   7.411
 1129TIP3    H127582   1.578   3.259   7.471
 1129TIP3    H227583   1.707   3.216   7.403
 1130TIP3   OH227584   1.415   2.880   7.997
 1130TIP3    H127585   1.326   2.864   8.026
 1130TIP3    H227586   1.437   2.803   7.944
 1131TIP3   OH227587   0.807   3.312   7.682
 1131TIP3    H127588   0.902   3.314   7.688
 1131TIP3    H227589   0.782   3.400   7.656
 1132TIP3   OH227590   0.743   3.074   7.533
 1132TIP3    H127591   0.759   3.154   7.583
 1132TIP3    H227592   0.671   3.031   7.579
 1133TIP3   OH227593   0.909   3.519   8.272
 1133TIP3    H127594   0.948   3.601   8.242
 1133TIP3    H227595   0.984   3.462   8.291
 1134TIP3   OH227596   0.717   3.576   7.614
 1134TIP3    H127597   0.626   3.587   7.642
 1134TIP3    H227598   0.760   3.658   7.639
 1135TIP3   OH227599   1.006   2.954   8.278
 1135TIP3    H127600   1.039   2.993   8.359
 1135TIP3    H227601   1.085   2.927   8.231
 1136TIP3   OH227602   1.424   3.505   8.510
 1136TIP3    H127603   1.358   3.440   8.535
 1136TIP3    H227604   1.377   3.567   8.454
 1137TIP3   OH227605   1.790   3.723   7.133
 1137TIP3    H127606   1.873   3.754   7.096
 1137TIP3    H227607   1.791   3.755   7.223
 1138TIP3   OH227608   0.291   2.275   8.353
 1138TIP3    H127609   0.243   2.293   8.433
 1138TIP3    H227610   0.249   2.197   8.317
 1139TIP3   OH227611   0.275   3.494   8.250
 1139TIP3    H127612   0.287   3.429   8.320
 1139TIP3    H227613   0.275   3.578   8.296
 1140TIP3   OH227614   0.750   3.240   7.014
 1140TIP3    H127615   0.836   3.265   7.048
 1140TIP3    H227616   0.737   3.299   6.940
 1141TIP3   OH227617   0.591   3.283   7.245
 1141TIP3    H127618   0.644   3.255   7.170
 1141TIP3    H227619   0.650   3.335   7.299
 1142TIP3   OH227620   1.148   2.243   8.309
 1142TIP3    H127621   1.225   2.267   8.360
 1142TIP3    H227622   1.109   2.169   8.356
 1143TIP3   OH227623   1.261   2.195   7.484
 1143TIP3    H127624   1.271   2.185   7.389
 1143TIP3    H227625   1.285   2.286   7.501
 1144TIP3   OH227626   0.952   3.359   7.159
 1144TIP3    H127627   0.903   3.390   7.235
 1144TIP3    H227628   0.977   3.439   7.112
 1145TIP3   OH227629   0.954   2.296   7.559
 1145TIP3    H127630   0.996   2.379   7.536
 1145TIP3    H227631   0.951   2.296   7.654
 1146TIP3   OH227632   0.956   2.438   8.314
 1146TIP3    H127633   0.966   2.482   8.398
 1146TIP3    H227634   1.020   2.368   8.316
 1147TIP3   OH227635   1.145   2.090   7.720
 1147TIP3    H127636   1.087   2.157   7.756
 1147TIP3    H227637   1.186   2.132   7.644
 1148TIP3   OH227638   0.759   3.473   7.358
 1148TIP3    H127639   0.812   3.542   7.318
 1148TIP3    H227640   0.749   3.500   7.449
 1149TIP3   OH227641   1.619   2.298   8.490
 1149TIP3    H127642   1.529   2.292   8.460
 1149TIP3    H227643   1.669   2.320   8.412
 1150TIP3   OH227644   1.467   2.642   7.858
 1150TIP3    H127645   1.383   2.604   7.832
 1150TIP3    H227646   1.511   2.572   7.905
 1151TIP3   OH227647   0.370   3.167   7.129
 1151TIP3    H127648   0.429   3.212   7.189
 1151TIP3    H227649   0.427   3.110   7.077
 1152TIP3   OH227650   1.596   3.631   8.067
 1152TIP3    H127651   1.587   3.674   7.982
 1152TIP3    H227652   1.691   3.630   8.083
 1153TIP3   OH227653   0.162   3.336   7.439
 1153TIP3    H127654   0.107   3.415   7.432
 1153TIP3    H227655   0.245   3.368   7.473
 1154TIP3   OH227656   0.122   3.684   8.762
 1154TIP3    H127657   0.191   3.673   8.827
 1154TIP3    H227658   0.123   3.603   8.711
 1155TIP3   OH227659   0.534   3.471   8.872
 1155TIP3    H127660   0.614   3.424   8.895
 1155TIP3    H227661   0.525   3.459   8.777
 1156TIP3   OH227662   1.200   3.371   8.901
 1156TIP3    H127663   1.211   3.278   8.921
 1156TIP3    H227664   1.290   3.405   8.895
 1157TIP3   OH227665   0.198   3.075   8.817
 1157TIP3    H127666   0.252   3.002   8.845
 1157TIP3    H227667   0.113   3.035   8.797
 1158TIP3   OH227668   0.575   3.036   7.011
 1158TIP3    H127669   0.646   3.099   7.005
 1158TIP3    H227670   0.614   2.953   6.985
 1159TIP3   OH227671   0.791   3.056   8.740
 1159TIP3    H127672   0.771   3.106   8.661
 1159TIP3    H227673   0.833   2.977   8.708
 1160TIP3   OH227674   1.382   3.089   8.559
 1160TIP3    H127675   1.454   3.115   8.503
 1160TIP3    H227676   1.322   3.163   8.558
 1161TIP3   OH227677   0.274   2.650   8.716
 1161TIP3    H127678   0.357   2.606   8.734
 1161TIP3    H227679   0.261   2.709   8.791
 1162TIP3   OH227680   0.602   2.652   8.481
 1162TIP3    H127681   0.546   2.722   8.514
 1162TIP3    H227682   0.672   2.697   8.434
 1163TIP3   OH227683   1.147   2.939   8.773
 1163TIP3    H127684   1.216   2.896   8.722
 1163TIP3    H227685   1.103   2.868   8.819
 1164TIP3   OH227686   0.686   2.420   8.609
 1164TIP3    H127687   0.694   2.362   8.533
 1164TIP3    H227688   0.668   2.506   8.571
 1165TIP3   OH227689   0.715   2.291   8.364
 1165TIP3    H127690   0.787   2.343   8.328
 1165TIP3    H227691   0.653   2.283   8.293
 1166TIP3   OH227692   0.777   2.831   8.363
 1166TIP3    H127693   0.864   2.861   8.337
 1166TIP3    H227694   0.717   2.878   8.304
 1167TIP3   OH227695   1.238   2.630   8.719
 1167TIP3    H127696   1.258   2.537   8.720
 1167TIP3    H227697   1.321   2.673   8.699
 1168TIP3   OH227698   1.422   2.836   8.635
 1168TIP3    H127699   1.394   2.924   8.611
 1168TIP3    H227700   1.516   2.835   8.617
 1169TIP3   OH227701   0.478   2.449   8.789
 1169TIP3    H127702   0.424   2.370   8.781
 1169TIP3    H227703   0.546   2.439   8.722
 1170TIP3   OH227704   0.735   2.018   8.403
 1170TIP3    H127705   0.726   2.113   8.395
 1170TIP3    H227706   0.702   1.983   8.320
 1171TIP3   OH227707   0.937   2.369   8.739
 1171TIP3    H127708   0.932   2.324   8.823
 1171TIP3    H227709   0.846   2.374   8.709
 1172TIP3   OH227710   1.222   2.356   8.706
 1172TIP3    H127711   1.127   2.345   8.716
 1172TIP3    H227712   1.260   2.286   8.759
 1173TIP3   OH227713   1.320   2.155   8.866
 1173TIP3    H127714   1.316   2.063   8.838
 1173TIP3    H227715   1.277   2.156   8.951
 1174TIP3   OH227716   0.332   2.211   8.794
 1174TIP3    H127717   0.366   2.129   8.757
 1174TIP3    H227718   0.322   2.192   8.887
 1175TIP3   OH227719   0.664   1.903   8.643
 1175TIP3    H127720   0.729   1.832   8.646
 1175TIP3    H227721   0.680   1.946   8.559
 1176TIP3   OH227722   0.769   2.017   8.876
 1176TIP3    H127723   0.735   1.974   8.797
 1176TIP3    H227724   0.711   2.092   8.889
 1177TIP3   OH227725   0.112   3.197   7.206
 1177TIP3    H127726   0.132   3.251   7.282
 1177TIP3    H227727   0.197   3.177   7.167
 1178TIP3   OH227728   0.044   3.791   7.575
 1178TIP3    H127729  -0.050   3.780   7.593
 1178TIP3    H227730   0.087   3.755   7.653
 1179TIP3   OH227731   0.187   3.583   7.819
 1179TIP3    H127732   0.191   3.498   7.863
 1179TIP3    H227733   0.223   3.644   7.882
 1180TIP3   OH227734   1.861   3.645   8.145
 1180TIP3    H127735   1.873   3.599   8.228
 1180TIP3    H227736   1.949   3.658   8.111
 1181TIP3   OH227737   1.866   3.507   8.389
 1181TIP3    H127738   1.785   3.458   8.371
 1181TIP3    H227739   1.879   3.497   8.483
 1182TIP3   OH227740   1.677   3.175   8.847
 1182TIP3    H127741   1.598   3.172   8.900
 1182TIP3    H227742   1.726   3.250   8.881
 1183TIP3   OH227743   1.828   3.080   7.399
 1183TIP3    H127744   1.915   3.119   7.389
 1183TIP3    H227745   1.841   3.009   7.462
 1184TIP3   OH227746   1.863   2.823   7.552
 1184TIP3    H127747   1.783   2.787   7.590
 1184TIP3    H227748   1.925   2.826   7.624
 1185TIP3   OH227749   1.934   3.086   8.092
 1185TIP3    H127750   1.948   3.007   8.040
 1185TIP3    H227751   1.979   3.155   8.045
 1186TIP3   OH227752   1.621   3.390   8.357
 1186TIP3    H127753   1.555   3.433   8.410
 1186TIP3    H227754   1.581   3.384   8.270
 1187TIP3   OH227755   1.879   2.800   7.277
 1187TIP3    H127756   1.966   2.834   7.257
 1187TIP3    H227757   1.871   2.811   7.372
 1188TIP3   OH227758   1.635   2.689   7.637
 1188TIP3    H127759   1.630   2.600   7.603
 1188TIP3    H227760   1.583   2.686   7.718
 1189TIP3   OH227761   0.118   2.870   8.154
 1189TIP3    H127762   0.155   2.944   8.203
 1189TIP3    H227763   0.190   2.807   8.147
 1190TIP3   OH227764   1.682   2.898   8.565
 1190TIP3    H127765   1.760   2.866   8.520
 1190TIP3    H227766   1.655   2.975   8.515
 1191TIP3   OH227767   1.877   2.573   8.546
 1191TIP3    H127768   1.787   2.565   8.578
 1191TIP3    H227769   1.920   2.493   8.576
 1192TIP3   OH227770   1.615   2.447   7.496
 1192TIP3    H127771   1.644   2.357   7.512
 1192TIP3    H227772   1.671   2.477   7.425
 1193TIP3   OH227773   1.622   2.460   8.007
 1193TIP3    H127774   1.710   2.490   7.987
 1193TIP3    H227775   1.603   2.497   8.094
 1194TIP3   OH227776   1.619   2.603   8.248
 1194TIP3    H127777   1.542   2.628   8.299
 1194TIP3    H227778   1.658   2.686   8.222
 1195TIP3   OH227779   0.142   2.252   8.595
 1195TIP3    H127780   0.202   2.263   8.668
 1195TIP3    H227781   0.134   2.157   8.584
 1196TIP3   OH227782   1.858   1.971   8.816
 1196TIP3    H127783   1.927   1.911   8.787
 1196TIP3    H227784   1.850   2.034   8.744
 1197TIP3   OH227785   1.667   2.187   7.554
 1197TIP3    H127786   1.704   2.146   7.632
 1197TIP3    H227787   1.597   2.127   7.527
 1198TIP3   OH227788   0.159   2.488   8.031
 1198TIP3    H127789   0.208   2.472   7.951
 1198TIP3    H227790   0.205   2.560   8.074
 1199TIP3   OH227791   1.798   2.128   8.602
 1199TIP3    H127792   1.730   2.191   8.580
 1199TIP3    H227793   1.787   2.057   8.540
 1200TIP3   OH227794   1.961   2.079   6.993
 1200TIP3    H127795   1.995   2.075   7.083
 1200TIP3    H227796   1.946   2.172   6.977
 1201TIP3   OH227797   1.579   3.563   7.663
 1201TIP3    H127798   1.660   3.553   7.613
 1201TIP3    H227799   1.598   3.634   7.725
 1202TIP3   OH227800   0.164   2.016   8.311
 1202TIP3    H127801   0.163   2.003   8.406
 1202TIP3    H227802   0.072   2.011   8.285
 1203TIP3   OH227803   0.132   3.458   8.608
 1203TIP3    H127804   0.184   3.397   8.556
 1203TIP3    H227805   0.047   3.416   8.616
 1204TIP3   OH227806   0.673   3.556   8.416
 1204TIP3    H127807   0.640   3.631   8.368
 1204TIP3    H227808   0.759   3.539   8.378
 1205TIP3   OH227809   0.918   3.598   8.638
 1205TIP3    H127810   0.933   3.570   8.728
 1205TIP3    H227811   0.997   3.648   8.616
 1206TIP3   OH227812   1.147   3.742   8.581
 1206TIP3    H127813   1.197   3.712   8.505
 1206TIP3    H227814   1.213   3.751   8.651
 1207TIP3   OH227815   1.719   1.920   8.442
 1207TIP3    H127816   1.666   1.953   8.370
 1207TIP3    H227817   1.740   1.830   8.417
 1208TIP3   OH227818   0.286   3.763   8.326
 1208TIP3    H127819   0.242   3.827   8.271
 1208TIP3    H227820   0.271   3.794   8.416
 1209TIP3   OH227821   0.565   3.774   8.289
 1209TIP3    H127822   0.470   3.768   8.292
 1209TIP3    H227823   0.585   3.796   8.198
 1210TIP3   OH227824   1.041   3.753   8.198
 1210TIP3    H127825   1.008   3.780   8.113
 1210TIP3    H227826   1.027   3.830   8.254
 1211TIP3   OH227827   1.275   3.675   8.340
 1211TIP3    H127828   1.204   3.701   8.282
 1211TIP3    H227829   1.351   3.724   8.309
 1212TIP3   OH227830   1.511   3.799   8.265
 1212TIP3    H127831   1.538   3.886   8.236
 1212TIP3    H227832   1.533   3.741   8.192
 1213TIP3   OH227833   0.327   3.679   8.033
 1213TIP3    H127834   0.300   3.643   8.118
 1213TIP3    H227835   0.401   3.624   8.007
 1214TIP3   OH227836   0.503   3.476   7.959
 1214TIP3    H127837   0.474   3.386   7.943
 1214TIP3    H227838   0.577   3.467   8.020
 1215TIP3   OH227839   0.704   3.398   8.130
 1215TIP3    H127840   0.744   3.338   8.068
 1215TIP3    H227841   0.777   3.440   8.174
 1216TIP3   OH227842   0.925   2.000   7.977
 1216TIP3    H127843   0.849   1.960   7.935
 1216TIP3    H227844   0.940   2.080   7.927
 1217TIP3   OH227845   1.557   1.905   7.856
 1217TIP3    H127846   1.620   1.976   7.841
 1217TIP3    H227847   1.478   1.949   7.886
 1218TIP3   OH227848   1.785   2.052   7.767
 1218TIP3    H127849   1.818   1.964   7.745
 1218TIP3    H227850   1.862   2.108   7.759
 1219TIP3   OH227851   0.603   1.840   7.636
 1219TIP3    H127852   0.606   1.926   7.595
 1219TIP3    H227853   0.638   1.853   7.724
 1220TIP3   OH227854   1.295   1.980   7.934
 1220TIP3    H127855   1.241   2.010   7.861
 1220TIP3    H227856   1.272   1.887   7.944
 1221TIP3   OH227857   1.471   2.013   7.491
 1221TIP3    H127858   1.388   2.061   7.495
 1221TIP3    H227859   1.451   1.927   7.530
 1222TIP3   OH227860   7.695   3.567   7.405
 1222TIP3    H127861   7.600   3.555   7.402
 1222TIP3    H227862   7.708   3.647   7.457
 1223TIP3   OH227863   0.852   2.067   7.453
 1223TIP3    H127864   0.758   2.071   7.472
 1223TIP3    H227865   0.887   2.150   7.485
 1224TIP3   OH227866   0.926   3.645   7.228
 1224TIP3    H127867   1.021   3.653   7.227
 1224TIP3    H227868   0.900   3.665   7.138
 1225TIP3   OH227869   1.796   3.515   7.485
 1225TIP3    H127870   1.742   3.442   7.455
 1225TIP3    H227871   1.875   3.511   7.430
 1226TIP3   OH227872   0.166   1.976   8.582
 1226TIP3    H127873   0.116   1.902   8.616
 1226TIP3    H227874   0.251   1.969   8.624
 1227TIP3   OH227875   0.400   1.946   8.726
 1227TIP3    H127876   0.490   1.925   8.699
 1227TIP3    H227877   0.370   1.867   8.771
 1228TIP3   OH227878   1.339   1.889   8.779
 1228TIP3    H127879   1.340   1.843   8.863
 1228TIP3    H227880   1.430   1.888   8.749
 1229TIP3   OH227881   1.623   3.515   8.700
 1229TIP3    H127882   1.556   3.498   8.634
 1229TIP3    H227883   1.620   3.610   8.715
 1230TIP3   OH227884   3.149   3.050   7.557
 1230TIP3    H127885   3.118   3.141   7.551
 1230TIP3    H227886   3.071   2.998   7.539
 1231TIP3   OH227887   2.948   2.791   8.013
 1231TIP3    H127888   2.984   2.748   8.091
 1231TIP3    H227889   2.905   2.721   7.964
 1232TIP3   OH227890   2.175   2.724   8.171
 1232TIP3    H127891   2.166   2.635   8.204
 1232TIP3    H227892   2.261   2.725   8.127
 1233TIP3   OH227893   2.387   3.243   8.019
 1233TIP3    H127894   2.356   3.156   7.993
 1233TIP3    H227895   2.479   3.245   7.995
 1234TIP3   OH227896   1.980   2.555   7.499
 1234TIP3    H127897   1.957   2.645   7.523
 1234TIP3    H227898   1.914   2.530   7.434
 1235TIP3   OH227899   2.072   2.778   7.734
 1235TIP3    H127900   2.089   2.691   7.769
 1235TIP3    H227901   2.139   2.790   7.666
 1236TIP3   OH227902   3.088   3.673   7.770
 1236TIP3    H127903   3.102   3.646   7.679
 1236TIP3    H227904   3.032   3.605   7.807
 1237TIP3   OH227905   2.839   3.045   8.059
 1237TIP3    H127906   2.870   2.962   8.023
 1237TIP3    H227907   2.915   3.080   8.106
 1238TIP3   OH227908   3.628   2.179   8.110
 1238TIP3    H127909   3.651   2.255   8.164
 1238TIP3    H227910   3.678   2.191   8.029
 1239TIP3   OH227911   3.148   2.494   8.047
 1239TIP3    H127912   3.154   2.399   8.055
 1239TIP3    H227913   3.149   2.510   7.953
 1240TIP3   OH227914   2.440   2.397   7.848
 1240TIP3    H127915   2.454   2.452   7.770
 1240TIP3    H227916   2.473   2.311   7.822
 1241TIP3   OH227917   3.317   2.364   7.627
 1241TIP3    H127918   3.365   2.316   7.694
 1241TIP3    H227919   3.267   2.296   7.580
 1242TIP3   OH227920   2.122   2.535   7.857
 1242TIP3    H127921   2.174   2.491   7.925
 1242TIP3    H227922   2.151   2.494   7.775
 1243TIP3   OH227923   2.561   2.702   7.832
 1243TIP3    H127924   2.645   2.663   7.855
 1243TIP3    H227925   2.529   2.649   7.759
 1244TIP3   OH227926   3.663   2.356   8.327
 1244TIP3    H127927   3.619   2.440   8.315
 1244TIP3    H227928   3.727   2.371   8.397
 1245TIP3   OH227929   2.337   2.187   8.220
 1245TIP3    H127930   2.306   2.250   8.156
 1245TIP3    H227931   2.271   2.187   8.289
 1246TIP3   OH227932   2.617   2.938   8.189
 1246TIP3    H127933   2.565   3.013   8.218
 1246TIP3    H227934   2.692   2.976   8.144
 1247TIP3   OH227935   3.470   2.290   7.852
 1247TIP3    H127936   3.458   2.217   7.913
 1247TIP3    H227937   3.485   2.366   7.908
 1248TIP3   OH227938   2.273   2.395   8.052
 1248TIP3    H127939   2.321   2.446   8.118
 1248TIP3    H227940   2.334   2.388   7.978
 1249TIP3   OH227941   2.450   3.145   8.274
 1249TIP3    H127942   2.432   3.191   8.191
 1249TIP3    H227943   2.366   3.145   8.320
 1250TIP3   OH227944   2.094   3.182   7.399
 1250TIP3    H127945   2.142   3.235   7.335
 1250TIP3    H227946   2.108   3.227   7.482
 1251TIP3   OH227947   3.367   2.114   8.210
 1251TIP3    H127948   3.297   2.156   8.160
 1251TIP3    H227949   3.448   2.141   8.166
 1252TIP3   OH227950   2.764   1.940   7.994
 1252TIP3    H127951   2.755   1.908   7.904
 1252TIP3    H227952   2.676   1.971   8.017
 1253TIP3   OH227953   3.524   3.140   8.387
 1253TIP3    H127954   3.496   3.082   8.316
 1253TIP3    H227955   3.508   3.228   8.354
 1254TIP3   OH227956   2.948   2.879   7.463
 1254TIP3    H127957   2.859   2.880   7.429
 1254TIP3    H227958   3.003   2.861   7.387
 1255TIP3   OH227959   2.795   2.524   7.120
 1255TIP3    H127960   2.828   2.547   7.207
 1255TIP3    H227961   2.772   2.431   7.128
 1256TIP3   OH227962   3.639   2.822   8.280
 1256TIP3    H127963   3.564   2.875   8.254
 1256TIP3    H227964   3.704   2.836   8.211
 1257TIP3   OH227965   3.389   2.961   7.455
 1257TIP3    H127966   3.306   2.987   7.495
 1257TIP3    H227967   3.427   2.899   7.517
 1258TIP3   OH227968   3.255   2.643   8.434
 1258TIP3    H127969   3.251   2.717   8.494
 1258TIP3    H227970   3.192   2.665   8.365
 1259TIP3   OH227971   2.409   2.908   7.722
 1259TIP3    H127972   2.358   2.871   7.651
 1259TIP3    H227973   2.466   2.837   7.751
 1260TIP3   OH227974   2.656   3.243   7.961
 1260TIP3    H127975   2.650   3.243   7.865
 1260TIP3    H227976   2.724   3.178   7.981
 1261TIP3   OH227977   2.436   2.770   8.066
 1261TIP3    H127978   2.473   2.743   7.982
 1261TIP3    H227979   2.501   2.828   8.104
 1262TIP3   OH227980   3.249   3.309   8.194
 1262TIP3    H127981   3.186   3.381   8.193
 1262TIP3    H227982   3.194   3.230   8.192
 1263TIP3   OH227983   2.629   3.203   8.482
 1263TIP3    H127984   2.556   3.254   8.517
 1263TIP3    H227985   2.596   3.168   8.399
 1264TIP3   OH227986   3.128   2.811   7.268
 1264TIP3    H127987   3.154   2.726   7.303
 1264TIP3    H227988   3.210   2.857   7.253
 1265TIP3   OH227989   2.185   2.794   8.445
 1265TIP3    H127990   2.190   2.788   8.349
 1265TIP3    H227991   2.092   2.808   8.463
 1266TIP3   OH227992   2.401   3.344   8.546
 1266TIP3    H127993   2.436   3.424   8.507
 1266TIP3    H227994   2.334   3.314   8.485
 1267TIP3   OH227995   2.257   2.802   7.515
 1267TIP3    H127996   2.206   2.844   7.446
 1267TIP3    H227997   2.326   2.755   7.468
 1268TIP3   OH227998   3.924   3.278   7.207
 1268TIP3    H127999   3.832   3.275   7.181
 1268TIP3    H228000   3.964   3.341   7.146
 1269TIP3   OH228001   1.969   3.072   8.359
 1269TIP3    H128002   1.948   3.082   8.266
 1269TIP3    H228003   1.950   2.980   8.378
 1270TIP3   OH228004   2.101   3.293   8.014
 1270TIP3    H128005   2.192   3.265   8.004
 1270TIP3    H228006   2.098   3.335   8.099
 1271TIP3   OH228007   3.625   3.394   8.573
 1271TIP3    H128008   3.578   3.371   8.494
 1271TIP3    H228009   3.560   3.438   8.628
 1272TIP3   OH228010   2.869   3.334   8.492
 1272TIP3    H128011   2.849   3.417   8.536
 1272TIP3    H228012   2.785   3.289   8.486
 1273TIP3   OH228013   2.867   3.849   7.350
 1273TIP3    H128014   2.927   3.791   7.303
 1273TIP3    H228015   2.924   3.904   7.403
 1274TIP3   OH228016   2.321   3.566   7.686
 1274TIP3    H128017   2.331   3.546   7.779
 1274TIP3    H228018   2.266   3.496   7.652
 1275TIP3   OH228019   3.409   2.475   8.683
 1275TIP3    H128020   3.413   2.415   8.609
 1275TIP3    H228021   3.422   2.420   8.760
 1276TIP3   OH228022   2.205   3.195   8.416
 1276TIP3    H128023   2.215   3.161   8.505
 1276TIP3    H228024   2.127   3.151   8.382
 1277TIP3   OH228025   2.497   2.023   8.047
 1277TIP3    H128026   2.497   2.047   7.954
 1277TIP3    H228027   2.439   2.086   8.088
 1278TIP3   OH228028   2.906   2.029   8.415
 1278TIP3    H128029   2.952   1.974   8.478
 1278TIP3    H228030   2.813   2.016   8.435
 1279TIP3   OH228031   3.185   2.371   8.474
 1279TIP3    H128032   3.145   2.362   8.561
 1279TIP3    H228033   3.210   2.463   8.468
 1280TIP3   OH228034   2.447   2.539   8.210
 1280TIP3    H128035   2.430   2.565   8.301
 1280TIP3    H228036   2.449   2.621   8.162
 1281TIP3   OH228037   2.445   2.564   7.627
 1281TIP3    H128038   2.355   2.532   7.617
 1281TIP3    H228039   2.490   2.534   7.548
 1282TIP3   OH228040   2.986   2.630   7.585
 1282TIP3    H128041   2.964   2.721   7.565
 1282TIP3    H228042   3.049   2.606   7.517
 1283TIP3   OH228043   2.903   2.583   8.618
 1283TIP3    H128044   2.860   2.512   8.667
 1283TIP3    H228045   2.991   2.587   8.654
 1284TIP3   OH228046   3.169   2.542   7.777
 1284TIP3    H128047   3.096   2.574   7.724
 1284TIP3    H228048   3.213   2.478   7.720
 1285TIP3   OH228049   2.169   2.493   8.336
 1285TIP3    H128050   2.220   2.528   8.410
 1285TIP3    H228051   2.167   2.399   8.351
 1286TIP3   OH228052   2.000   2.211   7.741
 1286TIP3    H128053   2.021   2.234   7.831
 1286TIP3    H228054   2.085   2.203   7.698
 1287TIP3   OH228055   1.955   2.307   7.231
 1287TIP3    H128056   2.039   2.328   7.190
 1287TIP3    H228057   1.915   2.393   7.246
 1288TIP3   OH228058   3.058   2.661   8.238
 1288TIP3    H128059   3.098   2.603   8.174
 1288TIP3    H228060   2.983   2.611   8.271
 1289TIP3   OH228061   2.779   2.317   7.769
 1289TIP3    H128062   2.702   2.260   7.761
 1289TIP3    H228063   2.845   2.262   7.811
 1290TIP3   OH228064   2.201   2.440   7.613
 1290TIP3    H128065   2.124   2.468   7.562
 1290TIP3    H228066   2.210   2.346   7.593
 1291TIP3   OH228067   2.545   2.468   7.390
 1291TIP3    H128068   2.632   2.447   7.423
 1291TIP3    H228069   2.523   2.395   7.332
 1292TIP3   OH228070   3.131   2.219   8.085
 1292TIP3    H128071   3.066   2.234   8.154
 1292TIP3    H228072   3.079   2.185   8.012
 1293TIP3   OH228073   3.477   3.798   8.744
 1293TIP3    H128074   3.483   3.837   8.657
 1293TIP3    H228075   3.562   3.815   8.784
 1294TIP3   OH228076   2.216   3.104   8.677
 1294TIP3    H128077   2.255   3.019   8.700
 1294TIP3    H228078   2.128   3.101   8.715
 1295TIP3   OH228079   2.784   2.557   7.921
 1295TIP3    H128080   2.798   2.493   7.851
 1295TIP3    H228081   2.755   2.505   7.996
 1296TIP3   OH228082   2.250   2.159   7.615
 1296TIP3    H128083   2.218   2.069   7.623
 1296TIP3    H228084   2.338   2.157   7.652
 1297TIP3   OH228085   2.689   2.426   8.150
 1297TIP3    H128086   2.601   2.463   8.161
 1297TIP3    H228087   2.741   2.468   8.218
 1298TIP3   OH228088   2.689   2.875   7.370
 1298TIP3    H128089   2.610   2.825   7.350
 1298TIP3    H228090   2.661   2.941   7.433
 1299TIP3   OH228091   3.448   2.988   8.172
 1299TIP3    H128092   3.499   3.036   8.107
 1299TIP3    H228093   3.372   2.956   8.124
 1300TIP3   OH228094   2.981   3.061   8.472
 1300TIP3    H128095   2.993   3.024   8.559
 1300TIP3    H228096   2.947   3.149   8.487
 1301TIP3   OH228097   3.175   2.568   7.399
 1301TIP3    H128098   3.264   2.575   7.433
 1301TIP3    H228099   3.174   2.485   7.351
 1302TIP3   OH228100   2.304   2.995   7.959
 1302TIP3    H128101   2.326   2.977   7.868
 1302TIP3    H228102   2.327   2.916   8.006
 1303TIP3   OH228103   1.903   2.810   8.419
 1303TIP3    H128104   1.900   2.722   8.458
 1303TIP3    H228105   1.858   2.801   8.335
 1304TIP3   OH228106   2.740   2.803   8.632
 1304TIP3    H128107   2.697   2.799   8.546
 1304TIP3    H228108   2.809   2.738   8.627
 1305TIP3   OH228109   3.141   3.352   8.533
 1305TIP3    H128110   3.052   3.341   8.499
 1305TIP3    H228111   3.132   3.348   8.628
 1306TIP3   OH228112   3.718   2.527   7.258
 1306TIP3    H128113   3.625   2.511   7.241
 1306TIP3    H228114   3.759   2.441   7.244
 1307TIP3   OH228115   3.756   3.098   8.531
 1307TIP3    H128116   3.675   3.109   8.481
 1307TIP3    H228117   3.822   3.078   8.466
 1308TIP3   OH228118   3.232   2.880   8.032
 1308TIP3    H128119   3.142   2.862   8.004
 1308TIP3    H228120   3.285   2.820   7.981
 1309TIP3   OH228121   2.575   3.286   7.698
 1309TIP3    H128122   2.600   3.376   7.675
 1309TIP3    H228123   2.495   3.270   7.648
 1310TIP3   OH228124   2.599   3.039   7.567
 1310TIP3    H128125   2.625   3.121   7.610
 1310TIP3    H228126   2.534   3.001   7.626
 1311TIP3   OH228127   2.756   3.506   8.284
 1311TIP3    H128128   2.811   3.580   8.259
 1311TIP3    H228129   2.817   3.441   8.320
 1312TIP3   OH228130   2.592   3.549   7.621
 1312TIP3    H128131   2.499   3.571   7.636
 1312TIP3    H228132   2.635   3.634   7.616
 1313TIP3   OH228133   3.080   3.081   8.208
 1313TIP3    H128134   3.054   3.061   8.297
 1313TIP3    H228135   3.131   3.005   8.180
 1314TIP3   OH228136   3.269   3.588   8.475
 1314TIP3    H128137   3.211   3.513   8.466
 1314TIP3    H228138   3.274   3.625   8.387
 1315TIP3   OH228139   3.800   3.886   7.290
 1315TIP3    H128140   3.844   3.805   7.262
 1315TIP3    H228141   3.757   3.918   7.211
 1316TIP3   OH228142   2.164   2.225   8.439
 1316TIP3    H128143   2.096   2.266   8.492
 1316TIP3    H228144   2.170   2.135   8.472
 1317TIP3   OH228145   3.340   2.985   7.185
 1317TIP3    H128146   3.369   2.985   7.276
 1317TIP3    H228147   3.352   3.075   7.156
 1318TIP3   OH228148   2.101   3.417   8.263
 1318TIP3    H128149   2.142   3.352   8.321
 1318TIP3    H228150   2.021   3.443   8.309
 1319TIP3   OH228151   2.544   3.331   7.233
 1319TIP3    H128152   2.604   3.281   7.178
 1319TIP3    H228153   2.601   3.385   7.288
 1320TIP3   OH228154   2.130   2.928   7.297
 1320TIP3    H128155   2.117   3.016   7.332
 1320TIP3    H228156   2.190   2.941   7.223
 1321TIP3   OH228157   2.977   2.280   8.321
 1321TIP3    H128158   3.059   2.298   8.367
 1321TIP3    H228159   2.952   2.192   8.351
 1322TIP3   OH228160   3.178   2.191   7.460
 1322TIP3    H128161   3.211   2.222   7.375
 1322TIP3    H228162   3.202   2.098   7.461
 1323TIP3   OH228163   2.786   2.446   7.521
 1323TIP3    H128164   2.852   2.511   7.541
 1323TIP3    H228165   2.783   2.390   7.599
 1324TIP3   OH228166   2.846   2.521   8.355
 1324TIP3    H128167   2.865   2.542   8.447
 1324TIP3    H228168   2.886   2.435   8.341
 1325TIP3   OH228169   2.968   2.033   7.624
 1325TIP3    H128170   2.940   2.075   7.543
 1325TIP3    H228171   3.054   1.997   7.604
 1326TIP3   OH228172   2.718   3.486   7.379
 1326TIP3    H128173   2.811   3.463   7.385
 1326TIP3    H228174   2.691   3.503   7.469
 1327TIP3   OH228175   3.451   2.276   8.494
 1327TIP3    H128176   3.361   2.275   8.461
 1327TIP3    H228177   3.505   2.290   8.416
 1328TIP3   OH228178   3.379   2.688   7.882
 1328TIP3    H128179   3.305   2.637   7.848
 1328TIP3    H228180   3.432   2.624   7.929
 1329TIP3   OH228181   2.259   3.353   7.253
 1329TIP3    H128182   2.353   3.338   7.251
 1329TIP3    H228183   2.236   3.374   7.162
 1330TIP3   OH228184   2.178   2.363   7.073
 1330TIP3    H128185   2.250   2.309   7.106
 1330TIP3    H228186   2.214   2.452   7.071
 1331TIP3   OH228187   3.509   3.613   8.030
 1331TIP3    H128188   3.510   3.655   7.944
 1331TIP3    H228189   3.600   3.611   8.057
 1332TIP3   OH228190   2.162   1.992   7.942
 1332TIP3    H128191   2.172   1.975   7.848
 1332TIP3    H228192   2.172   1.906   7.983
 1333TIP3   OH228193   2.125   3.383   7.605
 1333TIP3    H128194   2.068   3.414   7.676
 1333TIP3    H228195   2.095   3.431   7.528
 1334TIP3   OH228196   2.015   3.688   8.749
 1334TIP3    H128197   2.057   3.651   8.827
 1334TIP3    H228198   1.970   3.614   8.708
 1335TIP3   OH228199   2.498   3.469   8.804
 1335TIP3    H128200   2.572   3.424   8.844
 1335TIP3    H228201   2.534   3.509   8.725
 1336TIP3   OH228202   3.109   3.340   8.807
 1336TIP3    H128203   3.105   3.254   8.848
 1336TIP3    H228204   3.182   3.384   8.852
 1337TIP3   OH228205   1.969   3.091   8.793
 1337TIP3    H128206   1.913   3.019   8.821
 1337TIP3    H228207   1.920   3.135   8.724
 1338TIP3   OH228208   2.711   3.071   8.711
 1338TIP3    H128209   2.697   3.110   8.625
 1338TIP3    H228210   2.742   2.982   8.693
 1339TIP3   OH228211   3.300   3.119   8.554
 1339TIP3    H128212   3.379   3.130   8.501
 1339TIP3    H228213   3.247   3.196   8.534
 1340TIP3   OH228214   2.252   2.841   8.762
 1340TIP3    H128215   2.222   2.790   8.687
 1340TIP3    H228216   2.206   2.804   8.837
 1341TIP3   OH228217   2.461   2.712   7.305
 1341TIP3    H128218   2.489   2.628   7.341
 1341TIP3    H228219   2.498   2.714   7.217
 1342TIP3   OH228220   2.410   2.634   8.470
 1342TIP3    H128221   2.342   2.701   8.476
 1342TIP3    H228222   2.490   2.683   8.453
 1343TIP3   OH228223   2.569   2.668   7.051
 1343TIP3    H128224   2.601   2.731   6.987
 1343TIP3    H228225   2.645   2.613   7.071
 1344TIP3   OH228226   3.031   2.932   8.729
 1344TIP3    H128227   3.112   2.897   8.692
 1344TIP3    H228228   2.995   2.859   8.780
 1345TIP3   OH228229   2.518   2.402   8.582
 1345TIP3    H128230   2.538   2.345   8.507
 1345TIP3    H228231   2.485   2.482   8.542
 1346TIP3   OH228232   2.570   2.259   8.347
 1346TIP3    H128233   2.628   2.292   8.277
 1346TIP3    H228234   2.490   2.233   8.301
 1347TIP3   OH228235   2.648   2.739   8.379
 1347TIP3    H128236   2.717   2.679   8.352
 1347TIP3    H228237   2.647   2.807   8.311
 1348TIP3   OH228238   3.150   2.575   8.752
 1348TIP3    H128239   3.125   2.483   8.755
 1348TIP3    H228240   3.241   2.574   8.724
 1349TIP3   OH228241   3.285   2.859   8.628
 1349TIP3    H128242   3.277   2.951   8.602
 1349TIP3    H228243   3.378   2.840   8.620
 1350TIP3   OH228244   2.351   2.399   8.804
 1350TIP3    H128245   2.283   2.334   8.788
 1350TIP3    H228246   2.402   2.401   8.723
 1351TIP3   OH228247   2.631   2.006   8.438
 1351TIP3    H128248   2.614   2.097   8.411
 1351TIP3    H228249   2.577   1.954   8.379
 1352TIP3   OH228250   2.754   2.382   8.740
 1352TIP3    H128251   2.717   2.358   8.825
 1352TIP3    H228252   2.680   2.385   8.680
 1353TIP3   OH228253   3.056   2.324   8.721
 1353TIP3    H128254   2.964   2.303   8.737
 1353TIP3    H228255   3.105   2.256   8.766
 1354TIP3   OH228256   3.214   2.149   8.864
 1354TIP3    H128257   3.215   2.057   8.838
 1354TIP3    H228258   3.189   2.147   8.957
 1355TIP3   OH228259   2.162   2.200   8.793
 1355TIP3    H128260   2.170   2.126   8.732
 1355TIP3    H228261   2.183   2.163   8.878
 1356TIP3   OH228262   2.612   1.883   8.679
 1356TIP3    H128263   2.668   1.807   8.668
 1356TIP3    H228264   2.611   1.925   8.593
 1357TIP3   OH228265   2.724   2.059   8.858
 1357TIP3    H128266   2.694   2.000   8.789
 1357TIP3    H228267   2.668   2.136   8.848
 1358TIP3   OH228268   1.912   3.687   7.668
 1358TIP3    H128269   1.873   3.639   7.594
 1358TIP3    H228270   1.933   3.619   7.731
 1359TIP3   OH228271   2.012   3.493   7.840
 1359TIP3    H128272   2.018   3.406   7.881
 1359TIP3    H228273   2.042   3.554   7.908
 1360TIP3   OH228274   3.774   3.619   8.093
 1360TIP3    H128275   3.791   3.684   8.161
 1360TIP3    H228276   3.851   3.622   8.037
 1361TIP3   OH228277   3.630   3.635   8.404
 1361TIP3    H128278   3.582   3.583   8.339
 1361TIP3    H228279   3.661   3.571   8.468
 1362TIP3   OH228280   3.573   3.197   8.860
 1362TIP3    H128281   3.492   3.184   8.908
 1362TIP3    H228282   3.615   3.271   8.903
 1363TIP3   OH228283   3.808   3.088   7.536
 1363TIP3    H128284   3.898   3.093   7.502
 1363TIP3    H228285   3.798   2.996   7.560
 1364TIP3   OH228286   3.774   2.817   7.608
 1364TIP3    H128287   3.680   2.806   7.626
 1364TIP3    H228288   3.815   2.813   7.694
 1365TIP3   OH228289   3.655   3.125   8.044
 1365TIP3    H128290   3.716   3.052   8.053
 1365TIP3    H228291   3.710   3.203   8.056
 1366TIP3   OH228292   3.452   3.406   8.349
 1366TIP3    H128293   3.398   3.467   8.399
 1366TIP3    H228294   3.394   3.373   8.280
 1367TIP3   OH228295   3.499   2.768   7.635
 1367TIP3    H128296   3.482   2.693   7.579
 1367TIP3    H228297   3.458   2.747   7.719
 1368TIP3   OH228298   1.976   2.826   7.998
 1368TIP3    H128299   2.011   2.825   7.909
 1368TIP3    H228300   2.050   2.797   8.052
 1369TIP3   OH228301   3.558   2.838   8.612
 1369TIP3    H128302   3.591   2.748   8.612
 1369TIP3    H228303   3.614   2.884   8.551
 1370TIP3   OH228304   3.656   2.581   8.612
 1370TIP3    H128305   3.570   2.547   8.638
 1370TIP3    H228306   3.712   2.503   8.608
 1371TIP3   OH228307   3.445   2.550   7.470
 1371TIP3    H128308   3.415   2.476   7.522
 1371TIP3    H228309   3.466   2.513   7.385
 1372TIP3   OH228310   3.535   2.499   8.030
 1372TIP3    H128311   3.631   2.499   8.036
 1372TIP3    H228312   3.506   2.519   8.119
 1373TIP3   OH228313   3.501   2.578   8.302
 1373TIP3    H128314   3.418   2.596   8.346
 1373TIP3    H228315   3.546   2.663   8.299
 1374TIP3   OH228316   1.984   2.329   8.626
 1374TIP3    H128317   2.040   2.300   8.698
 1374TIP3    H228318   1.916   2.263   8.619
 1375TIP3   OH228319   3.758   1.974   8.804
 1375TIP3    H128320   3.834   1.923   8.778
 1375TIP3    H228321   3.741   2.032   8.729
 1376TIP3   OH228322   2.055   2.230   8.013
 1376TIP3    H128323   2.097   2.145   7.997
 1376TIP3    H228324   2.127   2.290   8.031
 1377TIP3   OH228325   1.869   2.566   7.971
 1377TIP3    H128326   1.946   2.531   7.927
 1377TIP3    H228327   1.887   2.659   7.982
 1378TIP3   OH228328   3.654   2.117   8.591
 1378TIP3    H128329   3.578   2.173   8.577
 1378TIP3    H228330   3.642   2.044   8.530
 1379TIP3   OH228331   1.829   2.101   7.347
 1379TIP3    H128332   1.781   2.135   7.422
 1379TIP3    H228333   1.865   2.178   7.304
 1380TIP3   OH228334   1.967   1.985   8.316
 1380TIP3    H128335   1.888   1.955   8.363
 1380TIP3    H228336   1.934   2.049   8.253
 1381TIP3   OH228337   2.150   3.407   8.760
 1381TIP3    H128338   2.061   3.416   8.725
 1381TIP3    H228339   2.153   3.467   8.834
 1382TIP3   OH228340   2.525   3.554   8.432
 1382TIP3    H128341   2.494   3.638   8.399
 1382TIP3    H228342   2.605   3.536   8.382
 1383TIP3   OH228343   2.840   3.582   8.624
 1383TIP3    H128344   2.852   3.552   8.714
 1383TIP3    H228345   2.915   3.637   8.606
 1384TIP3   OH228346   3.066   3.741   8.600
 1384TIP3    H128347   3.139   3.697   8.556
 1384TIP3    H228348   3.103   3.771   8.683
 1385TIP3   OH228349   3.591   1.890   8.445
 1385TIP3    H128350   3.512   1.884   8.391
 1385TIP3    H228351   3.636   1.807   8.431
 1386TIP3   OH228352   2.212   3.913   8.411
 1386TIP3    H128353   2.119   3.902   8.388
 1386TIP3    H228354   2.215   3.895   8.505
 1387TIP3   OH228355   2.448   3.797   8.324
 1387TIP3    H128356   2.364   3.835   8.350
 1387TIP3    H228357   2.454   3.814   8.230
 1388TIP3   OH228358   2.896   3.724   8.194
 1388TIP3    H128359   2.842   3.761   8.125
 1388TIP3    H228360   2.909   3.796   8.255
 1389TIP3   OH228361   3.104   3.544   8.214
 1389TIP3    H128362   3.029   3.602   8.198
 1389TIP3    H228363   3.180   3.600   8.200
 1390TIP3   OH228364   3.336   3.693   8.225
 1390TIP3    H128365   3.362   3.785   8.230
 1390TIP3    H228366   3.389   3.657   8.154
 1391TIP3   OH228367   2.138   3.614   8.067
 1391TIP3    H128368   2.131   3.557   8.143
 1391TIP3    H228369   2.220   3.589   8.025
 1392TIP3   OH228370   2.367   3.512   7.957
 1392TIP3    H128371   2.364   3.418   7.975
 1392TIP3    H228372   2.457   3.538   7.978
 1393TIP3   OH228373   2.634   3.513   8.035
 1393TIP3    H128374   2.651   3.426   7.998
 1393TIP3    H228375   2.668   3.509   8.124
 1394TIP3   OH228376   2.954   2.125   7.889
 1394TIP3    H128377   2.894   2.061   7.927
 1394TIP3    H228378   2.971   2.092   7.801
 1395TIP3   OH228379   3.538   1.977   7.843
 1395TIP3    H128380   3.616   2.033   7.848
 1395TIP3    H228381   3.497   2.000   7.760
 1396TIP3   OH228382   3.737   2.174   7.839
 1396TIP3    H128383   3.804   2.165   7.771
 1396TIP3    H228384   3.677   2.240   7.805
 1397TIP3   OH228385   2.146   1.906   7.671
 1397TIP3    H128386   2.052   1.889   7.668
 1397TIP3    H228387   2.186   1.821   7.656
 1398TIP3   OH228388   2.068   1.998   7.260
 1398TIP3    H128389   2.135   2.061   7.284
 1398TIP3    H228390   1.987   2.033   7.297
 1399TIP3   OH228391   2.745   1.903   7.721
 1399TIP3    H128392   2.824   1.940   7.681
 1399TIP3    H228393   2.682   1.975   7.718
 1400TIP3   OH228394   2.058   3.516   7.376
 1400TIP3    H128395   2.116   3.466   7.319
 1400TIP3    H228396   2.083   3.607   7.362
 1401TIP3   OH228397   2.257   2.180   7.332
 1401TIP3    H128398   2.338   2.216   7.297
 1401TIP3    H228399   2.268   2.182   7.427
 1402TIP3   OH228400   2.906   2.142   7.362
 1402TIP3    H128401   2.992   2.182   7.377
 1402TIP3    H228402   2.858   2.206   7.309
 1403TIP3   OH228403   3.052   3.691   7.220
 1403TIP3    H128404   3.128   3.710   7.165
 1403TIP3    H228405   3.069   3.603   7.254
 1404TIP3   OH228406   3.650   3.738   7.472
 1404TIP3    H128407   3.695   3.796   7.410
 1404TIP3    H228408   3.588   3.796   7.517
 1405TIP3   OH228409   2.190   1.978   8.622
 1405TIP3    H128410   2.127   1.911   8.649
 1405TIP3    H228411   2.269   1.958   8.672
 1406TIP3   OH228412   2.373   1.907   8.816
 1406TIP3    H128413   2.458   1.889   8.777
 1406TIP3    H228414   2.345   1.823   8.853
 1407TIP3   OH228415   3.234   1.883   8.784
 1407TIP3    H128416   3.227   1.838   8.868
 1407TIP3    H228417   3.327   1.877   8.761
 1408TIP3   OH228418   3.427   3.533   8.696
 1408TIP3    H128419   3.362   3.547   8.627
 1408TIP3    H228420   3.449   3.622   8.726
 1409TIP3   OH228421   5.015   2.942   7.617
 1409TIP3    H128422   5.013   3.037   7.613
 1409TIP3    H228423   4.941   2.914   7.563
 1410TIP3   OH228424   4.887   2.833   7.999
 1410TIP3    H128425   4.907   2.779   8.075
 1410TIP3    H228426   4.837   2.775   7.941
 1411TIP3   OH228427   3.996   2.740   8.226
 1411TIP3    H128428   3.993   2.644   8.227
 1411TIP3    H228429   4.045   2.763   8.305
 1412TIP3   OH228430   5.302   3.080   7.843
 1412TIP3    H128431   5.253   3.009   7.886
 1412TIP3    H228432   5.377   3.095   7.899
 1413TIP3   OH228433   4.288   3.207   8.001
 1413TIP3    H128434   4.237   3.133   7.969
 1413TIP3    H228435   4.372   3.199   7.957
 1414TIP3   OH228436   3.878   2.591   7.480
 1414TIP3    H128437   3.831   2.663   7.522
 1414TIP3    H228438   3.820   2.562   7.410
 1415TIP3   OH228439   3.924   2.802   7.849
 1415TIP3    H128440   3.956   2.713   7.862
 1415TIP3    H228441   4.002   2.858   7.861
 1416TIP3   OH228442   4.943   3.641   7.931
 1416TIP3    H128443   4.976   3.617   7.844
 1416TIP3    H228444   4.962   3.564   7.986
 1417TIP3   OH228445   4.740   3.068   8.037
 1417TIP3    H128446   4.795   2.996   8.006
 1417TIP3    H228447   4.786   3.100   8.115
 1418TIP3   OH228448   5.639   2.171   8.162
 1418TIP3    H128449   5.620   2.252   8.209
 1418TIP3    H228450   5.713   2.193   8.105
 1419TIP3   OH228451   4.970   2.435   8.009
 1419TIP3    H128452   5.004   2.353   8.044
 1419TIP3    H228453   4.996   2.434   7.917
 1420TIP3   OH228454   4.425   2.325   7.775
 1420TIP3    H128455   4.384   2.407   7.748
 1420TIP3    H228456   4.456   2.286   7.693
 1421TIP3   OH228457   5.064   2.244   7.561
 1421TIP3    H128458   5.095   2.163   7.520
 1421TIP3    H228459   5.083   2.313   7.496
 1422TIP3   OH228460   4.016   2.533   7.894
 1422TIP3    H128461   4.093   2.489   7.930
 1422TIP3    H228462   3.999   2.489   7.810
 1423TIP3   OH228463   4.496   2.709   7.860
 1423TIP3    H128464   4.578   2.665   7.878
 1423TIP3    H228465   4.444   2.644   7.813
 1424TIP3   OH228466   5.581   2.381   8.336
 1424TIP3    H128467   5.530   2.462   8.329
 1424TIP3    H228468   5.641   2.397   8.409
 1425TIP3   OH228469   4.217   2.178   8.179
 1425TIP3    H128470   4.212   2.244   8.110
 1425TIP3    H228471   4.141   2.194   8.234
 1426TIP3   OH228472   5.006   3.211   7.553
 1426TIP3    H128473   5.032   3.186   7.464
 1426TIP3    H228474   4.946   3.285   7.540
 1427TIP3   OH228475   4.530   2.988   8.196
 1427TIP3    H128476   4.491   3.070   8.225
 1427TIP3    H228477   4.603   3.014   8.141
 1428TIP3   OH228478   4.244   2.379   7.993
 1428TIP3    H128479   4.278   2.450   8.047
 1428TIP3    H228480   4.311   2.366   7.925
 1429TIP3   OH228481   4.410   3.232   8.252
 1429TIP3    H128482   4.430   3.326   8.260
 1429TIP3    H228483   4.357   3.226   8.173
 1430TIP3   OH228484   4.059   3.143   7.412
 1430TIP3    H128485   4.017   3.192   7.341
 1430TIP3    H228486   4.090   3.210   7.473
 1431TIP3   OH228487   5.293   3.370   8.035
 1431TIP3    H128488   5.249   3.319   8.103
 1431TIP3    H228489   5.244   3.350   7.955
 1432TIP3   OH228490   5.245   2.047   8.264
 1432TIP3    H128491   5.176   2.093   8.216
 1432TIP3    H228492   5.282   2.113   8.322
 1433TIP3   OH228493   4.644   1.970   8.000
 1433TIP3    H128494   4.626   1.986   7.908
 1433TIP3    H228495   4.610   2.047   8.045
 1434TIP3   OH228496   5.056   3.546   7.692
 1434TIP3    H128497   5.096   3.465   7.722
 1434TIP3    H228498   5.120   3.583   7.630
 1435TIP3   OH228499   5.154   3.297   7.774
 1435TIP3    H128500   5.101   3.268   7.699
 1435TIP3    H228501   5.212   3.223   7.793
 1436TIP3   OH228502   5.415   3.086   8.397
 1436TIP3    H128503   5.406   3.035   8.316
 1436TIP3    H228504   5.340   3.147   8.394
 1437TIP3   OH228505   4.818   2.858   7.439
 1437TIP3    H128506   4.736   2.905   7.425
 1437TIP3    H228507   4.862   2.860   7.354
 1438TIP3   OH228508   5.575   2.777   8.212
 1438TIP3    H128509   5.504   2.840   8.197
 1438TIP3    H228510   5.621   2.772   8.129
 1439TIP3   OH228511   5.251   2.848   7.517
 1439TIP3    H128512   5.179   2.885   7.569
 1439TIP3    H228513   5.302   2.796   7.580
 1440TIP3   OH228514   5.150   2.693   8.366
 1440TIP3    H128515   5.137   2.782   8.399
 1440TIP3    H228516   5.085   2.683   8.297
 1441TIP3   OH228517   4.308   2.876   7.705
 1441TIP3    H128518   4.252   2.814   7.659
 1441TIP3    H228519   4.380   2.824   7.740
 1442TIP3   OH228520   4.552   3.229   7.909
 1442TIP3    H128521   4.568   3.223   7.814
 1442TIP3    H228522   4.621   3.175   7.948
 1443TIP3   OH228523   4.352   2.829   8.060
 1443TIP3    H128524   4.407   2.796   7.989
 1443TIP3    H228525   4.411   2.885   8.111
 1444TIP3   OH228526   4.986   3.473   8.176
 1444TIP3    H128527   5.024   3.534   8.240
 1444TIP3    H228528   5.027   3.389   8.195
 1445TIP3   OH228529   4.506   3.221   8.516
 1445TIP3    H128530   4.442   3.287   8.542
 1445TIP3    H228531   4.484   3.201   8.425
 1446TIP3   OH228532   5.084   2.699   7.357
 1446TIP3    H128533   5.137   2.760   7.408
 1446TIP3    H228534   5.037   2.753   7.295
 1447TIP3   OH228535   4.079   2.828   8.478
 1447TIP3    H128536   4.120   2.841   8.563
 1447TIP3    H228537   3.988   2.806   8.499
 1448TIP3   OH228538   4.857   3.442   7.507
 1448TIP3    H128539   4.918   3.489   7.563
 1448TIP3    H228540   4.807   3.510   7.463
 1449TIP3   OH228541   4.314   3.426   8.529
 1449TIP3    H128542   4.368   3.461   8.459
 1449TIP3    H228543   4.245   3.376   8.484
 1450TIP3   OH228544   4.123   2.701   7.571
 1450TIP3    H128545   4.140   2.755   7.495
 1450TIP3    H228546   4.041   2.655   7.550
 1451TIP3   OH228547   5.788   3.375   7.359
 1451TIP3    H128548   5.720   3.431   7.323
 1451TIP3    H228549   5.854   3.371   7.290
 1452TIP3   OH228550   3.952   3.044   8.336
 1452TIP3    H128551   3.923   3.018   8.249
 1452TIP3    H228552   4.003   2.969   8.368
 1453TIP3   OH228553   3.821   3.346   8.082
 1453TIP3    H128554   3.898   3.350   8.140
 1453TIP3    H228555   3.782   3.433   8.088
 1454TIP3   OH228556   5.665   3.428   8.648
 1454TIP3    H128557   5.655   3.340   8.611
 1454TIP3    H228558   5.577   3.452   8.676
 1455TIP3   OH228559   4.759   3.319   8.572
 1455TIP3    H128560   4.746   3.414   8.576
 1455TIP3    H228561   4.673   3.284   8.547
 1456TIP3   OH228562   4.692   3.605   7.333
 1456TIP3    H128563   4.753   3.557   7.276
 1456TIP3    H228564   4.689   3.693   7.295
 1457TIP3   OH228565   4.177   3.606   7.714
 1457TIP3    H128566   4.228   3.566   7.784
 1457TIP3    H228567   4.161   3.534   7.652
 1458TIP3   OH228568   5.349   2.569   8.662
 1458TIP3    H128569   5.312   2.657   8.661
 1458TIP3    H228570   5.298   2.521   8.596
 1459TIP3   OH228571   4.111   3.253   8.433
 1459TIP3    H128572   4.148   3.205   8.507
 1459TIP3    H228573   4.063   3.188   8.383
 1460TIP3   OH228574   4.755   1.990   8.399
 1460TIP3    H128575   4.797   1.952   8.477
 1460TIP3    H228576   4.661   1.989   8.420
 1461TIP3   OH228577   5.169   2.442   8.498
 1461TIP3    H128578   5.088   2.404   8.533
 1461TIP3    H228579   5.140   2.522   8.454
 1462TIP3   OH228580   4.327   2.578   8.166
 1462TIP3    H128581   4.286   2.584   8.252
 1462TIP3    H228582   4.324   2.667   8.131
 1463TIP3   OH228583   4.318   2.564   7.706
 1463TIP3    H128584   4.233   2.597   7.676
 1463TIP3    H228585   4.370   2.555   7.627
 1464TIP3   OH228586   4.914   2.619   7.565
 1464TIP3    H128587   4.857   2.696   7.559
 1464TIP3    H228588   4.973   2.628   7.490
 1465TIP3   OH228589   4.845   2.568   8.618
 1465TIP3    H128590   4.794   2.502   8.664
 1465TIP3    H228591   4.885   2.620   8.688
 1466TIP3   OH228592   5.043   2.453   7.746
 1466TIP3    H128593   4.998   2.518   7.692
 1466TIP3    H228594   5.055   2.378   7.688
 1467TIP3   OH228595   4.007   2.464   8.292
 1467TIP3    H128596   4.082   2.496   8.342
 1467TIP3    H228597   3.997   2.373   8.320
 1468TIP3   OH228598   4.947   2.640   8.189
 1468TIP3    H128599   4.969   2.570   8.126
 1468TIP3    H228600   4.886   2.598   8.250
 1469TIP3   OH228601   4.693   2.310   7.849
 1469TIP3    H128602   4.599   2.304   7.831
 1469TIP3    H228603   4.707   2.401   7.876
 1470TIP3   OH228604   3.978   2.396   7.661
 1470TIP3    H128605   3.940   2.444   7.588
 1470TIP3    H228606   3.954   2.305   7.646
 1471TIP3   OH228607   4.480   2.510   7.503
 1471TIP3    H128608   4.573   2.496   7.520
 1471TIP3    H228609   4.466   2.476   7.415
 1472TIP3   OH228610   5.047   2.183   8.123
 1472TIP3    H128611   4.990   2.202   8.197
 1472TIP3    H228612   4.999   2.118   8.072
 1473TIP3   OH228613   4.225   2.406   7.227
 1473TIP3    H128614   4.189   2.409   7.316
 1473TIP3    H228615   4.319   2.392   7.241
 1474TIP3   OH228616   5.427   3.808   8.723
 1474TIP3    H128617   5.432   3.813   8.627
 1474TIP3    H228618   5.515   3.829   8.753
 1475TIP3   OH228619   4.171   3.132   8.683
 1475TIP3    H128620   4.224   3.151   8.760
 1475TIP3    H228621   4.166   3.037   8.680
 1476TIP3   OH228622   4.722   2.562   7.963
 1476TIP3    H128623   4.811   2.530   7.980
 1476TIP3    H228624   4.671   2.533   8.039
 1477TIP3   OH228625   4.582   2.469   8.183
 1477TIP3    H128626   4.505   2.526   8.190
 1477TIP3    H228627   4.640   2.499   8.252
 1478TIP3   OH228628   4.602   3.011   7.364
 1478TIP3    H128629   4.651   3.091   7.343
 1478TIP3    H228630   4.533   3.040   7.424
 1479TIP3   OH228631   5.372   2.946   8.162
 1479TIP3    H128632   5.409   3.019   8.112
 1479TIP3    H228633   5.292   2.924   8.115
 1480TIP3   OH228634   4.858   3.054   8.549
 1480TIP3    H128635   4.834   2.998   8.623
 1480TIP3    H228636   4.825   3.141   8.573
 1481TIP3   OH228637   5.166   2.440   7.394
 1481TIP3    H128638   5.128   2.527   7.381
 1481TIP3    H228639   5.184   2.409   7.306
 1482TIP3   OH228640   4.157   2.962   7.916
 1482TIP3    H128641   4.203   2.946   7.834
 1482TIP3    H228642   4.207   2.912   7.981
 1483TIP3   OH228643   4.969   2.897   7.201
 1483TIP3    H128644   5.004   2.979   7.237
 1483TIP3    H228645   4.926   2.923   7.119
 1484TIP3   OH228646   3.816   2.770   8.492
 1484TIP3    H128647   3.775   2.696   8.536
 1484TIP3    H228648   3.765   2.782   8.411
 1485TIP3   OH228649   4.467   2.629   8.545
 1485TIP3    H128650   4.518   2.678   8.479
 1485TIP3    H228651   4.483   2.676   8.627
 1486TIP3   OH228652   5.036   3.351   8.569
 1486TIP3    H128653   5.067   3.304   8.492
 1486TIP3    H228654   4.942   3.333   8.572
 1487TIP3   OH228655   5.644   3.182   8.531
 1487TIP3    H128656   5.558   3.169   8.491
 1487TIP3    H228657   5.705   3.143   8.467
 1488TIP3   OH228658   5.170   2.877   7.982
 1488TIP3    H128659   5.075   2.885   7.982
 1488TIP3    H228660   5.187   2.792   7.941
 1489TIP3   OH228661   4.359   3.329   7.634
 1489TIP3    H128662   4.405   3.406   7.601
 1489TIP3    H228663   4.267   3.346   7.616
 1490TIP3   OH228664   4.396   3.077   7.531
 1490TIP3    H128665   4.387   3.162   7.573
 1490TIP3    H228666   4.365   3.015   7.597
 1491TIP3   OH228667   4.715   3.541   8.198
 1491TIP3    H128668   4.750   3.630   8.201
 1491TIP3    H228669   4.793   3.485   8.194
 1492TIP3   OH228670   4.477   3.562   7.529
 1492TIP3    H128671   4.459   3.654   7.550
 1492TIP3    H228672   4.551   3.565   7.469
 1493TIP3   OH228673   4.862   3.122   8.275
 1493TIP3    H128674   4.851   3.095   8.366
 1493TIP3    H228675   4.951   3.156   8.270
 1494TIP3   OH228676   5.066   3.141   7.291
 1494TIP3    H128677   5.161   3.143   7.278
 1494TIP3    H228678   5.031   3.190   7.217
 1495TIP3   OH228679   5.201   3.562   8.542
 1495TIP3    H128680   5.143   3.489   8.565
 1495TIP3    H228681   5.151   3.613   8.478
 1496TIP3   OH228682   5.594   3.545   7.254
 1496TIP3    H128683   5.528   3.509   7.195
 1496TIP3    H228684   5.545   3.598   7.317
 1497TIP3   OH228685   4.007   2.190   8.363
 1497TIP3    H128686   3.926   2.146   8.337
 1497TIP3    H228687   4.033   2.148   8.445
 1498TIP3   OH228688   5.335   3.050   7.347
 1498TIP3    H128689   5.299   2.990   7.412
 1498TIP3    H228690   5.428   3.027   7.341
 1499TIP3   OH228691   4.030   3.464   8.257
 1499TIP3    H128692   4.068   3.395   8.311
 1499TIP3    H228693   4.050   3.545   8.305
 1500TIP3   OH228694   4.189   2.868   7.366
 1500TIP3    H128695   4.198   2.958   7.395
 1500TIP3    H228696   4.275   2.845   7.332
 1501TIP3   OH228697   4.893   2.224   8.350
 1501TIP3    H128698   4.930   2.238   8.438
 1501TIP3    H228699   4.838   2.146   8.359
 1502TIP3   OH228700   4.742   3.246   7.325
 1502TIP3    H128701   4.782   3.309   7.386
 1502TIP3    H228702   4.799   3.248   7.248
 1503TIP3   OH228703   4.740   2.407   7.525
 1503TIP3    H128704   4.746   2.414   7.430
 1503TIP3    H228705   4.802   2.472   7.558
 1504TIP3   OH228706   4.794   2.492   8.360
 1504TIP3    H128707   4.809   2.522   8.450
 1504TIP3    H228708   4.823   2.401   8.360
 1505TIP3   OH228709   4.867   2.138   7.728
 1505TIP3    H128710   4.816   2.213   7.760
 1505TIP3    H228711   4.923   2.176   7.660
 1506TIP3   OH228712   4.487   3.599   7.127
 1506TIP3    H128713   4.549   3.656   7.081
 1506TIP3    H228714   4.529   3.581   7.211
 1507TIP3   OH228715   5.350   2.247   8.417
 1507TIP3    H128716   5.286   2.314   8.442
 1507TIP3    H228717   5.421   2.296   8.376
 1508TIP3   OH228718   5.221   2.624   7.878
 1508TIP3    H128719   5.157   2.565   7.839
 1508TIP3    H228720   5.264   2.572   7.946
 1509TIP3   OH228721   5.381   3.631   8.085
 1509TIP3    H128722   5.353   3.540   8.070
 1509TIP3    H228723   5.476   3.624   8.100
 1510TIP3   OH228724   4.083   3.372   7.588
 1510TIP3    H128725   4.023   3.365   7.662
 1510TIP3    H228726   4.032   3.418   7.521
 1511TIP3   OH228727   3.937   3.680   8.700
 1511TIP3    H128728   3.985   3.657   8.780
 1511TIP3    H228729   3.920   3.595   8.657
 1512TIP3   OH228730   4.311   3.528   8.788
 1512TIP3    H128731   4.386   3.481   8.826
 1512TIP3    H228732   4.306   3.497   8.698
 1513TIP3   OH228733   4.955   3.339   8.934
 1513TIP3    H128734   4.959   3.244   8.920
 1513TIP3    H228735   5.041   3.371   8.906
 1514TIP3   OH228736   3.871   3.060   8.800
 1514TIP3    H128737   3.902   2.987   8.854
 1514TIP3    H228738   3.860   3.023   8.712
 1515TIP3   OH228739   4.539   3.109   8.766
 1515TIP3    H128740   4.538   3.128   8.672
 1515TIP3    H228741   4.548   3.013   8.771
 1516TIP3   OH228742   5.101   2.954   8.456
 1516TIP3    H128743   5.129   3.026   8.399
 1516TIP3    H228744   5.016   2.983   8.490
 1517TIP3   OH228745   4.197   2.854   8.724
 1517TIP3    H128746   4.292   2.849   8.734
 1517TIP3    H228747   4.161   2.805   8.798
 1518TIP3   OH228748   4.439   2.807   7.267
 1518TIP3    H128749   4.487   2.733   7.230
 1518TIP3    H228750   4.507   2.866   7.298
 1519TIP3   OH228751   4.222   2.596   8.421
 1519TIP3    H128752   4.305   2.596   8.469
 1519TIP3    H228753   4.179   2.677   8.448
 1520TIP3   OH228754   4.806   2.891   8.770
 1520TIP3    H128755   4.858   2.814   8.791
 1520TIP3    H228756   4.715   2.863   8.783
 1521TIP3   OH228757   4.472   2.356   8.575
 1521TIP3    H128758   4.470   2.319   8.487
 1521TIP3    H228759   4.479   2.451   8.561
 1522TIP3   OH228760   4.454   2.256   8.311
 1522TIP3    H128761   4.503   2.319   8.259
 1522TIP3    H228762   4.374   2.241   8.262
 1523TIP3   OH228763   4.601   2.768   8.350
 1523TIP3    H128764   4.694   2.786   8.366
 1523TIP3    H228765   4.571   2.843   8.299
 1524TIP3   OH228766   5.132   2.465   8.831
 1524TIP3    H128767   5.125   2.370   8.831
 1524TIP3    H228768   5.213   2.484   8.785
 1525TIP3   OH228769   5.255   2.828   8.649
 1525TIP3    H128770   5.190   2.870   8.593
 1525TIP3    H228771   5.339   2.859   8.615
 1526TIP3   OH228772   4.262   2.399   8.753
 1526TIP3    H128773   4.180   2.359   8.725
 1526TIP3    H228774   4.324   2.380   8.682
 1527TIP3   OH228775   4.478   2.000   8.410
 1527TIP3    H128776   4.474   2.092   8.384
 1527TIP3    H228777   4.410   1.957   8.358
 1528TIP3   OH228778   4.719   2.346   8.723
 1528TIP3    H128779   4.710   2.324   8.816
 1528TIP3    H228780   4.630   2.338   8.689
 1529TIP3   OH228781   4.964   2.278   8.609
 1529TIP3    H128782   4.880   2.304   8.647
 1529TIP3    H228783   5.012   2.239   8.682
 1530TIP3   OH228784   5.098   2.180   8.838
 1530TIP3    H128785   5.087   2.086   8.821
 1530TIP3    H228786   5.054   2.194   8.922
 1531TIP3   OH228787   4.021   2.252   8.732
 1531TIP3    H128788   4.033   2.168   8.687
 1531TIP3    H228789   4.038   2.233   8.824
 1532TIP3   OH228790   4.480   1.904   8.667
 1532TIP3    H128791   4.533   1.825   8.659
 1532TIP3    H228792   4.476   1.939   8.578
 1533TIP3   OH228793   4.577   2.037   8.889
 1533TIP3    H128794   4.551   1.990   8.809
 1533TIP3    H228795   4.514   2.109   8.896
 1534TIP3   OH228796   4.713   3.764   7.091
 1534TIP3    H128797   4.784   3.703   7.074
 1534TIP3    H228798   4.738   3.844   7.044
 1535TIP3   OH228799   3.823   3.672   7.671
 1535TIP3    H128800   3.771   3.683   7.592
 1535TIP3    H228801   3.855   3.582   7.667
 1536TIP3   OH228802   3.908   3.419   7.806
 1536TIP3    H128803   3.875   3.361   7.874
 1536TIP3    H228804   3.953   3.489   7.853
 1537TIP3   OH228805   5.650   3.667   8.155
 1537TIP3    H128806   5.643   3.636   8.246
 1537TIP3    H228807   5.740   3.645   8.129
 1538TIP3   OH228808   5.610   3.574   8.411
 1538TIP3    H128809   5.537   3.517   8.390
 1538TIP3    H228810   5.654   3.531   8.485
 1539TIP3   OH228811   5.488   3.169   8.915
 1539TIP3    H128812   5.395   3.168   8.939
 1539TIP3    H228813   5.528   3.228   8.979
 1540TIP3   OH228814   5.601   2.916   7.352
 1540TIP3    H128815   5.646   2.992   7.389
 1540TIP3    H228816   5.603   2.850   7.421
 1541TIP3   OH228817   5.634   2.718   7.545
 1541TIP3    H128818   5.552   2.711   7.595
 1541TIP3    H228819   5.701   2.738   7.611
 1542TIP3   OH228820   5.500   3.143   8.025
 1542TIP3    H128821   5.595   3.130   8.029
 1542TIP3    H228822   5.488   3.237   8.032
 1543TIP3   OH228823   5.385   3.430   8.382
 1543TIP3    H128824   5.321   3.477   8.436
 1543TIP3    H228825   5.334   3.364   8.335
 1544TIP3   OH228826   5.396   2.656   7.669
 1544TIP3    H128827   5.385   2.567   7.638
 1544TIP3    H228828   5.343   2.661   7.748
 1545TIP3   OH228829   3.831   2.904   8.091
 1545TIP3    H128830   3.840   2.883   7.998
 1545TIP3    H228831   3.892   2.845   8.135
 1546TIP3   OH228832   5.509   2.898   8.568
 1546TIP3    H128833   5.577   2.851   8.520
 1546TIP3    H228834   5.481   2.967   8.509
 1547TIP3   OH228835   5.617   2.593   8.574
 1547TIP3    H128836   5.527   2.588   8.605
 1547TIP3    H228837   5.656   2.510   8.599
 1548TIP3   OH228838   5.374   2.395   7.568
 1548TIP3    H128839   5.374   2.299   7.571
 1548TIP3    H228840   5.301   2.417   7.510
 1549TIP3   OH228841   5.374   2.485   8.059
 1549TIP3    H128842   5.464   2.494   8.030
 1549TIP3    H228843   5.375   2.512   8.151
 1550TIP3   OH228844   5.402   2.588   8.316
 1550TIP3    H128845   5.317   2.626   8.338
 1550TIP3    H228846   5.455   2.663   8.289
 1551TIP3   OH228847   3.803   2.351   8.585
 1551TIP3    H128848   3.884   2.338   8.634
 1551TIP3    H228849   3.758   2.266   8.588
 1552TIP3   OH228850   5.629   1.974   8.793
 1552TIP3    H128851   5.702   1.923   8.760
 1552TIP3    H228852   5.615   2.042   8.727
 1553TIP3   OH228853   3.810   2.491   8.078
 1553TIP3    H128854   3.872   2.510   8.008
 1553TIP3    H228855   3.864   2.476   8.155
 1554TIP3   OH228856   5.522   2.166   8.622
 1554TIP3    H128857   5.465   2.193   8.694
 1554TIP3    H228858   5.465   2.169   8.545
 1555TIP3   OH228859   3.790   2.030   8.296
 1555TIP3    H128860   3.722   1.979   8.342
 1555TIP3    H228861   3.744   2.068   8.222
 1556TIP3   OH228862   3.964   3.331   8.654
 1556TIP3    H128863   3.996   3.333   8.564
 1556TIP3    H228864   4.031   3.280   8.702
 1557TIP3   OH228865   4.465   3.498   8.311
 1557TIP3    H128866   4.427   3.584   8.293
 1557TIP3    H228867   4.557   3.507   8.283
 1558TIP3   OH228868   4.732   3.599   8.620
 1558TIP3    H128869   4.743   3.575   8.712
 1558TIP3    H228870   4.802   3.663   8.604
 1559TIP3   OH228871   4.933   3.790   8.588
 1559TIP3    H128872   4.979   3.758   8.510
 1559TIP3    H228873   4.999   3.792   8.657
 1560TIP3   OH228874   5.441   1.913   8.436
 1560TIP3    H128875   5.373   1.939   8.374
 1560TIP3    H228876   5.468   1.826   8.407
 1561TIP3   OH228877   4.073   3.723   8.367
 1561TIP3    H128878   3.991   3.755   8.331
 1561TIP3    H228879   4.087   3.776   8.446
 1562TIP3   OH228880   4.339   3.740   8.276
 1562TIP3    H128881   4.249   3.730   8.307
 1562TIP3    H228882   4.330   3.775   8.187
 1563TIP3   OH228883   4.867   3.775   8.159
 1563TIP3    H128884   4.902   3.729   8.082
 1563TIP3    H228885   4.819   3.849   8.122
 1564TIP3   OH228886   5.051   3.705   8.353
 1564TIP3    H128887   4.981   3.733   8.294
 1564TIP3    H228888   5.130   3.746   8.318
 1565TIP3   OH228889   5.279   3.815   8.256
 1565TIP3    H128890   5.295   3.901   8.218
 1565TIP3    H228891   5.311   3.754   8.189
 1566TIP3   OH228892   4.034   3.583   8.007
 1566TIP3    H128893   4.031   3.543   8.093
 1566TIP3    H228894   4.119   3.559   7.972
 1567TIP3   OH228895   4.273   3.477   7.939
 1567TIP3    H128896   4.265   3.383   7.955
 1567TIP3    H228897   4.366   3.496   7.954
 1568TIP3   OH228898   4.542   3.501   7.983
 1568TIP3    H128899   4.555   3.412   7.952
 1568TIP3    H228900   4.604   3.511   8.055
 1569TIP3   OH228901   4.920   2.003   7.958
 1569TIP3    H128902   4.830   1.982   7.982
 1569TIP3    H228903   4.912   2.047   7.873
 1570TIP3   OH228904   4.609   2.033   7.740
 1570TIP3    H128905   4.563   2.071   7.665
 1570TIP3    H228906   4.700   2.059   7.728
 1571TIP3   OH228907   3.926   3.489   7.400
 1571TIP3    H128908   3.915   3.415   7.340
 1571TIP3    H228909   3.918   3.566   7.345
 1572TIP3   OH228910   4.535   2.215   7.541
 1572TIP3    H128911   4.506   2.213   7.450
 1572TIP3    H228912   4.612   2.272   7.541
 1573TIP3   OH228913   4.882   3.517   7.155
 1573TIP3    H128914   4.969   3.555   7.142
 1573TIP3    H228915   4.893   3.425   7.130
 1574TIP3   OH228916   4.070   2.013   8.591
 1574TIP3    H128917   4.023   1.944   8.637
 1574TIP3    H228918   4.156   2.016   8.634
 1575TIP3   OH228919   4.252   1.975   8.803
 1575TIP3    H128920   4.335   1.949   8.763
 1575TIP3    H228921   4.225   1.900   8.856
 1576TIP3   OH228922   5.107   1.908   8.782
 1576TIP3    H128923   5.106   1.863   8.867
 1576TIP3    H228924   5.197   1.901   8.752
 1577TIP3   OH228925   5.414   3.527   8.714
 1577TIP3    H128926   5.344   3.526   8.649
 1577TIP3    H228927   5.424   3.620   8.736
 1578TIP3   OH228928   5.981   2.804   8.087
 1578TIP3    H128929   5.905   2.752   8.060
 1578TIP3    H228930   5.949   2.894   8.089
 1579TIP3   OH228931   7.227   3.149   7.967
 1579TIP3    H128932   7.190   3.159   7.879
 1579TIP3    H228933   7.195   3.225   8.015
 1580TIP3   OH228934   6.171   3.265   8.035
 1580TIP3    H128935   6.127   3.195   7.986
 1580TIP3    H228936   6.256   3.276   7.990
 1581TIP3   OH228937   5.650   2.437   7.524
 1581TIP3    H128938   5.655   2.533   7.521
 1581TIP3    H228939   5.557   2.419   7.541
 1582TIP3   OH228940   5.837   2.745   7.731
 1582TIP3    H128941   5.860   2.658   7.766
 1582TIP3    H228942   5.921   2.788   7.718
 1583TIP3   OH228943   6.846   3.566   7.937
 1583TIP3    H128944   6.807   3.514   7.867
 1583TIP3    H228945   6.850   3.507   8.012
 1584TIP3   OH228946   6.644   3.129   7.999
 1584TIP3    H128947   6.706   3.158   7.931
 1584TIP3    H228948   6.693   3.135   8.081
 1585TIP3   OH228949   7.484   2.227   8.128
 1585TIP3    H128950   7.465   2.280   8.205
 1585TIP3    H228951   7.522   2.288   8.066
 1586TIP3   OH228952   6.869   2.394   8.026
 1586TIP3    H128953   6.928   2.319   8.034
 1586TIP3    H228954   6.781   2.356   8.028
 1587TIP3   OH228955   6.234   2.284   7.757
 1587TIP3    H128956   6.229   2.370   7.716
 1587TIP3    H228957   6.187   2.226   7.697
 1588TIP3   OH228958   7.074   2.189   7.633
 1588TIP3    H128959   7.120   2.230   7.706
 1588TIP3    H228960   7.138   2.185   7.563
 1589TIP3   OH228961   5.884   2.493   7.837
 1589TIP3    H128962   5.953   2.455   7.891
 1589TIP3    H228963   5.898   2.456   7.750
 1590TIP3   OH228964   6.338   2.700   7.767
 1590TIP3    H128965   6.302   2.711   7.855
 1590TIP3    H228966   6.282   2.634   7.726
 1591TIP3   OH228967   7.414   2.367   8.349
 1591TIP3    H128968   7.380   2.454   8.328
 1591TIP3    H228969   7.476   2.382   8.420
 1592TIP3   OH228970   6.117   2.210   8.219
 1592TIP3    H128971   6.079   2.264   8.150
 1592TIP3    H228972   6.057   2.219   8.292
 1593TIP3   OH228973   6.423   2.973   8.098
 1593TIP3    H128974   6.373   3.036   8.149
 1593TIP3    H228975   6.490   3.026   8.054
 1594TIP3   OH228976   7.184   2.286   7.863
 1594TIP3    H128977   7.132   2.242   7.931
 1594TIP3    H228978   7.237   2.350   7.910
 1595TIP3   OH228979   6.083   2.357   7.976
 1595TIP3    H128980   6.140   2.417   8.026
 1595TIP3    H228981   6.140   2.323   7.907
 1596TIP3   OH228982   6.274   3.143   8.261
 1596TIP3    H128983   6.243   3.194   8.186
 1596TIP3    H228984   6.195   3.128   8.314
 1597TIP3   OH228985   5.743   3.127   7.463
 1597TIP3    H128986   5.748   3.213   7.421
 1597TIP3    H228987   5.719   3.146   7.554
 1598TIP3   OH228988   7.140   3.364   8.110
 1598TIP3    H128989   7.045   3.378   8.116
 1598TIP3    H228990   7.175   3.449   8.083
 1599TIP3   OH228991   7.249   2.089   8.182
 1599TIP3    H128992   7.178   2.129   8.133
 1599TIP3    H228993   7.328   2.135   8.152
 1600TIP3   OH228994   6.471   1.897   7.996
 1600TIP3    H128995   6.450   1.804   7.999
 1600TIP3    H228996   6.388   1.940   8.017
 1601TIP3   OH228997   7.099   3.214   7.734
 1601TIP3    H128998   7.006   3.201   7.716
 1601TIP3    H228999   7.114   3.307   7.721
 1602TIP3   OH229000   7.186   3.090   7.507
 1602TIP3    H129001   7.100   3.093   7.467
 1602TIP3    H229002   7.175   3.132   7.592
 1603TIP3   OH229003   7.279   3.052   8.391
 1603TIP3    H129004   7.267   3.012   8.305
 1603TIP3    H229005   7.305   3.142   8.373
 1604TIP3   OH229006   7.459   2.808   8.196
 1604TIP3    H129007   7.387   2.865   8.171
 1604TIP3    H229008   7.510   2.798   8.116
 1605TIP3   OH229009   7.206   2.815   7.433
 1605TIP3    H129010   7.199   2.909   7.453
 1605TIP3    H229011   7.199   2.772   7.518
 1606TIP3   OH229012   7.074   2.667   8.439
 1606TIP3    H129013   7.030   2.738   8.485
 1606TIP3    H229014   7.013   2.642   8.370
 1607TIP3   OH229015   6.095   2.846   7.690
 1607TIP3    H129016   6.095   2.837   7.595
 1607TIP3    H229017   6.185   2.823   7.715
 1608TIP3   OH229018   6.422   3.283   7.920
 1608TIP3    H129019   6.432   3.299   7.827
 1608TIP3    H229020   6.498   3.230   7.945
 1609TIP3   OH229021   6.243   2.768   8.018
 1609TIP3    H129022   6.153   2.794   8.035
 1609TIP3    H229023   6.294   2.847   8.035
 1610TIP3   OH229024   6.870   3.397   8.167
 1610TIP3    H129025   6.862   3.458   8.240
 1610TIP3    H229026   6.828   3.317   8.197
 1611TIP3   OH229027   6.402   3.195   8.500
 1611TIP3    H129028   6.338   3.251   8.544
 1611TIP3    H229029   6.364   3.180   8.413
 1612TIP3   OH229030   6.011   2.749   8.518
 1612TIP3    H129031   6.024   2.835   8.558
 1612TIP3    H229032   5.927   2.755   8.472
 1613TIP3   OH229033   6.735   3.401   7.742
 1613TIP3    H129034   6.779   3.322   7.713
 1613TIP3    H229035   6.645   3.392   7.711
 1614TIP3   OH229036   6.213   3.361   8.612
 1614TIP3    H129037   6.232   3.429   8.546
 1614TIP3    H229038   6.118   3.363   8.622
 1615TIP3   OH229039   7.360   1.985   7.238
 1615TIP3    H129040   7.419   1.928   7.190
 1615TIP3    H229041   7.359   2.067   7.189
 1616TIP3   OH229042   6.091   2.804   7.414
 1616TIP3    H129043   6.055   2.889   7.389
 1616TIP3    H229044   6.032   2.740   7.374
 1617TIP3   OH229045   5.803   3.038   8.362
 1617TIP3    H129046   5.796   3.051   8.267
 1617TIP3    H229047   5.788   2.944   8.375
 1618TIP3   OH229048   5.808   3.375   8.043
 1618TIP3    H129049   5.797   3.282   8.024
 1618TIP3    H229050   5.857   3.378   8.125
 1619TIP3   OH229051   7.557   3.351   8.624
 1619TIP3    H129052   7.556   3.256   8.624
 1619TIP3    H229053   7.473   3.376   8.663
 1620TIP3   OH229054   6.623   3.371   8.484
 1620TIP3    H129055   6.598   3.447   8.536
 1620TIP3    H229056   6.549   3.310   8.494
 1621TIP3   OH229057   6.746   3.736   7.422
 1621TIP3    H129058   6.670   3.745   7.364
 1621TIP3    H229059   6.727   3.794   7.495
 1622TIP3   OH229060   6.074   3.579   7.705
 1622TIP3    H129061   6.074   3.567   7.800
 1622TIP3    H229062   5.995   3.534   7.675
 1623TIP3   OH229063   6.900   3.572   7.584
 1623TIP3    H129064   6.852   3.620   7.517
 1623TIP3    H229065   6.833   3.519   7.628
 1624TIP3   OH229066   7.183   2.512   8.640
 1624TIP3    H129067   7.146   2.564   8.569
 1624TIP3    H229068   7.189   2.423   8.603
 1625TIP3   OH229069   6.051   3.133   8.420
 1625TIP3    H129070   6.060   3.100   8.510
 1625TIP3    H229071   5.965   3.104   8.392
 1626TIP3   OH229072   6.219   2.009   8.053
 1626TIP3    H129073   6.149   2.002   7.988
 1626TIP3    H229074   6.193   2.084   8.106
 1627TIP3   OH229075   6.657   1.997   8.410
 1627TIP3    H129076   6.696   1.956   8.486
 1627TIP3    H229077   6.565   2.011   8.434
 1628TIP3   OH229078   6.919   2.306   8.461
 1628TIP3    H129079   6.892   2.290   8.552
 1628TIP3    H229080   6.854   2.367   8.428
 1629TIP3   OH229081   6.227   2.522   8.140
 1629TIP3    H129082   6.171   2.526   8.218
 1629TIP3    H229083   6.224   2.610   8.103
 1630TIP3   OH229084   6.192   2.516   7.620
 1630TIP3    H129085   6.101   2.497   7.598
 1630TIP3    H229086   6.238   2.514   7.536
 1631TIP3   OH229087   6.679   2.576   8.655
 1631TIP3    H129088   6.636   2.503   8.699
 1631TIP3    H229089   6.768   2.577   8.691
 1632TIP3   OH229090   6.082   2.504   8.373
 1632TIP3    H129091   6.045   2.575   8.427
 1632TIP3    H229092   6.042   2.424   8.408
 1633TIP3   OH229093   5.771   2.515   7.208
 1633TIP3    H129094   5.803   2.542   7.122
 1633TIP3    H229095   5.772   2.596   7.260
 1634TIP3   OH229096   6.903   2.584   8.233
 1634TIP3    H129097   6.901   2.519   8.162
 1634TIP3    H229098   6.832   2.557   8.291
 1635TIP3   OH229099   6.510   2.259   7.759
 1635TIP3    H129100   6.415   2.259   7.775
 1635TIP3    H229101   6.546   2.215   7.836
 1636TIP3   OH229102   5.937   2.402   7.584
 1636TIP3    H129103   5.850   2.402   7.544
 1636TIP3    H229104   5.975   2.318   7.559
 1637TIP3   OH229105   6.361   2.484   7.400
 1637TIP3    H129106   6.436   2.442   7.442
 1637TIP3    H229107   6.398   2.557   7.352
 1638TIP3   OH229108   7.016   2.160   8.047
 1638TIP3    H129109   6.964   2.132   8.122
 1638TIP3    H229110   6.997   2.096   7.979
 1639TIP3   OH229111   7.302   3.729   8.710
 1639TIP3    H129112   7.324   3.750   8.619
 1639TIP3    H229113   7.379   3.756   8.760
 1640TIP3   OH229114   6.027   2.984   8.661
 1640TIP3    H129115   6.082   2.982   8.739
 1640TIP3    H229116   5.942   3.014   8.693
 1641TIP3   OH229117   6.092   2.172   7.546
 1641TIP3    H129118   6.060   2.082   7.551
 1641TIP3    H229119   6.135   2.177   7.460
 1642TIP3   OH229120   6.471   2.524   8.264
 1642TIP3    H129121   6.394   2.518   8.208
 1642TIP3    H229122   6.481   2.618   8.281
 1643TIP3   OH229123   7.225   2.942   8.144
 1643TIP3    H129124   7.226   3.012   8.079
 1643TIP3    H229125   7.145   2.892   8.125
 1644TIP3   OH229126   6.606   3.012   8.436
 1644TIP3    H129127   6.636   2.979   8.521
 1644TIP3    H229128   6.540   3.077   8.457
 1645TIP3   OH229129   6.906   2.520   7.430
 1645TIP3    H129130   7.002   2.528   7.426
 1645TIP3    H229131   6.875   2.591   7.373
 1646TIP3   OH229132   6.074   3.052   7.894
 1646TIP3    H129133   6.070   2.991   7.820
 1646TIP3    H229134   5.985   3.054   7.928
 1647TIP3   OH229135   5.750   2.770   8.420
 1647TIP3    H129136   5.712   2.703   8.478
 1647TIP3    H229137   5.698   2.764   8.340
 1648TIP3   OH229138   6.513   2.794   8.648
 1648TIP3    H129139   6.434   2.762   8.603
 1648TIP3    H229140   6.577   2.723   8.637
 1649TIP3   OH229141   6.897   3.336   8.519
 1649TIP3    H129142   6.804   3.348   8.499
 1649TIP3    H229143   6.899   3.326   8.614
 1650TIP3   OH229144   7.445   2.556   7.389
 1650TIP3    H129145   7.495   2.484   7.349
 1650TIP3    H229146   7.507   2.628   7.393
 1651TIP3   OH229147   7.534   3.075   8.579
 1651TIP3    H129148   7.439   3.068   8.571
 1651TIP3    H229149   7.567   3.067   8.490
 1652TIP3   OH229150   7.344   3.262   7.338
 1652TIP3    H129151   7.278   3.217   7.391
 1652TIP3    H229152   7.301   3.276   7.253
 1653TIP3   OH229153   7.009   2.786   8.078
 1653TIP3    H129154   6.966   2.730   8.142
 1653TIP3    H229155   7.028   2.728   8.004
 1654TIP3   OH229156   6.472   3.349   7.660
 1654TIP3    H129157   6.426   3.431   7.644
 1654TIP3    H229158   6.466   3.302   7.577
 1655TIP3   OH229159   5.829   2.820   7.228
 1655TIP3    H129160   5.886   2.895   7.246
 1655TIP3    H229161   5.742   2.847   7.256
 1656TIP3   OH229162   6.521   3.510   8.266
 1656TIP3    H129163   6.577   3.587   8.252
 1656TIP3    H229164   6.571   3.455   8.326
 1657TIP3   OH229165   6.334   3.582   7.615
 1657TIP3    H129166   6.240   3.574   7.634
 1657TIP3    H229167   6.358   3.668   7.649
 1658TIP3   OH229168   6.777   3.138   8.249
 1658TIP3    H129169   6.710   3.099   8.305
 1658TIP3    H229170   6.860   3.110   8.288
 1659TIP3   OH229171   7.124   3.489   8.468
 1659TIP3    H129172   7.037   3.450   8.479
 1659TIP3    H229173   7.109   3.567   8.415
 1660TIP3   OH229174   7.319   3.549   7.134
 1660TIP3    H129175   7.336   3.596   7.053
 1660TIP3    H229176   7.289   3.463   7.106
 1661TIP3   OH229177   5.962   2.252   8.450
 1661TIP3    H129178   5.877   2.286   8.479
 1661TIP3    H229179   5.975   2.172   8.502
 1662TIP3   OH229180   6.002   3.359   8.247
 1662TIP3    H129181   6.056   3.323   8.176
 1662TIP3    H229182   6.014   3.298   8.319
 1663TIP3   OH229183   6.449   3.256   7.392
 1663TIP3    H129184   6.538   3.224   7.404
 1663TIP3    H229185   6.459   3.348   7.368
 1664TIP3   OH229186   5.975   3.034   7.329
 1664TIP3    H129187   5.904   3.079   7.374
 1664TIP3    H229188   6.040   3.102   7.312
 1665TIP3   OH229189   6.866   2.114   8.270
 1665TIP3    H129190   6.896   2.177   8.335
 1665TIP3    H229191   6.789   2.074   8.309
 1666TIP3   OH229192   6.836   2.277   7.530
 1666TIP3    H129193   6.863   2.360   7.492
 1666TIP3    H229194   6.916   2.239   7.566
 1667TIP3   OH229195   6.580   2.379   7.525
 1667TIP3    H129196   6.671   2.348   7.521
 1667TIP3    H229197   6.545   2.339   7.605
 1668TIP3   OH229198   6.711   2.483   8.397
 1668TIP3    H129199   6.691   2.517   8.484
 1668TIP3    H229200   6.627   2.481   8.351
 1669TIP3   OH229201   6.649   2.077   7.603
 1669TIP3    H129202   6.595   2.140   7.652
 1669TIP3    H229203   6.724   2.129   7.573
 1670TIP3   OH229204   6.457   3.530   7.371
 1670TIP3    H129205   6.477   3.612   7.325
 1670TIP3    H229206   6.409   3.556   7.449
 1671TIP3   OH229207   6.237   2.241   7.311
 1671TIP3    H129208   6.224   2.243   7.216
 1671TIP3    H229209   6.270   2.328   7.333
 1672TIP3   OH229210   7.198   2.273   8.503
 1672TIP3    H129211   7.107   2.268   8.472
 1672TIP3    H229212   7.250   2.283   8.423
 1673TIP3   OH229213   7.051   2.573   7.905
 1673TIP3    H129214   6.986   2.508   7.931
 1673TIP3    H229215   7.134   2.540   7.941
 1674TIP3   OH229216   6.195   3.201   7.274
 1674TIP3    H129217   6.274   3.223   7.323
 1674TIP3    H229218   6.227   3.156   7.196
 1675TIP3   OH229219   7.273   3.602   8.069
 1675TIP3    H129220   7.253   3.639   7.983
 1675TIP3    H229221   7.369   3.597   8.071
 1676TIP3   OH229222   5.991   1.983   7.890
 1676TIP3    H129223   5.989   1.967   7.796
 1676TIP3    H229224   5.954   1.903   7.928
 1677TIP3   OH229225   5.828   3.497   7.611
 1677TIP3    H129226   5.824   3.436   7.537
 1677TIP3    H229227   5.789   3.577   7.578
 1678TIP3   OH229228   5.770   3.609   8.835
 1678TIP3    H129229   5.860   3.588   8.858
 1678TIP3    H229230   5.746   3.544   8.769
 1679TIP3   OH229231   6.244   3.419   8.881
 1679TIP3    H129232   6.328   3.378   8.901
 1679TIP3    H229233   6.231   3.403   8.787
 1680TIP3   OH229234   6.915   3.307   8.794
 1680TIP3    H129235   6.914   3.233   8.854
 1680TIP3    H229236   6.989   3.361   8.823
 1681TIP3   OH229237   5.777   3.065   8.749
 1681TIP3    H129238   5.713   3.004   8.786
 1681TIP3    H229239   5.730   3.107   8.677
 1682TIP3   OH229240   6.249   3.038   7.050
 1682TIP3    H129241   6.284   2.976   7.115
 1682TIP3    H229242   6.178   2.989   7.007
 1683TIP3   OH229243   6.425   3.040   8.732
 1683TIP3    H129244   6.414   3.090   8.650
 1683TIP3    H229245   6.463   2.957   8.704
 1684TIP3   OH229246   6.997   3.092   8.431
 1684TIP3    H129247   7.090   3.098   8.412
 1684TIP3    H229248   6.972   3.180   8.459
 1685TIP3   OH229249   6.008   2.642   8.790
 1685TIP3    H129250   5.992   2.683   8.704
 1685TIP3    H229251   5.969   2.702   8.853
 1686TIP3   OH229252   6.311   2.854   7.244
 1686TIP3    H129253   6.243   2.838   7.309
 1686TIP3    H229254   6.387   2.805   7.276
 1687TIP3   OH229255   6.297   2.703   8.503
 1687TIP3    H129256   6.203   2.719   8.497
 1687TIP3    H229257   6.332   2.739   8.421
 1688TIP3   OH229258   6.527   2.679   7.281
 1688TIP3    H129259   6.518   2.669   7.186
 1688TIP3    H229260   6.620   2.697   7.294
 1689TIP3   OH229261   6.819   2.944   8.803
 1689TIP3    H129262   6.883   2.926   8.734
 1689TIP3    H229263   6.805   2.860   8.846
 1690TIP3   OH229264   6.356   2.442   8.581
 1690TIP3    H129265   6.346   2.381   8.508
 1690TIP3    H229266   6.337   2.528   8.543
 1691TIP3   OH229267   6.349   2.279   8.357
 1691TIP3    H129268   6.397   2.348   8.311
 1691TIP3    H229269   6.271   2.264   8.303
 1692TIP3   OH229270   6.473   2.799   8.304
 1692TIP3    H129271   6.527   2.861   8.353
 1692TIP3    H229272   6.450   2.846   8.224
 1693TIP3   OH229273   6.933   2.539   8.766
 1693TIP3    H129274   6.906   2.448   8.755
 1693TIP3    H229275   7.024   2.541   8.739
 1694TIP3   OH229276   7.028   2.892   8.621
 1694TIP3    H129277   7.005   2.961   8.558
 1694TIP3    H229278   7.123   2.885   8.615
 1695TIP3   OH229279   6.217   2.469   8.815
 1695TIP3    H129280   6.141   2.526   8.802
 1695TIP3    H229281   6.256   2.462   8.728
 1696TIP3   OH229282   6.385   2.022   8.454
 1696TIP3    H129283   6.372   2.113   8.429
 1696TIP3    H229284   6.323   1.973   8.400
 1697TIP3   OH229285   6.549   2.353   8.760
 1697TIP3    H129286   6.502   2.313   8.833
 1697TIP3    H229287   6.482   2.374   8.695
 1698TIP3   OH229288   6.823   2.293   8.720
 1698TIP3    H129289   6.730   2.293   8.742
 1698TIP3    H229290   6.862   2.230   8.780
 1699TIP3   OH229291   6.966   2.128   8.888
 1699TIP3    H129292   6.962   2.037   8.859
 1699TIP3    H229293   6.934   2.126   8.978
 1700TIP3   OH229294   5.875   2.230   8.787
 1700TIP3    H129295   5.910   2.158   8.734
 1700TIP3    H229296   5.908   2.213   8.875
 1701TIP3   OH229297   6.364   1.881   8.691
 1701TIP3    H129298   6.420   1.805   8.675
 1701TIP3    H229299   6.367   1.931   8.610
 1702TIP3   OH229300   6.465   2.008   8.912
 1702TIP3    H129301   6.436   1.957   8.837
 1702TIP3    H229302   6.411   2.087   8.911
 1703TIP3   OH229303   6.521   3.784   7.262
 1703TIP3    H129304   6.499   3.769   7.170
 1703TIP3    H229305   6.506   3.877   7.276
 1704TIP3   OH229306   5.983   3.350   7.164
 1704TIP3    H129307   6.061   3.317   7.208
 1704TIP3    H229308   5.996   3.329   7.072
 1705TIP3   OH229309   5.809   3.593   7.876
 1705TIP3    H129310   5.806   3.554   7.788
 1705TIP3    H229311   5.803   3.519   7.935
 1706TIP3   OH229312   7.548   3.600   8.142
 1706TIP3    H129313   7.543   3.568   8.232
 1706TIP3    H229314   7.568   3.693   8.151
 1707TIP3   OH229315   7.491   3.504   8.397
 1707TIP3    H129316   7.433   3.436   8.365
 1707TIP3    H229317   7.536   3.464   8.472
 1708TIP3   OH229318   7.411   3.193   8.892
 1708TIP3    H129319   7.331   3.197   8.944
 1708TIP3    H229320   7.471   3.255   8.933
 1709TIP3   OH229321   7.451   2.972   7.552
 1709TIP3    H129322   7.367   3.017   7.545
 1709TIP3    H229323   7.443   2.918   7.630
 1710TIP3   OH229324   7.430   2.782   7.750
 1710TIP3    H129325   7.339   2.753   7.752
 1710TIP3    H229326   7.454   2.790   7.842
 1711TIP3   OH229327   7.477   3.155   8.088
 1711TIP3    H129328   7.397   3.149   8.036
 1711TIP3    H229329   7.526   3.228   8.049
 1712TIP3   OH229330   7.293   3.321   8.335
 1712TIP3    H129331   7.234   3.376   8.387
 1712TIP3    H229332   7.256   3.325   8.246
 1713TIP3   OH229333   7.614   2.764   7.452
 1713TIP3    H129334   7.563   2.833   7.495
 1713TIP3    H229335   7.702   2.772   7.489
 1714TIP3   OH229336   7.184   2.666   7.679
 1714TIP3    H129337   7.181   2.597   7.613
 1714TIP3    H229338   7.134   2.632   7.753
 1715TIP3   OH229339   5.707   2.785   7.970
 1715TIP3    H129340   5.736   2.778   7.879
 1715TIP3    H229341   5.722   2.877   7.993
 1716TIP3   OH229342   7.303   2.870   8.597
 1716TIP3    H129343   7.356   2.793   8.579
 1716TIP3    H229344   7.304   2.920   8.515
 1717TIP3   OH229345   7.434   2.619   8.581
 1717TIP3    H129346   7.351   2.585   8.613
 1717TIP3    H229347   7.496   2.547   8.590
 1718TIP3   OH229348   7.184   2.494   7.461
 1718TIP3    H129349   7.193   2.401   7.438
 1718TIP3    H229350   7.262   2.536   7.425
 1719TIP3   OH229351   7.288   2.486   8.025
 1719TIP3    H129352   7.383   2.481   8.012
 1719TIP3    H229353   7.279   2.518   8.115
 1720TIP3   OH229354   7.292   2.601   8.278
 1720TIP3    H129355   7.222   2.635   8.333
 1720TIP3    H229356   7.346   2.678   8.258
 1721TIP3   OH229357   5.729   2.339   8.586
 1721TIP3    H129358   5.781   2.323   8.664
 1721TIP3    H229359   5.657   2.277   8.591
 1722TIP3   OH229360   7.526   1.945   8.786
 1722TIP3    H129361   7.597   1.893   8.749
 1722TIP3    H229362   7.514   2.017   8.723
 1723TIP3   OH229363   7.245   2.231   7.387
 1723TIP3    H129364   7.326   2.202   7.428
 1723TIP3    H229365   7.267   2.240   7.294
 1724TIP3   OH229366   5.857   2.199   7.999
 1724TIP3    H129367   5.896   2.121   7.960
 1724TIP3    H229368   5.922   2.267   7.987
 1725TIP3   OH229369   5.633   2.516   7.966
 1725TIP3    H129370   5.712   2.486   7.922
 1725TIP3    H229371   5.643   2.611   7.973
 1726TIP3   OH229372   7.403   2.175   8.669
 1726TIP3    H129373   7.347   2.187   8.746
 1726TIP3    H229374   7.344   2.188   8.595
 1727TIP3   OH229375   5.764   2.272   7.335
 1727TIP3    H129376   5.714   2.311   7.407
 1727TIP3    H229377   5.781   2.345   7.275
 1728TIP3   OH229378   7.134   3.480   7.692
 1728TIP3    H129379   7.057   3.512   7.646
 1728TIP3    H229380   7.167   3.556   7.740
 1729TIP3   OH229381   5.699   1.969   8.334
 1729TIP3    H129382   5.618   1.959   8.384
 1729TIP3    H229383   5.681   2.042   8.274
 1730TIP3   OH229384   5.945   3.380   8.679
 1730TIP3    H129385   5.860   3.397   8.638
 1730TIP3    H229386   5.924   3.351   8.768
 1731TIP3   OH229387   6.289   3.536   8.418
 1731TIP3    H129388   6.246   3.617   8.389
 1731TIP3    H229389   6.364   3.526   8.360
 1732TIP3   OH229390   6.581   3.594   8.642
 1732TIP3    H129391   6.604   3.539   8.717
 1732TIP3    H229392   6.659   3.647   8.626
 1733TIP3   OH229393   6.814   3.727   8.588
 1733TIP3    H129394   6.852   3.687   8.510
 1733TIP3    H229395   6.888   3.739   8.647
 1734TIP3   OH229396   7.366   1.876   8.436
 1734TIP3    H129397   7.291   1.868   8.376
 1734TIP3    H229398   7.412   1.793   8.427
 1735TIP3   OH229399   5.913   3.836   8.359
 1735TIP3    H129400   5.825   3.872   8.353
 1735TIP3    H229401   5.914   3.762   8.299
 1736TIP3   OH229402   6.188   3.779   8.326
 1736TIP3    H129403   6.096   3.796   8.346
 1736TIP3    H229404   6.194   3.788   8.231
 1737TIP3   OH229405   6.658   3.745   8.218
 1737TIP3    H129406   6.606   3.775   8.143
 1737TIP3    H229407   6.651   3.816   8.282
 1738TIP3   OH229408   6.884   3.632   8.332
 1738TIP3    H129409   6.813   3.671   8.282
 1738TIP3    H229410   6.963   3.672   8.297
 1739TIP3   OH229411   7.150   3.716   8.284
 1739TIP3    H129412   7.136   3.806   8.255
 1739TIP3    H229413   7.188   3.672   8.208
 1740TIP3   OH229414   5.942   3.624   8.186
 1740TIP3    H129415   5.956   3.539   8.228
 1740TIP3    H229416   5.989   3.618   8.103
 1741TIP3   OH229417   6.115   3.540   7.981
 1741TIP3    H129418   6.111   3.445   7.994
 1741TIP3    H229419   6.208   3.562   7.993
 1742TIP3   OH229420   6.391   3.536   8.026
 1742TIP3    H129421   6.406   3.455   7.977
 1742TIP3    H229422   6.430   3.520   8.112
 1743TIP3   OH229423   6.651   2.100   7.935
 1743TIP3    H129424   6.592   2.032   7.968
 1743TIP3    H229425   6.729   2.053   7.907
 1744TIP3   OH229426   7.235   1.886   7.814
 1744TIP3    H129427   7.282   1.941   7.751
 1744TIP3    H229428   7.152   1.931   7.827
 1745TIP3   OH229429   7.371   2.012   7.590
 1745TIP3    H129430   7.446   1.953   7.600
 1745TIP3    H229431   7.410   2.100   7.594
 1746TIP3   OH229432   5.995   1.912   7.616
 1746TIP3    H129433   5.927   1.877   7.560
 1746TIP3    H229434   6.054   1.838   7.632
 1747TIP3   OH229435   5.813   2.008   7.279
 1747TIP3    H129436   5.809   2.100   7.304
 1747TIP3    H229437   5.742   1.997   7.216
 1748TIP3   OH229438   6.537   1.850   7.715
 1748TIP3    H129439   6.571   1.928   7.671
 1748TIP3    H229440   6.510   1.881   7.801
 1749TIP3   OH229441   6.977   2.006   7.825
 1749TIP3    H129442   6.992   2.058   7.746
 1749TIP3    H229443   6.922   1.933   7.796
 1750TIP3   OH229444   7.072   2.010   7.368
 1750TIP3    H129445   7.113   2.096   7.366
 1750TIP3    H229446   7.044   1.994   7.278
 1751TIP3   OH229447   5.725   3.722   7.501
 1751TIP3    H129448   5.636   3.705   7.470
 1751TIP3    H229449   5.764   3.778   7.433
 1752TIP3   OH229450   7.420   3.534   7.385
 1752TIP3    H129451   7.395   3.443   7.405
 1752TIP3    H229452   7.388   3.548   7.296
 1753TIP3   OH229453   5.968   2.015   8.626
 1753TIP3    H129454   5.907   1.944   8.650
 1753TIP3    H229455   6.043   2.003   8.685
 1754TIP3   OH229456   6.134   1.942   8.834
 1754TIP3    H129457   6.216   1.914   8.793
 1754TIP3    H229458   6.095   1.861   8.868
 1755TIP3   OH229459   5.828   3.692   7.202
 1755TIP3    H129460   5.744   3.646   7.210
 1755TIP3    H229461   5.886   3.630   7.158
 1756TIP3   OH229462   7.002   1.875   8.782
 1756TIP3    H129463   7.005   1.824   8.862
 1756TIP3    H229464   7.093   1.876   8.750
 1757TIP3   OH229465   7.300   3.456   8.680
 1757TIP3    H129466   7.241   3.452   8.605
 1757TIP3    H229467   7.306   3.549   8.701
 1758TIP3   OH229468   7.504   2.530   7.651
 1758TIP3    H129469   7.486   2.612   7.699
 1758TIP3    H229470   7.469   2.545   7.564
 1759TIP3   OH229471   7.592   3.052   8.312
 1759TIP3    H129472   7.554   3.098   8.238
 1759TIP3    H229473   7.587   2.960   8.288
 1760TIP3   OH229474   7.613   3.377   7.993
 1760TIP3    H129475   7.708   3.366   7.999
 1760TIP3    H229476   7.595   3.455   8.046
 1761TIP3   OH229477   7.496   2.262   7.563
 1761TIP3    H129478   7.488   2.348   7.604
 1761TIP3    H229479   7.532   2.280   7.476
 1762TIP3   OH229480   7.610   2.765   8.426
 1762TIP3    H129481   7.553   2.712   8.483
 1762TIP3    H229482   7.567   2.763   8.341
 1763TIP3   OH229483   7.648   2.930   8.793
 1763TIP3    H129484   7.564   2.908   8.834
 1763TIP3    H229485   7.623   2.972   8.710
 1764TIP3   OH229486   7.460   3.706   7.601
 1764TIP3    H129487   7.427   3.650   7.530
 1764TIP3    H229488   7.492   3.645   7.667
 1765TIP3   OH229489   7.597   3.544   7.768
 1765TIP3    H129490   7.576   3.474   7.830
 1765TIP3    H229491   7.691   3.558   7.779
 1766TIP3   OH229492   7.625   2.766   7.972
 1766TIP3    H129493   7.683   2.750   7.897
 1766TIP3    H229494   7.681   2.809   8.036
 1767TIP3   OH229495   7.572   2.379   8.579
 1767TIP3    H129496   7.664   2.352   8.580
 1767TIP3    H229497   7.525   2.306   8.619
 1768TIP3   OH229498   7.565   2.494   8.024
 1768TIP3    H129499   7.656   2.465   8.030
 1768TIP3    H229500   7.571   2.588   8.007
 1769TIP3   OH229501   7.560   2.319   7.296
 1769TIP3    H129502   7.499   2.286   7.230
 1769TIP3    H229503   7.646   2.299   7.260
 1770TIP3   OH229504   7.570   1.995   8.258
 1770TIP3    H129505   7.501   1.983   8.322
 1770TIP3    H229506   7.542   2.072   8.207
 1771TIP3   OH229507   1.220   4.826   7.601
 1771TIP3    H129508   1.183   4.913   7.618
 1771TIP3    H229509   1.156   4.783   7.544
 1772TIP3   OH229510   1.147   4.734   8.060
 1772TIP3    H129511   1.176   4.694   8.142
 1772TIP3    H229512   1.094   4.668   8.017
 1773TIP3   OH229513   0.345   4.656   8.125
 1773TIP3    H129514   0.344   4.565   8.154
 1773TIP3    H229515   0.366   4.706   8.204
 1774TIP3   OH229516   1.494   5.067   7.871
 1774TIP3    H129517   1.460   4.988   7.913
 1774TIP3    H229518   1.501   5.130   7.943
 1775TIP3   OH229519   0.581   5.082   8.005
 1775TIP3    H129520   0.548   4.994   7.985
 1775TIP3    H229521   0.666   5.086   7.963
 1776TIP3   OH229522   0.102   4.507   7.453
 1776TIP3    H129523   0.117   4.580   7.393
 1776TIP3    H229524   0.127   4.429   7.403
 1777TIP3   OH229525   0.073   4.592   7.716
 1777TIP3    H129526   0.088   4.559   7.627
 1777TIP3    H229527  -0.006   4.645   7.708
 1778TIP3   OH229528   1.180   5.467   7.882
 1778TIP3    H129529   1.256   5.421   7.847
 1778TIP3    H229530   1.106   5.432   7.832
 1779TIP3   OH229531   1.032   4.988   8.067
 1779TIP3    H129532   1.073   4.904   8.046
 1779TIP3    H229533   1.083   5.022   8.141
 1780TIP3   OH229534   1.894   4.103   8.170
 1780TIP3    H129535   1.902   4.187   8.216
 1780TIP3    H229536   1.953   4.110   8.096
 1781TIP3   OH229537   1.265   4.424   8.034
 1781TIP3    H129538   1.261   4.334   8.066
 1781TIP3    H229539   1.222   4.421   7.948
 1782TIP3   OH229540   1.383   4.215   7.716
 1782TIP3    H129541   1.407   4.188   7.804
 1782TIP3    H229542   1.459   4.194   7.662
 1783TIP3   OH229543   1.903   4.340   8.325
 1783TIP3    H129544   1.813   4.373   8.334
 1783TIP3    H229545   1.928   4.314   8.413
 1784TIP3   OH229546   0.503   4.103   8.174
 1784TIP3    H129547   0.496   4.147   8.089
 1784TIP3    H229548   0.419   4.120   8.217
 1785TIP3   OH229549   1.047   5.055   7.559
 1785TIP3    H129550   1.079   5.053   7.468
 1785TIP3    H229551   1.062   5.145   7.588
 1786TIP3   OH229552   0.790   4.914   8.175
 1786TIP3    H129553   0.734   4.989   8.199
 1786TIP3    H229554   0.867   4.953   8.134
 1787TIP3   OH229555   1.484   4.165   7.972
 1787TIP3    H129556   1.406   4.167   8.027
 1787TIP3    H229557   1.534   4.242   7.998
 1788TIP3   OH229558   0.545   4.217   7.925
 1788TIP3    H129559   0.585   4.290   7.974
 1788TIP3    H229560   0.613   4.190   7.863
 1789TIP3   OH229561   0.624   5.138   8.273
 1789TIP3    H129562   0.622   5.232   8.291
 1789TIP3    H229563   0.594   5.130   8.182
 1790TIP3   OH229564   0.325   5.077   7.491
 1790TIP3    H129565   0.263   5.090   7.419
 1790TIP3    H229566   0.356   5.165   7.513
 1791TIP3   OH229567   1.508   5.268   8.072
 1791TIP3    H129568   1.424   5.276   8.117
 1791TIP3    H229569   1.534   5.359   8.053
 1792TIP3   OH229570   1.620   4.046   8.193
 1792TIP3    H129571   1.579   4.071   8.110
 1792TIP3    H229572   1.714   4.059   8.178
 1793TIP3   OH229573   0.888   3.843   7.962
 1793TIP3    H129574   0.868   3.828   7.869
 1793TIP3    H229575   0.803   3.856   8.003
 1794TIP3   OH229576   1.367   5.362   7.687
 1794TIP3    H129577   1.404   5.278   7.660
 1794TIP3    H229578   1.443   5.414   7.714
 1795TIP3   OH229579   1.493   5.124   7.605
 1795TIP3    H129580   1.503   5.043   7.554
 1795TIP3    H229581   1.499   5.096   7.696
 1796TIP3   OH229582   1.631   5.017   8.430
 1796TIP3    H129583   1.615   4.965   8.351
 1796TIP3    H229584   1.654   5.104   8.396
 1797TIP3   OH229585   1.043   4.715   7.422
 1797TIP3    H129586   0.966   4.763   7.391
 1797TIP3    H229587   1.098   4.704   7.345
 1798TIP3   OH229588   1.743   4.712   8.289
 1798TIP3    H129589   1.685   4.778   8.248
 1798TIP3    H229590   1.822   4.713   8.235
 1799TIP3   OH229591   1.430   4.678   7.501
 1799TIP3    H129592   1.364   4.728   7.548
 1799TIP3    H229593   1.494   4.654   7.568
 1800TIP3   OH229594   1.405   4.509   8.474
 1800TIP3    H129595   1.394   4.586   8.530
 1800TIP3    H229596   1.345   4.524   8.401
 1801TIP3   OH229597   0.841   5.122   7.914
 1801TIP3    H129598   0.855   5.111   7.819
 1801TIP3    H229599   0.917   5.080   7.954
 1802TIP3   OH229600   0.742   4.672   8.047
 1802TIP3    H129601   0.824   4.634   8.015
 1802TIP3    H229602   0.769   4.750   8.095
 1803TIP3   OH229603   1.284   5.283   8.231
 1803TIP3    H129604   1.245   5.350   8.286
 1803TIP3    H229605   1.237   5.202   8.252
 1804TIP3   OH229606   0.767   5.110   8.515
 1804TIP3    H129607   0.713   5.169   8.567
 1804TIP3    H229608   0.720   5.100   8.433
 1805TIP3   OH229609   0.422   4.740   8.378
 1805TIP3    H129610   0.455   4.822   8.414
 1805TIP3    H229611   0.343   4.721   8.429
 1806TIP3   OH229612   1.096   5.316   7.641
 1806TIP3    H129613   1.191   5.325   7.649
 1806TIP3    H229614   1.069   5.387   7.583
 1807TIP3   OH229615   0.591   5.295   8.620
 1807TIP3    H129616   0.596   5.348   8.540
 1807TIP3    H229617   0.498   5.273   8.629
 1808TIP3   OH229618   1.774   3.849   7.382
 1808TIP3    H129619   1.720   3.835   7.459
 1808TIP3    H229620   1.852   3.894   7.415
 1809TIP3   OH229621   0.184   4.971   8.434
 1809TIP3    H129622   0.101   4.961   8.388
 1809TIP3    H229623   0.198   4.886   8.477
 1810TIP3   OH229624   0.197   5.300   8.003
 1810TIP3    H129625   0.281   5.291   7.957
 1810TIP3    H229626   0.219   5.339   8.087
 1811TIP3   OH229627   1.877   5.262   8.675
 1811TIP3    H129628   1.867   5.167   8.667
 1811TIP3    H229629   1.792   5.293   8.704
 1812TIP3   OH229630   0.967   5.300   8.474
 1812TIP3    H129631   0.934   5.369   8.532
 1812TIP3    H229632   0.903   5.229   8.483
 1813TIP3   OH229633   1.042   5.540   7.489
 1813TIP3    H129634   1.030   5.542   7.394
 1813TIP3    H229635   0.966   5.587   7.524
 1814TIP3   OH229636   1.294   5.610   7.567
 1814TIP3    H129637   1.205   5.595   7.535
 1814TIP3    H229638   1.326   5.524   7.591
 1815TIP3   OH229639   1.623   4.382   8.610
 1815TIP3    H129640   1.558   4.435   8.563
 1815TIP3    H229641   1.625   4.299   8.561
 1816TIP3   OH229642   0.345   5.184   8.369
 1816TIP3    H129643   0.430   5.144   8.351
 1816TIP3    H229644   0.285   5.109   8.378
 1817TIP3   OH229645   0.622   3.885   8.044
 1817TIP3    H129646   0.572   3.874   7.963
 1817TIP3    H229647   0.584   3.963   8.085
 1818TIP3   OH229648   1.011   3.925   8.422
 1818TIP3    H129649   1.051   3.865   8.485
 1818TIP3    H229650   0.917   3.919   8.438
 1819TIP3   OH229651   1.332   4.234   8.537
 1819TIP3    H129652   1.284   4.224   8.619
 1819TIP3    H229653   1.346   4.329   8.529
 1820TIP3   OH229654   0.606   4.433   8.088
 1820TIP3    H129655   0.532   4.438   8.149
 1820TIP3    H229656   0.635   4.524   8.079
 1821TIP3   OH229657   1.093   4.471   7.533
 1821TIP3    H129658   1.058   4.557   7.510
 1821TIP3    H229659   1.174   4.464   7.482
 1822TIP3   OH229660   1.021   4.464   8.650
 1822TIP3    H129661   0.964   4.400   8.693
 1822TIP3    H229662   1.102   4.463   8.701
 1823TIP3   OH229663   1.160   4.390   7.786
 1823TIP3    H129664   1.129   4.424   7.702
 1823TIP3    H229665   1.225   4.324   7.762
 1824TIP3   OH229666   0.387   4.417   8.260
 1824TIP3    H129667   0.407   4.440   8.351
 1824TIP3    H229668   0.338   4.335   8.266
 1825TIP3   OH229669   0.120   4.154   7.717
 1825TIP3    H129670   0.187   4.116   7.774
 1825TIP3    H229671   0.141   4.120   7.630
 1826TIP3   OH229672   0.146   4.276   7.303
 1826TIP3    H129673   0.223   4.259   7.249
 1826TIP3    H229674   0.140   4.201   7.361
 1827TIP3   OH229675   1.223   4.554   8.270
 1827TIP3    H129676   1.242   4.507   8.189
 1827TIP3    H229677   1.141   4.516   8.302
 1828TIP3   OH229678   1.249   4.167   8.116
 1828TIP3    H129679   1.202   4.164   8.199
 1828TIP3    H229680   1.208   4.099   8.062
 1829TIP3   OH229681   1.593   5.651   8.730
 1829TIP3    H129682   1.622   5.669   8.641
 1829TIP3    H229683   1.663   5.685   8.785
 1830TIP3   OH229684   0.484   4.945   8.548
 1830TIP3    H129685   0.560   4.940   8.607
 1830TIP3    H229686   0.410   4.964   8.605
 1831TIP3   OH229687   0.973   4.523   7.968
 1831TIP3    H129688   1.022   4.483   7.896
 1831TIP3    H229689   0.946   4.449   8.022
 1832TIP3   OH229690   0.861   4.344   8.153
 1832TIP3    H129691   0.773   4.381   8.146
 1832TIP3    H229692   0.898   4.385   8.232
 1833TIP3   OH229693   0.804   4.830   7.348
 1833TIP3    H129694   0.733   4.767   7.337
 1833TIP3    H229695   0.787   4.871   7.433
 1834TIP3   OH229696   1.596   4.912   8.179
 1834TIP3    H129697   1.666   4.959   8.133
 1834TIP3    H229698   1.532   4.891   8.111
 1835TIP3   OH229699   1.198   4.214   7.310
 1835TIP3    H129700   1.103   4.209   7.315
 1835TIP3    H229701   1.218   4.307   7.322
 1836TIP3   OH229702   1.012   4.942   8.522
 1836TIP3    H129703   1.059   4.907   8.598
 1836TIP3    H229704   0.958   5.013   8.557
 1837TIP3   OH229705   1.306   4.479   7.353
 1837TIP3    H129706   1.364   4.532   7.408
 1837TIP3    H229707   1.262   4.543   7.297
 1838TIP3   OH229708   0.515   4.813   7.972
 1838TIP3    H129709   0.595   4.768   8.000
 1838TIP3    H229710   0.444   4.768   8.019
 1839TIP3   OH229711   1.133   5.053   7.288
 1839TIP3    H129712   1.075   5.125   7.263
 1839TIP3    H229713   1.137   4.997   7.211
 1840TIP3   OH229714   0.211   4.714   8.550
 1840TIP3    H129715   0.245   4.682   8.634
 1840TIP3    H229716   0.120   4.685   8.548
 1841TIP3   OH229717   0.806   4.639   8.677
 1841TIP3    H129718   0.747   4.614   8.605
 1841TIP3    H229719   0.886   4.590   8.660
 1842TIP3   OH229720   1.235   5.246   8.545
 1842TIP3    H129721   1.147   5.266   8.511
 1842TIP3    H229722   1.224   5.247   8.640
 1843TIP3   OH229723   1.929   4.361   7.356
 1843TIP3    H129724   1.982   4.290   7.319
 1843TIP3    H229725   1.953   4.438   7.305
 1844TIP3   OH229726   1.852   4.997   8.597
 1844TIP3    H129727   1.764   4.995   8.561
 1844TIP3    H229728   1.909   4.978   8.522
 1845TIP3   OH229729   1.580   5.281   7.398
 1845TIP3    H129730   1.560   5.230   7.476
 1845TIP3    H229731   1.524   5.245   7.330
 1846TIP3   OH229732   1.412   4.825   7.991
 1846TIP3    H129733   1.319   4.808   8.005
 1846TIP3    H229734   1.446   4.742   7.957
 1847TIP3   OH229735   0.671   5.219   7.645
 1847TIP3    H129736   0.700   5.307   7.622
 1847TIP3    H229737   0.576   5.221   7.632
 1848TIP3   OH229738   0.148   4.739   7.309
 1848TIP3    H129739   0.232   4.780   7.332
 1848TIP3    H229740   0.126   4.776   7.223
 1849TIP3   OH229741   0.784   4.970   7.583
 1849TIP3    H129742   0.739   5.053   7.603
 1849TIP3    H229743   0.877   4.994   7.580
 1850TIP3   OH229744   0.889   5.417   8.230
 1850TIP3    H129745   0.956   5.477   8.196
 1850TIP3    H229746   0.932   5.373   8.303
 1851TIP3   OH229747   1.165   5.036   8.307
 1851TIP3    H129748   1.099   5.008   8.371
 1851TIP3    H229749   1.248   5.006   8.344
 1852TIP3   OH229750   1.404   5.112   7.261
 1852TIP3    H129751   1.453   5.042   7.306
 1852TIP3    H229752   1.313   5.096   7.284
 1853TIP3   OH229753   1.474   5.370   8.483
 1853TIP3    H129754   1.388   5.332   8.497
 1853TIP3    H229755   1.458   5.449   8.433
 1854TIP3   OH229756   0.267   4.171   8.310
 1854TIP3    H129757   0.241   4.164   8.402
 1854TIP3    H229758   0.216   4.103   8.265
 1855TIP3   OH229759   1.547   4.914   7.404
 1855TIP3    H129760   1.502   4.832   7.423
 1855TIP3    H229761   1.640   4.891   7.403
 1856TIP3   OH229762   0.277   5.423   8.237
 1856TIP3    H129763   0.298   5.347   8.291
 1856TIP3    H229764   0.261   5.493   8.299
 1857TIP3   OH229765   0.721   5.056   7.209
 1857TIP3    H129766   0.769   4.983   7.246
 1857TIP3    H229767   0.750   5.132   7.259
 1858TIP3   OH229768   0.401   4.850   7.363
 1858TIP3    H129769   0.381   4.919   7.426
 1858TIP3    H229770   0.417   4.896   7.280
 1859TIP3   OH229771   1.126   4.167   8.364
 1859TIP3    H129772   1.201   4.171   8.423
 1859TIP3    H229773   1.085   4.083   8.383
 1860TIP3   OH229774   1.261   4.053   7.521
 1860TIP3    H129775   1.240   4.111   7.448
 1860TIP3    H229776   1.285   4.112   7.593
 1861TIP3   OH229777   0.965   5.275   7.262
 1861TIP3    H129778   0.876   5.289   7.294
 1861TIP3    H229779   0.996   5.362   7.237
 1862TIP3   OH229780   0.953   4.237   7.495
 1862TIP3    H129781   0.996   4.320   7.516
 1862TIP3    H229782   0.869   4.241   7.540
 1863TIP3   OH229783   1.007   4.415   8.376
 1863TIP3    H129784   1.006   4.437   8.469
 1863TIP3    H229785   1.043   4.326   8.373
 1864TIP3   OH229786   0.997   3.968   7.552
 1864TIP3    H129787   0.966   4.054   7.521
 1864TIP3    H229788   1.092   3.977   7.556
 1865TIP3   OH229789   0.702   5.316   7.337
 1865TIP3    H129790   0.613   5.298   7.307
 1865TIP3    H229791   0.692   5.382   7.405
 1866TIP3   OH229792   1.588   4.145   8.459
 1866TIP3    H129793   1.494   4.154   8.474
 1866TIP3    H229794   1.595   4.112   8.370
 1867TIP3   OH229795   1.484   4.558   7.930
 1867TIP3    H129796   1.401   4.521   7.960
 1867TIP3    H229797   1.551   4.502   7.972
 1868TIP3   OH229798   0.462   5.002   7.141
 1868TIP3    H129799   0.549   5.024   7.173
 1868TIP3    H229800   0.467   5.015   7.046
 1869TIP3   OH229801   1.618   5.536   8.079
 1869TIP3    H129802   1.588   5.613   8.031
 1869TIP3    H229803   1.712   5.532   8.062
 1870TIP3   OH229804   0.479   3.870   7.807
 1870TIP3    H129805   0.516   3.925   7.738
 1870TIP3    H229806   0.478   3.782   7.770
 1871TIP3   OH229807   0.426   5.334   7.535
 1871TIP3    H129808   0.351   5.392   7.524
 1871TIP3    H229809   0.502   5.394   7.537
 1872TIP3   OH229810   0.062   5.544   8.717
 1872TIP3    H129811   0.134   5.502   8.764
 1872TIP3    H229812   0.011   5.472   8.680
 1873TIP3   OH229813   0.518   5.316   8.900
 1873TIP3    H129814   0.578   5.348   8.967
 1873TIP3    H229815   0.570   5.317   8.820
 1874TIP3   OH229816   1.223   5.236   8.819
 1874TIP3    H129817   1.223   5.149   8.859
 1874TIP3    H229818   1.303   5.277   8.852
 1875TIP3   OH229819   0.274   4.948   8.745
 1875TIP3    H129820   0.297   4.856   8.759
 1875TIP3    H229821   0.178   4.949   8.745
 1876TIP3   OH229822   0.722   4.900   8.693
 1876TIP3    H129823   0.753   4.952   8.618
 1876TIP3    H229824   0.763   4.814   8.682
 1877TIP3   OH229825   1.366   5.000   8.504
 1877TIP3    H129826   1.458   5.018   8.487
 1877TIP3    H229827   1.328   5.085   8.523
 1878TIP3   OH229828   0.338   4.662   8.800
 1878TIP3    H129829   0.380   4.576   8.796
 1878TIP3    H229830   0.277   4.655   8.874
 1879TIP3   OH229831   0.588   4.662   7.300
 1879TIP3    H129832   0.520   4.725   7.322
 1879TIP3    H229833   0.554   4.617   7.222
 1880TIP3   OH229834   0.643   4.586   8.448
 1880TIP3    H129835   0.566   4.636   8.420
 1880TIP3    H229836   0.717   4.638   8.418
 1881TIP3   OH229837   1.145   4.815   8.734
 1881TIP3    H129838   1.221   4.775   8.692
 1881TIP3    H229839   1.115   4.749   8.797
 1882TIP3   OH229840   0.624   4.337   8.560
 1882TIP3    H129841   0.648   4.274   8.493
 1882TIP3    H229842   0.633   4.423   8.518
 1883TIP3   OH229843   0.704   4.181   8.341
 1883TIP3    H129844   0.776   4.208   8.283
 1883TIP3    H229845   0.634   4.154   8.282
 1884TIP3   OH229846   0.840   4.764   8.396
 1884TIP3    H129847   0.912   4.811   8.438
 1884TIP3    H229848   0.822   4.813   8.316
 1885TIP3   OH229849   1.256   4.455   8.816
 1885TIP3    H129850   1.238   4.361   8.810
 1885TIP3    H229851   1.349   4.459   8.841
 1886TIP3   OH229852   1.406   4.753   8.619
 1886TIP3    H129853   1.382   4.836   8.578
 1886TIP3    H229854   1.499   4.743   8.602
 1887TIP3   OH229855   0.464   4.404   8.784
 1887TIP3    H129856   0.411   4.326   8.800
 1887TIP3    H229857   0.517   4.382   8.708
 1888TIP3   OH229858   0.736   3.924   8.445
 1888TIP3    H129859   0.723   4.015   8.417
 1888TIP3    H229860   0.678   3.874   8.388
 1889TIP3   OH229861   0.824   4.305   8.753
 1889TIP3    H129862   0.785   4.245   8.818
 1889TIP3    H229863   0.757   4.313   8.685
 1890TIP3   OH229864   1.191   4.195   8.778
 1890TIP3    H129865   1.106   4.173   8.815
 1890TIP3    H229866   1.250   4.129   8.813
 1891TIP3   OH229867   1.344   4.008   8.903
 1891TIP3    H129868   1.330   3.920   8.869
 1891TIP3    H229869   1.306   4.005   8.991
 1892TIP3   OH229870   0.372   4.108   8.812
 1892TIP3    H129871   0.401   4.022   8.784
 1892TIP3    H229872   0.333   4.094   8.898
 1893TIP3   OH229873   0.701   3.771   8.668
 1893TIP3    H129874   0.755   3.693   8.653
 1893TIP3    H229875   0.712   3.824   8.590
 1894TIP3   OH229876   0.800   3.911   8.882
 1894TIP3    H129877   0.773   3.855   8.809
 1894TIP3    H229878   0.744   3.988   8.875
 1895TIP3   OH229879   0.203   5.048   7.239
 1895TIP3    H129880   0.289   5.048   7.199
 1895TIP3    H229881   0.150   4.991   7.182
 1896TIP3   OH229882   0.074   5.717   7.608
 1896TIP3    H129883  -0.020   5.718   7.624
 1896TIP3    H229884   0.112   5.678   7.688
 1897TIP3   OH229885   0.211   5.570   7.798
 1897TIP3    H129886   0.269   5.535   7.730
 1897TIP3    H229887   0.268   5.578   7.875
 1898TIP3   OH229888   1.894   5.574   8.014
 1898TIP3    H129889   1.980   5.536   8.029
 1898TIP3    H229890   1.885   5.577   7.919
 1899TIP3   OH229891   1.880   5.368   8.414
 1899TIP3    H129892   1.814   5.324   8.361
 1899TIP3    H229893   1.890   5.312   8.491
 1900TIP3   OH229894   1.697   5.076   8.866
 1900TIP3    H129895   1.616   5.067   8.915
 1900TIP3    H229896   1.747   5.142   8.914
 1901TIP3   OH229897   1.818   4.824   7.417
 1901TIP3    H129898   1.870   4.904   7.416
 1901TIP3    H229899   1.846   4.778   7.496
 1902TIP3   OH229900   1.872   4.665   7.642
 1902TIP3    H129901   1.782   4.647   7.667
 1902TIP3    H229902   1.916   4.689   7.723
 1903TIP3   OH229903   1.862   4.996   8.127
 1903TIP3    H129904   1.902   4.913   8.100
 1903TIP3    H229905   1.922   5.063   8.095
 1904TIP3   OH229906   1.656   5.259   8.307
 1904TIP3    H129907   1.586   5.298   8.360
 1904TIP3    H229908   1.618   5.251   8.219
 1905TIP3   OH229909   1.950   4.615   7.229
 1905TIP3    H129910   1.928   4.664   7.149
 1905TIP3    H229911   1.917   4.669   7.300
 1906TIP3   OH229912   1.527   4.354   7.233
 1906TIP3    H129913   1.440   4.384   7.259
 1906TIP3    H229914   1.577   4.352   7.314
 1907TIP3   OH229915   1.612   4.574   7.682
 1907TIP3    H129916   1.615   4.486   7.644
 1907TIP3    H229917   1.566   4.562   7.765
 1908TIP3   OH229918   0.096   4.654   7.991
 1908TIP3    H129919   0.112   4.642   7.898
 1908TIP3    H229920   0.183   4.668   8.029
 1909TIP3   OH229921   1.675   4.715   8.560
 1909TIP3    H129922   1.738   4.646   8.583
 1909TIP3    H229923   1.693   4.734   8.468
 1910TIP3   OH229924   1.868   4.526   8.606
 1910TIP3    H129925   1.807   4.454   8.622
 1910TIP3    H229926   1.947   4.503   8.656
 1911TIP3   OH229927   1.667   4.342   7.467
 1911TIP3    H129928   1.655   4.257   7.510
 1911TIP3    H229929   1.759   4.345   7.443
 1912TIP3   OH229930   1.642   4.373   8.058
 1912TIP3    H129931   1.735   4.379   8.036
 1912TIP3    H229932   1.638   4.392   8.152
 1913TIP3   OH229933   1.644   4.459   8.319
 1913TIP3    H129934   1.559   4.471   8.361
 1913TIP3    H229935   1.678   4.548   8.309
 1914TIP3   OH229936   0.197   4.126   8.580
 1914TIP3    H129937   0.253   4.148   8.655
 1914TIP3    H229938   0.205   4.031   8.572
 1915TIP3   OH229939   1.850   3.890   8.828
 1915TIP3    H129940   1.916   3.833   8.789
 1915TIP3    H229941   1.841   3.962   8.766
 1916TIP3   OH229942   1.605   4.098   7.582
 1916TIP3    H129943   1.671   4.057   7.636
 1916TIP3    H229944   1.556   4.025   7.543
 1917TIP3   OH229945   0.309   4.063   7.899
 1917TIP3    H129946   0.352   3.981   7.874
 1917TIP3    H229947   0.380   4.127   7.903
 1918TIP3   OH229948  -0.026   4.355   7.828
 1918TIP3    H129949   0.032   4.288   7.792
 1918TIP3    H229950   0.011   4.438   7.798
 1919TIP3   OH229951   1.763   4.095   8.666
 1919TIP3    H129952   1.702   4.119   8.737
 1919TIP3    H229953   1.709   4.097   8.587
 1920TIP3   OH229954   0.089   4.046   7.458
 1920TIP3    H129955   0.004   4.058   7.416
 1920TIP3    H229956   0.088   3.955   7.488
 1921TIP3   OH229957   1.579   5.530   7.730
 1921TIP3    H129958   1.638   5.497   7.663
 1921TIP3    H229959   1.605   5.621   7.744
 1922TIP3   OH229960   0.146   3.958   8.180
 1922TIP3    H129961   0.055   3.929   8.181
 1922TIP3    H229962   0.169   3.963   8.087
 1923TIP3   OH229963   0.329   5.209   8.644
 1923TIP3    H129964   0.317   5.211   8.549
 1923TIP3    H229965   0.289   5.126   8.671
 1924TIP3   OH229966   0.639   5.405   8.352
 1924TIP3    H129967   0.590   5.483   8.327
 1924TIP3    H229968   0.725   5.417   8.313
 1925TIP3   OH229969   0.883   5.492   8.659
 1925TIP3    H129970   0.901   5.442   8.738
 1925TIP3    H229971   0.961   5.545   8.646
 1926TIP3   OH229972   1.116   5.621   8.605
 1926TIP3    H129973   1.159   5.586   8.527
 1926TIP3    H229974   1.187   5.634   8.667
 1927TIP3   OH229975   1.714   3.761   8.449
 1927TIP3    H129976   1.639   3.774   8.391
 1927TIP3    H229977   1.758   3.683   8.416
 1928TIP3   OH229978   0.266   5.675   8.365
 1928TIP3    H129979   0.216   5.737   8.310
 1928TIP3    H229980   0.247   5.703   8.454
 1929TIP3   OH229981   0.517   5.641   8.261
 1929TIP3    H129982   0.434   5.657   8.306
 1929TIP3    H229983   0.492   5.626   8.170
 1930TIP3   OH229984   1.091   5.576   8.122
 1930TIP3    H129985   1.126   5.530   8.046
 1930TIP3    H229986   1.068   5.663   8.089
 1931TIP3   OH229987   1.220   5.532   8.361
 1931TIP3    H129988   1.167   5.555   8.284
 1931TIP3    H229989   1.308   5.563   8.340
 1932TIP3   OH229990   1.487   5.593   8.313
 1932TIP3    H129991   1.461   5.682   8.287
 1932TIP3    H229992   1.531   5.557   8.236
 1933TIP3   OH229993   0.384   5.566   8.024
 1933TIP3    H129994   0.330   5.530   8.093
 1933TIP3    H229995   0.432   5.491   7.989
 1934TIP3   OH229996   0.508   5.340   7.944
 1934TIP3    H129997   0.515   5.245   7.959
 1934TIP3    H229998   0.598   5.369   7.934
 1935TIP3   OH229999   0.784   5.390   7.967
 1935TIP3    H130000   0.807   5.300   7.943
 1935TIP3    H230001   0.815   5.399   8.057
 1936TIP3   OH230002   1.139   3.971   7.965
 1936TIP3    H130003   1.052   3.932   7.955
 1936TIP3    H230004   1.195   3.919   7.909
 1937TIP3   OH230005   1.581   3.781   7.837
 1937TIP3    H130006   1.637   3.850   7.800
 1937TIP3    H230007   1.492   3.815   7.827
 1938TIP3   OH230008   1.782   3.930   7.710
 1938TIP3    H130009   1.830   3.848   7.698
 1938TIP3    H230010   1.850   3.997   7.720
 1939TIP3   OH230011   0.121   3.614   7.155
 1939TIP3    H130012   0.050   3.615   7.091
 1939TIP3    H230013   0.077   3.597   7.239
 1940TIP3   OH230014   0.788   3.846   7.690
 1940TIP3    H130015   0.864   3.885   7.646
 1940TIP3    H230016   0.716   3.906   7.669
 1941TIP3   OH230017   1.300   3.805   7.810
 1941TIP3    H130018   1.287   3.780   7.718
 1941TIP3    H230019   1.289   3.723   7.859
 1942TIP3   OH230020   1.465   3.874   7.502
 1942TIP3    H130021   1.389   3.932   7.504
 1942TIP3    H230022   1.432   3.789   7.528
 1943TIP3   OH230023   0.238   5.526   7.491
 1943TIP3    H130024   0.175   5.593   7.516
 1943TIP3    H230025   0.256   5.543   7.399
 1944TIP3   OH230026   1.741   5.467   7.514
 1944TIP3    H130027   1.688   5.398   7.476
 1944TIP3    H230028   1.725   5.544   7.459
 1945TIP3   OH230029   0.246   3.856   8.585
 1945TIP3    H130030   0.188   3.798   8.634
 1945TIP3    H230031   0.329   3.853   8.632
 1946TIP3   OH230032   0.454   3.844   8.766
 1946TIP3    H130033   0.539   3.815   8.734
 1946TIP3    H230034   0.424   3.773   8.822
 1947TIP3   OH230035   1.343   3.762   8.779
 1947TIP3    H130036   1.345   3.713   8.861
 1947TIP3    H230037   1.434   3.766   8.751
 1948TIP3   OH230038   1.631   5.378   8.710
 1948TIP3    H130039   1.580   5.361   8.631
 1948TIP3    H230040   1.618   5.471   8.728
 1949TIP3   OH230041   3.190   4.772   7.722
 1949TIP3    H130042   3.164   4.858   7.756
 1949TIP3    H230043   3.162   4.773   7.631
 1950TIP3   OH230044   3.108   4.777   8.085
 1950TIP3    H130045   3.110   4.703   8.146
 1950TIP3    H230046   3.052   4.747   8.014
 1951TIP3   OH230047   2.216   4.653   8.190
 1951TIP3    H130048   2.246   4.580   8.243
 1951TIP3    H230049   2.294   4.681   8.142
 1952TIP3   OH230050   3.395   5.056   7.859
 1952TIP3    H130051   3.391   4.966   7.891
 1952TIP3    H230052   3.411   5.109   7.937
 1953TIP3   OH230053   2.310   5.094   7.950
 1953TIP3    H130054   2.295   5.006   7.915
 1953TIP3    H230055   2.406   5.103   7.951
 1954TIP3   OH230056   1.963   4.400   7.621
 1954TIP3    H130057   1.936   4.490   7.635
 1954TIP3    H230058   1.951   4.385   7.527
 1955TIP3   OH230059   2.041   4.700   7.862
 1955TIP3    H130060   2.079   4.613   7.877
 1955TIP3    H230061   2.116   4.758   7.851
 1956TIP3   OH230062   3.096   5.574   7.870
 1956TIP3    H130063   3.153   5.526   7.810
 1956TIP3    H230064   3.084   5.515   7.945
 1957TIP3   OH230065   2.809   5.044   8.014
 1957TIP3    H130066   2.853   5.034   7.929
 1957TIP3    H230067   2.881   5.046   8.078
 1958TIP3   OH230068   3.709   4.030   8.168
 1958TIP3    H130069   3.700   4.109   8.221
 1958TIP3    H230070   3.767   4.055   8.096
 1959TIP3   OH230071   3.164   4.334   8.099
 1959TIP3    H130072   3.197   4.245   8.113
 1959TIP3    H230073   3.088   4.322   8.042
 1960TIP3   OH230074   2.509   4.200   7.742
 1960TIP3    H130075   2.511   4.250   7.660
 1960TIP3    H230076   2.442   4.133   7.727
 1961TIP3   OH230077   2.152   4.451   7.908
 1961TIP3    H130078   2.226   4.413   7.955
 1961TIP3    H230079   2.162   4.420   7.818
 1962TIP3   OH230080   2.578   4.551   7.862
 1962TIP3    H130081   2.658   4.500   7.852
 1962TIP3    H230082   2.530   4.536   7.781
 1963TIP3   OH230083   3.670   4.246   8.333
 1963TIP3    H130084   3.624   4.326   8.305
 1963TIP3    H230085   3.734   4.277   8.397
 1964TIP3   OH230086   2.390   4.129   8.192
 1964TIP3    H130087   2.374   4.185   8.116
 1964TIP3    H230088   2.317   4.149   8.251
 1965TIP3   OH230089   2.893   5.019   7.754
 1965TIP3    H130090   2.823   4.969   7.713
 1965TIP3    H230091   2.918   5.084   7.689
 1966TIP3   OH230092   2.607   4.916   8.151
 1966TIP3    H130093   2.558   4.989   8.191
 1966TIP3    H230094   2.676   4.959   8.101
 1967TIP3   OH230095   2.371   4.290   7.971
 1967TIP3    H130096   2.431   4.350   8.016
 1967TIP3    H230097   2.419   4.264   7.892
 1968TIP3   OH230098   2.474   5.115   8.290
 1968TIP3    H130099   2.479   5.210   8.293
 1968TIP3    H230100   2.383   5.095   8.314
 1969TIP3   OH230101   1.963   5.062   7.394
 1969TIP3    H130102   2.039   5.044   7.339
 1969TIP3    H230103   1.966   5.156   7.410
 1970TIP3   OH230104   3.425   5.204   8.096
 1970TIP3    H130105   3.335   5.209   8.129
 1970TIP3    H230106   3.449   5.295   8.078
 1971TIP3   OH230107   3.439   3.954   8.228
 1971TIP3    H130108   3.373   3.997   8.174
 1971TIP3    H230109   3.522   3.979   8.189
 1972TIP3   OH230110   2.709   3.784   7.993
 1972TIP3    H130111   2.685   3.691   7.988
 1972TIP3    H230112   2.627   3.829   8.012
 1973TIP3   OH230113   3.279   5.434   7.712
 1973TIP3    H130114   3.304   5.347   7.681
 1973TIP3    H230115   3.285   5.490   7.635
 1974TIP3   OH230116   3.386   5.156   7.601
 1974TIP3    H130117   3.409   5.078   7.551
 1974TIP3    H230118   3.390   5.126   7.693
 1975TIP3   OH230119   3.550   4.974   8.452
 1975TIP3    H130120   3.533   4.931   8.368
 1975TIP3    H230121   3.564   5.066   8.430
 1976TIP3   OH230122   3.117   4.794   7.462
 1976TIP3    H130123   3.033   4.837   7.446
 1976TIP3    H230124   3.172   4.824   7.389
 1977TIP3   OH230125   3.689   4.685   8.251
 1977TIP3    H130126   3.625   4.754   8.234
 1977TIP3    H230127   3.755   4.696   8.183
 1978TIP3   OH230128   3.461   4.706   7.649
 1978TIP3    H130129   3.380   4.724   7.697
 1978TIP3    H230130   3.467   4.777   7.585
 1979TIP3   OH230131   3.287   4.541   8.452
 1979TIP3    H130132   3.269   4.616   8.509
 1979TIP3    H230133   3.229   4.554   8.377
 1980TIP3   OH230134   2.429   4.775   7.622
 1980TIP3    H130135   2.388   4.798   7.539
 1980TIP3    H230136   2.435   4.679   7.620
 1981TIP3   OH230137   2.577   5.158   7.905
 1981TIP3    H130138   2.584   5.157   7.810
 1981TIP3    H230139   2.659   5.118   7.936
 1982TIP3   OH230140   2.457   4.707   8.051
 1982TIP3    H130141   2.509   4.665   7.982
 1982TIP3    H230142   2.512   4.778   8.083
 1983TIP3   OH230143   3.178   5.230   8.211
 1983TIP3    H130144   3.139   5.296   8.268
 1983TIP3    H230145   3.117   5.156   8.213
 1984TIP3   OH230146   2.615   5.108   8.531
 1984TIP3    H130147   2.557   5.169   8.578
 1984TIP3    H230148   2.572   5.096   8.446
 1985TIP3   OH230149   3.286   4.861   7.242
 1985TIP3    H130150   3.249   4.795   7.183
 1985TIP3    H230151   3.269   4.945   7.199
 1986TIP3   OH230152   2.266   4.704   8.558
 1986TIP3    H130153   2.266   4.796   8.584
 1986TIP3    H230154   2.188   4.696   8.502
 1987TIP3   OH230155   2.934   5.197   7.534
 1987TIP3    H130156   3.023   5.232   7.533
 1987TIP3    H230157   2.881   5.264   7.490
 1988TIP3   OH230158   2.429   5.304   8.617
 1988TIP3    H130159   2.449   5.339   8.530
 1988TIP3    H230160   2.334   5.292   8.617
 1989TIP3   OH230161   2.312   4.826   7.378
 1989TIP3    H130162   2.261   4.901   7.350
 1989TIP3    H230163   2.301   4.762   7.307
 1990TIP3   OH230164   3.625   5.196   7.255
 1990TIP3    H130165   3.579   5.248   7.320
 1990TIP3    H230166   3.562   5.129   7.228
 1991TIP3   OH230167   1.992   4.940   8.371
 1991TIP3    H130168   1.941   4.955   8.292
 1991TIP3    H230169   2.002   4.845   8.376
 1992TIP3   OH230170   2.069   5.173   8.064
 1992TIP3    H130171   2.151   5.140   8.027
 1992TIP3    H230172   2.096   5.228   8.138
 1993TIP3   OH230173   3.796   5.329   8.671
 1993TIP3    H130174   3.793   5.235   8.659
 1993TIP3    H230175   3.707   5.352   8.699
 1994TIP3   OH230176   2.861   5.223   8.499
 1994TIP3    H130177   2.849   5.311   8.534
 1994TIP3    H230178   2.777   5.180   8.512
 1995TIP3   OH230179   2.194   5.429   7.562
 1995TIP3    H130180   2.201   5.354   7.622
 1995TIP3    H230181   2.130   5.401   7.496
 1996TIP3   OH230182   3.435   4.431   8.661
 1996TIP3    H130183   3.394   4.478   8.588
 1996TIP3    H230184   3.444   4.342   8.629
 1997TIP3   OH230185   2.225   5.081   8.403
 1997TIP3    H130186   2.243   5.052   8.492
 1997TIP3    H230187   2.145   5.035   8.379
 1998TIP3   OH230188   2.460   3.894   8.065
 1998TIP3    H130189   2.380   3.879   8.015
 1998TIP3    H230190   2.448   3.979   8.105
 1999TIP3   OH230191   2.930   3.897   8.410
 1999TIP3    H130192   2.974   3.848   8.481
 1999TIP3    H230193   2.839   3.904   8.439
 2000TIP3   OH230194   3.180   4.261   8.465
 2000TIP3    H130195   3.145   4.245   8.553
 2000TIP3    H230196   3.209   4.352   8.467
 2001TIP3   OH230197   2.938   4.181   7.235
 2001TIP3    H130198   2.949   4.104   7.179
 2001TIP3    H230199   2.908   4.250   7.175
 2002TIP3   OH230200   2.500   4.452   8.158
 2002TIP3    H130201   2.438   4.445   8.230
 2002TIP3    H230202   2.491   4.543   8.127
 2003TIP3   OH230203   2.439   4.497   7.629
 2003TIP3    H130204   2.359   4.446   7.644
 2003TIP3    H230205   2.478   4.458   7.550
 2004TIP3   OH230206   2.926   4.459   8.609
 2004TIP3    H130207   2.884   4.387   8.657
 2004TIP3    H230208   3.007   4.475   8.656
 2005TIP3   OH230209   2.301   4.441   8.347
 2005TIP3    H130210   2.335   4.468   8.433
 2005TIP3    H230211   2.262   4.355   8.363
 2006TIP3   OH230212   1.963   4.138   7.721
 2006TIP3    H130213   2.007   4.138   7.806
 2006TIP3    H230214   1.950   4.231   7.701
 2007TIP3   OH230215   3.107   4.553   8.244
 2007TIP3    H130216   3.142   4.482   8.189
 2007TIP3    H230217   3.025   4.518   8.279
 2008TIP3   OH230218   2.791   4.171   7.747
 2008TIP3    H130219   2.695   4.176   7.752
 2008TIP3    H230220   2.811   4.078   7.761
 2009TIP3   OH230221   2.224   4.330   7.670
 2009TIP3    H130222   2.136   4.345   7.634
 2009TIP3    H230223   2.234   4.234   7.668
 2010TIP3   OH230224   2.546   4.348   7.424
 2010TIP3    H130225   2.632   4.308   7.439
 2010TIP3    H230226   2.543   4.364   7.330
 2011TIP3   OH230227   3.218   4.052   8.082
 2011TIP3    H130228   3.138   4.053   8.135
 2011TIP3    H230229   3.193   4.005   8.002
 2012TIP3   OH230230   2.572   4.349   7.149
 2012TIP3    H130231   2.543   4.273   7.099
 2012TIP3    H230232   2.666   4.357   7.130
 2013TIP3   OH230233   3.488   5.665   8.718
 2013TIP3    H130234   3.524   5.674   8.630
 2013TIP3    H230235   3.556   5.699   8.775
 2014TIP3   OH230236   2.238   4.972   8.668
 2014TIP3    H130237   2.312   4.949   8.724
 2014TIP3    H230238   2.161   4.949   8.720
 2015TIP3   OH230239   2.944   4.303   7.935
 2015TIP3    H130240   2.902   4.260   7.862
 2015TIP3    H230241   2.876   4.310   8.002
 2016TIP3   OH230242   2.277   4.057   7.671
 2016TIP3    H130243   2.235   3.971   7.678
 2016TIP3    H230244   2.315   4.057   7.583
 2017TIP3   OH230245   2.746   4.336   8.127
 2017TIP3    H130246   2.663   4.383   8.133
 2017TIP3    H230247   2.799   4.370   8.199
 2018TIP3   OH230248   2.882   4.938   7.442
 2018TIP3    H130249   2.901   5.029   7.463
 2018TIP3    H230250   2.802   4.919   7.491
 2019TIP3   OH230251   3.525   4.894   8.197
 2019TIP3    H130252   3.594   4.951   8.161
 2019TIP3    H230253   3.466   4.879   8.123
 2020TIP3   OH230254   2.909   4.932   8.478
 2020TIP3    H130255   2.950   4.893   8.555
 2020TIP3    H230256   2.906   5.026   8.497
 2021TIP3   OH230257   2.291   4.831   7.857
 2021TIP3    H130258   2.336   4.818   7.774
 2021TIP3    H230259   2.344   4.783   7.921
 2022TIP3   OH230260   2.025   4.668   8.427
 2022TIP3    H130261   1.964   4.621   8.484
 2022TIP3    H230262   2.032   4.614   8.349
 2023TIP3   OH230263   2.734   4.651   8.666
 2023TIP3    H130264   2.661   4.631   8.607
 2023TIP3    H230265   2.806   4.597   8.634
 2024TIP3   OH230266   3.137   5.233   8.540
 2024TIP3    H130267   3.045   5.231   8.514
 2024TIP3    H230268   3.135   5.234   8.636
 2025TIP3   OH230269   3.771   5.066   8.612
 2025TIP3    H130270   3.680   5.039   8.606
 2025TIP3    H230271   3.811   5.034   8.531
 2026TIP3   OH230272   3.476   5.357   7.432
 2026TIP3    H130273   3.440   5.291   7.491
 2026TIP3    H230274   3.413   5.428   7.435
 2027TIP3   OH230275   3.370   4.810   7.989
 2027TIP3    H130276   3.279   4.800   8.017
 2027TIP3    H230277   3.403   4.720   7.982
 2028TIP3   OH230278   2.551   5.186   7.623
 2028TIP3    H130279   2.529   5.275   7.650
 2028TIP3    H230280   2.543   5.187   7.527
 2029TIP3   OH230281   2.238   4.679   7.150
 2029TIP3    H130282   2.202   4.749   7.096
 2029TIP3    H230283   2.162   4.627   7.176
 2030TIP3   OH230284   2.663   4.931   7.621
 2030TIP3    H130285   2.620   5.017   7.622
 2030TIP3    H230286   2.591   4.868   7.624
 2031TIP3   OH230287   2.768   5.363   8.265
 2031TIP3    H130288   2.825   5.437   8.243
 2031TIP3    H230289   2.822   5.308   8.321
 2032TIP3   OH230290   2.466   5.442   7.670
 2032TIP3    H130291   2.407   5.467   7.599
 2032TIP3    H230292   2.522   5.519   7.681
 2033TIP3   OH230293   3.006   5.006   8.215
 2033TIP3    H130294   2.978   4.972   8.300
 2033TIP3    H230295   3.053   4.932   8.174
 2034TIP3   OH230296   3.363   5.378   8.474
 2034TIP3    H130297   3.278   5.336   8.488
 2034TIP3    H230298   3.345   5.449   8.413
 2035TIP3   OH230299   2.199   4.187   8.391
 2035TIP3    H130300   2.120   4.206   8.441
 2035TIP3    H230301   2.209   4.092   8.397
 2036TIP3   OH230302   3.466   4.914   7.454
 2036TIP3    H130303   3.404   4.893   7.383
 2036TIP3    H230304   3.551   4.887   7.420
 2037TIP3   OH230305   2.175   5.330   8.277
 2037TIP3    H130306   2.196   5.250   8.326
 2037TIP3    H230307   2.160   5.396   8.346
 2038TIP3   OH230308   2.561   5.252   7.350
 2038TIP3    H130309   2.656   5.261   7.360
 2038TIP3    H230310   2.530   5.341   7.334
 2039TIP3   OH230311   2.180   5.027   7.228
 2039TIP3    H130312   2.150   4.972   7.156
 2039TIP3    H230313   2.261   5.066   7.197
 2040TIP3   OH230314   3.030   4.120   8.285
 2040TIP3    H130315   3.093   4.157   8.346
 2040TIP3    H230316   2.995   4.043   8.330
 2041TIP3   OH230317   2.802   5.390   7.377
 2041TIP3    H130318   2.724   5.445   7.382
 2041TIP3    H230319   2.860   5.435   7.315
 2042TIP3   OH230320   2.780   4.210   7.457
 2042TIP3    H130321   2.851   4.199   7.393
 2042TIP3    H230322   2.818   4.184   7.540
 2043TIP3   OH230323   2.908   4.387   8.341
 2043TIP3    H130324   2.910   4.407   8.434
 2043TIP3    H230325   2.949   4.301   8.333
 2044TIP3   OH230326   3.006   3.997   7.543
 2044TIP3    H130327   2.977   3.964   7.628
 2044TIP3    H230328   3.101   4.002   7.550
 2045TIP3   OH230329   2.416   4.100   7.445
 2045TIP3    H130330   2.436   4.190   7.423
 2045TIP3    H230331   2.478   4.048   7.393
 2046TIP3   OH230332   3.455   4.206   8.510
 2046TIP3    H130333   3.369   4.191   8.470
 2046TIP3    H230334   3.517   4.198   8.438
 2047TIP3   OH230335   2.437   5.102   7.156
 2047TIP3    H130336   2.474   5.154   7.227
 2047TIP3    H230337   2.475   5.015   7.168
 2048TIP3   OH230338   3.511   5.465   8.080
 2048TIP3    H130339   3.497   5.511   7.997
 2048TIP3    H230340   3.605   5.473   8.096
 2049TIP3   OH230341   2.204   3.867   7.962
 2049TIP3    H130342   2.193   3.848   7.869
 2049TIP3    H230343   2.168   3.791   8.007
 2050TIP3   OH230344   1.973   5.349   7.408
 2050TIP3    H130345   1.899   5.368   7.465
 2050TIP3    H230346   1.958   5.404   7.330
 2051TIP3   OH230347   1.949   5.540   8.659
 2051TIP3    H130348   2.027   5.549   8.714
 2051TIP3    H230349   1.920   5.450   8.673
 2052TIP3   OH230350   2.401   5.464   8.844
 2052TIP3    H130351   2.449   5.423   8.917
 2052TIP3    H230352   2.417   5.406   8.769
 2053TIP3   OH230353   3.137   5.229   8.814
 2053TIP3    H130354   3.134   5.142   8.855
 2053TIP3    H230355   3.216   5.269   8.849
 2054TIP3   OH230356   3.545   5.362   7.043
 2054TIP3    H130357   3.491   5.292   7.005
 2054TIP3    H230358   3.585   5.322   7.121
 2055TIP3   OH230359   2.008   4.921   8.811
 2055TIP3    H130360   1.975   4.838   8.843
 2055TIP3    H230361   1.944   4.948   8.745
 2056TIP3   OH230362   2.678   4.919   8.722
 2056TIP3    H130363   2.669   4.968   8.641
 2056TIP3    H230364   2.715   4.835   8.696
 2057TIP3   OH230365   3.274   4.991   8.527
 2057TIP3    H130366   3.364   5.007   8.498
 2057TIP3    H230367   3.230   5.076   8.520
 2058TIP3   OH230368   2.119   4.530   8.733
 2058TIP3    H130369   2.183   4.579   8.682
 2058TIP3    H230370   2.112   4.577   8.816
 2059TIP3   OH230371   2.515   4.594   8.497
 2059TIP3    H130372   2.435   4.639   8.523
 2059TIP3    H230373   2.564   4.659   8.446
 2060TIP3   OH230374   3.027   4.816   8.719
 2060TIP3    H130375   3.112   4.783   8.692
 2060TIP3    H230376   2.994   4.751   8.781
 2061TIP3   OH230377   3.507   4.765   7.064
 2061TIP3    H130378   3.459   4.806   6.992
 2061TIP3    H230379   3.460   4.792   7.143
 2062TIP3   OH230380   2.573   4.327   8.562
 2062TIP3    H130381   2.591   4.276   8.483
 2062TIP3    H230382   2.564   4.417   8.530
 2063TIP3   OH230383   2.621   4.176   8.331
 2063TIP3    H130384   2.681   4.209   8.264
 2063TIP3    H230385   2.540   4.158   8.284
 2064TIP3   OH230386   2.674   4.790   8.389
 2064TIP3    H130387   2.756   4.832   8.417
 2064TIP3    H230388   2.654   4.830   8.305
 2065TIP3   OH230389   3.161   4.468   8.766
 2065TIP3    H130390   3.143   4.374   8.762
 2065TIP3    H230391   3.256   4.475   8.759
 2066TIP3   OH230392   3.294   4.750   8.643
 2066TIP3    H130393   3.277   4.836   8.605
 2066TIP3    H230394   3.389   4.737   8.632
 2067TIP3   OH230395   2.407   4.312   8.783
 2067TIP3    H130396   2.325   4.267   8.761
 2067TIP3    H230397   2.454   4.319   8.700
 2068TIP3   OH230398   2.657   3.926   8.448
 2068TIP3    H130399   2.650   4.017   8.419
 2068TIP3    H230400   2.587   3.880   8.401
 2069TIP3   OH230401   2.787   4.253   8.735
 2069TIP3    H130402   2.751   4.217   8.816
 2069TIP3    H230403   2.711   4.268   8.679
 2070TIP3   OH230404   3.074   4.215   8.716
 2070TIP3    H130405   2.981   4.201   8.734
 2070TIP3    H230406   3.120   4.154   8.773
 2071TIP3   OH230407   3.222   4.065   8.890
 2071TIP3    H130408   3.207   3.971   8.880
 2071TIP3    H230409   3.194   4.085   8.980
 2072TIP3   OH230410   2.183   4.134   8.771
 2072TIP3    H130411   2.191   4.053   8.721
 2072TIP3    H230412   2.197   4.107   8.862
 2073TIP3   OH230413   2.634   3.763   8.667
 2073TIP3    H130414   2.695   3.693   8.644
 2073TIP3    H230415   2.635   3.822   8.592
 2074TIP3   OH230416   2.734   3.917   8.871
 2074TIP3    H130417   2.707   3.864   8.796
 2074TIP3    H230418   2.672   3.989   8.873
 2075TIP3   OH230419   1.900   5.560   7.723
 2075TIP3    H130420   1.853   5.530   7.645
 2075TIP3    H230421   1.941   5.481   7.758
 2076TIP3   OH230422   2.011   5.342   7.838
 2076TIP3    H130423   1.990   5.275   7.903
 2076TIP3    H230424   2.106   5.348   7.839
 2077TIP3   OH230425   3.775   5.496   8.160
 2077TIP3    H130426   3.765   5.468   8.251
 2077TIP3    H230427   3.819   5.581   8.165
 2078TIP3   OH230428   3.726   5.416   8.416
 2078TIP3    H130429   3.672   5.342   8.390
 2078TIP3    H230430   3.768   5.387   8.497
 2079TIP3   OH230431   3.575   5.054   8.847
 2079TIP3    H130432   3.495   5.054   8.899
 2079TIP3    H230433   3.628   5.124   8.885
 2080TIP3   OH230434   3.722   4.822   7.377
 2080TIP3    H130435   3.785   4.894   7.373
 2080TIP3    H230436   3.749   4.770   7.452
 2081TIP3   OH230437   3.760   4.667   7.612
 2081TIP3    H130438   3.671   4.672   7.648
 2081TIP3    H230439   3.816   4.694   7.685
 2082TIP3   OH230440   3.770   5.005   8.138
 2082TIP3    H130441   3.818   4.936   8.093
 2082TIP3    H230442   3.808   5.086   8.106
 2083TIP3   OH230443   3.548   5.222   8.346
 2083TIP3    H130444   3.477   5.273   8.384
 2083TIP3    H230445   3.519   5.204   8.256
 2084TIP3   OH230446   3.761   4.681   7.131
 2084TIP3    H130447   3.676   4.700   7.092
 2084TIP3    H230448   3.761   4.728   7.214
 2085TIP3   OH230449   1.966   4.739   8.123
 2085TIP3    H130450   1.966   4.718   8.030
 2085TIP3    H230451   2.054   4.716   8.153
 2086TIP3   OH230452   3.564   4.736   8.599
 2086TIP3    H130453   3.625   4.671   8.565
 2086TIP3    H230454   3.575   4.812   8.541
 2087TIP3   OH230455   3.709   4.489   8.582
 2087TIP3    H130456   3.627   4.463   8.625
 2087TIP3    H230457   3.766   4.413   8.592
 2088TIP3   OH230458   3.467   4.547   8.004
 2088TIP3    H130459   3.537   4.511   7.949
 2088TIP3    H230460   3.478   4.504   8.089
 2089TIP3   OH230461   3.517   4.471   8.279
 2089TIP3    H130462   3.445   4.499   8.335
 2089TIP3    H230463   3.576   4.546   8.277
 2090TIP3   OH230464   1.991   4.227   8.575
 2090TIP3    H130465   2.054   4.215   8.646
 2090TIP3    H230466   1.914   4.177   8.602
 2091TIP3   OH230467   3.749   3.845   8.815
 2091TIP3    H130468   3.817   3.790   8.776
 2091TIP3    H230469   3.741   3.920   8.755
 2092TIP3   OH230470   2.105   4.126   7.969
 2092TIP3    H130471   2.137   4.036   7.970
 2092TIP3    H230472   2.184   4.180   7.958
 2093TIP3   OH230473   1.912   4.410   8.048
 2093TIP3    H130474   1.994   4.421   8.000
 2093TIP3    H230475   1.939   4.396   8.139
 2094TIP3   OH230476   3.670   4.049   8.650
 2094TIP3    H130477   3.602   4.091   8.702
 2094TIP3    H230478   3.623   4.006   8.579
 2095TIP3   OH230479   1.995   3.992   7.475
 2095TIP3    H130480   1.999   4.046   7.554
 2095TIP3    H230481   2.020   4.052   7.404
 2096TIP3   OH230482   1.943   3.914   8.372
 2096TIP3    H130483   1.861   3.873   8.400
 2096TIP3    H230484   1.918   3.970   8.298
 2097TIP3   OH230485   2.160   5.251   8.653
 2097TIP3    H130486   2.066   5.259   8.671
 2097TIP3    H230487   2.180   5.158   8.668
 2098TIP3   OH230488   2.513   5.381   8.365
 2098TIP3    H130489   2.488   5.471   8.344
 2098TIP3    H230490   2.604   5.375   8.336
 2099TIP3   OH230491   2.839   5.477   8.604
 2099TIP3    H130492   2.856   5.444   8.692
 2099TIP3    H230493   2.911   5.538   8.587
 2100TIP3   OH230494   3.052   5.645   8.554
 2100TIP3    H130495   3.094   5.582   8.495
 2100TIP3    H230496   3.111   5.650   8.629
 2101TIP3   OH230497   3.527   3.879   8.482
 2101TIP3    H130498   3.486   3.915   8.404
 2101TIP3    H230499   3.558   3.792   8.456
 2102TIP3   OH230500   2.154   5.626   8.395
 2102TIP3    H130501   2.121   5.684   8.327
 2102TIP3    H230502   2.182   5.684   8.465
 2103TIP3   OH230503   2.438   5.641   8.312
 2103TIP3    H130504   2.345   5.628   8.331
 2103TIP3    H230505   2.440   5.679   8.224
 2104TIP3   OH230506   2.901   5.595   8.175
 2104TIP3    H130507   2.836   5.617   8.109
 2104TIP3    H230508   2.917   5.677   8.221
 2105TIP3   OH230509   3.102   5.481   8.327
 2105TIP3    H130510   3.036   5.517   8.268
 2105TIP3    H230511   3.185   5.519   8.295
 2106TIP3   OH230512   3.352   5.576   8.271
 2106TIP3    H130513   3.391   5.663   8.271
 2106TIP3    H230514   3.400   5.528   8.203
 2107TIP3   OH230515   2.166   5.505   8.059
 2107TIP3    H130516   2.174   5.450   8.137
 2107TIP3    H230517   2.213   5.457   7.991
 2108TIP3   OH230518   2.283   5.355   7.859
 2108TIP3    H130519   2.307   5.266   7.885
 2108TIP3    H230520   2.356   5.385   7.805
 2109TIP3   OH230521   2.619   5.406   8.033
 2109TIP3    H130522   2.595   5.326   7.985
 2109TIP3    H230523   2.666   5.374   8.110
 2110TIP3   OH230524   2.867   3.909   7.794
 2110TIP3    H130525   2.815   3.864   7.861
 2110TIP3    H230526   2.957   3.900   7.824
 2111TIP3   OH230527   3.568   3.717   7.786
 2111TIP3    H130528   3.660   3.711   7.761
 2111TIP3    H230529   3.533   3.785   7.730
 2112TIP3   OH230530   2.169   3.801   7.698
 2112TIP3    H130531   2.082   3.774   7.668
 2112TIP3    H230532   2.226   3.728   7.674
 2113TIP3   OH230533   2.138   3.777   7.352
 2113TIP3    H130534   2.151   3.824   7.269
 2113TIP3    H230535   2.095   3.841   7.409
 2114TIP3   OH230536   2.723   3.783   7.583
 2114TIP3    H130537   2.769   3.799   7.501
 2114TIP3    H230538   2.775   3.829   7.649
 2115TIP3   OH230539   3.152   3.931   7.830
 2115TIP3    H130540   3.198   3.963   7.752
 2115TIP3    H230541   3.147   3.836   7.817
 2116TIP3   OH230542   1.860   5.507   7.205
 2116TIP3    H130543   1.895   5.573   7.146
 2116TIP3    H230544   1.795   5.554   7.257
 2117TIP3   OH230545   2.642   4.009   7.316
 2117TIP3    H130546   2.711   3.943   7.312
 2117TIP3    H230547   2.684   4.084   7.359
 2118TIP3   OH230548   3.718   5.482   7.466
 2118TIP3    H130549   3.634   5.438   7.451
 2118TIP3    H230550   3.702   5.573   7.439
 2119TIP3   OH230551   2.209   3.870   8.680
 2119TIP3    H130552   2.136   3.809   8.694
 2119TIP3    H230553   2.282   3.832   8.728
 2120TIP3   OH230554   2.410   3.750   8.830
 2120TIP3    H130555   2.487   3.768   8.776
 2120TIP3    H230556   2.418   3.657   8.852
 2121TIP3   OH230557   3.213   3.797   8.829
 2121TIP3    H130558   3.209   3.746   8.910
 2121TIP3    H230559   3.306   3.796   8.804
 2122TIP3   OH230560   3.529   5.392   8.696
 2122TIP3    H130561   3.475   5.373   8.620
 2122TIP3    H230562   3.512   5.484   8.716
 2123TIP3   OH230563   4.078   4.636   8.227
 2123TIP3    H130564   4.077   4.543   8.252
 2123TIP3    H230565   4.108   4.682   8.306
 2124TIP3   OH230566   5.174   5.023   7.991
 2124TIP3    H130567   5.101   4.992   8.045
 2124TIP3    H230568   5.189   5.113   8.020
 2125TIP3   OH230569   4.361   5.042   7.965
 2125TIP3    H130570   4.301   4.979   7.927
 2125TIP3    H230571   4.334   5.051   8.056
 2126TIP3   OH230572   3.901   4.426   7.547
 2126TIP3    H130573   3.854   4.509   7.561
 2126TIP3    H230574   3.860   4.366   7.610
 2127TIP3   OH230575   3.956   4.703   7.816
 2127TIP3    H130576   3.990   4.614   7.815
 2127TIP3    H230577   4.034   4.758   7.819
 2128TIP3   OH230578   5.023   5.500   7.877
 2128TIP3    H130579   5.048   5.432   7.814
 2128TIP3    H230580   5.050   5.582   7.834
 2129TIP3   OH230581   5.604   4.114   8.121
 2129TIP3    H130582   5.624   4.193   8.172
 2129TIP3    H230583   5.678   4.104   8.062
 2130TIP3   OH230584   5.005   4.465   8.028
 2130TIP3    H130585   5.046   4.378   8.035
 2130TIP3    H230586   4.921   4.449   7.985
 2131TIP3   OH230587   4.413   4.194   7.797
 2131TIP3    H130588   4.423   4.274   7.745
 2131TIP3    H230589   4.365   4.134   7.740
 2132TIP3   OH230590   5.073   4.307   7.640
 2132TIP3    H130591   5.027   4.234   7.598
 2132TIP3    H230592   5.095   4.367   7.568
 2133TIP3   OH230593   4.048   4.446   7.826
 2133TIP3    H130594   4.085   4.383   7.888
 2133TIP3    H230595   4.072   4.412   7.739
 2134TIP3   OH230596   4.565   4.577   7.863
 2134TIP3    H130597   4.634   4.513   7.880
 2134TIP3    H230598   4.511   4.536   7.794
 2135TIP3   OH230599   5.656   4.325   8.289
 2135TIP3    H130600   5.572   4.367   8.310
 2135TIP3    H230601   5.694   4.304   8.375
 2136TIP3   OH230602   4.219   4.088   8.194
 2136TIP3    H130603   4.190   4.145   8.123
 2136TIP3    H230604   4.151   4.096   8.261
 2137TIP3   OH230605   4.535   4.883   8.212
 2137TIP3    H130606   4.461   4.940   8.232
 2137TIP3    H230607   4.612   4.940   8.218
 2138TIP3   OH230608   4.194   4.253   7.972
 2138TIP3    H130609   4.241   4.322   8.020
 2138TIP3    H230610   4.258   4.219   7.909
 2139TIP3   OH230611   4.347   5.082   8.280
 2139TIP3    H130612   4.359   5.177   8.286
 2139TIP3    H230613   4.261   5.067   8.319
 2140TIP3   OH230614   3.867   5.060   7.326
 2140TIP3    H130615   3.787   5.097   7.289
 2140TIP3    H230616   3.902   5.130   7.381
 2141TIP3   OH230617   5.211   5.280   8.092
 2141TIP3    H130618   5.124   5.313   8.116
 2141TIP3    H230619   5.257   5.357   8.059
 2142TIP3   OH230620   5.333   4.074   8.177
 2142TIP3    H130621   5.275   4.137   8.135
 2142TIP3    H230622   5.421   4.098   8.147
 2143TIP3   OH230623   4.512   3.765   7.889
 2143TIP3    H130624   4.518   3.672   7.913
 2143TIP3    H230625   4.438   3.798   7.941
 2144TIP3   OH230626   5.135   5.354   7.667
 2144TIP3    H130627   5.160   5.262   7.676
 2144TIP3    H230628   5.217   5.402   7.665
 2145TIP3   OH230629   5.211   5.092   7.715
 2145TIP3    H130630   5.265   5.031   7.665
 2145TIP3    H230631   5.210   5.056   7.804
 2146TIP3   OH230632   5.385   5.019   8.414
 2146TIP3    H130633   5.376   4.964   8.336
 2146TIP3    H230634   5.397   5.107   8.379
 2147TIP3   OH230635   4.827   4.840   7.381
 2147TIP3    H130636   4.803   4.929   7.409
 2147TIP3    H230637   4.820   4.842   7.285
 2148TIP3   OH230638   4.845   4.600   7.048
 2148TIP3    H130639   4.823   4.693   7.047
 2148TIP3    H230640   4.939   4.598   7.068
 2149TIP3   OH230641   5.505   4.716   8.296
 2149TIP3    H130642   5.446   4.775   8.249
 2149TIP3    H230643   5.587   4.720   8.247
 2150TIP3   OH230644   5.177   4.526   8.480
 2150TIP3    H130645   5.175   4.599   8.541
 2150TIP3    H230646   5.121   4.554   8.407
 2151TIP3   OH230647   4.318   4.720   7.648
 2151TIP3    H130648   4.281   4.732   7.561
 2151TIP3    H230649   4.343   4.628   7.652
 2152TIP3   OH230650   4.396   4.699   8.044
 2152TIP3    H130651   4.459   4.659   7.983
 2152TIP3    H230652   4.449   4.761   8.095
 2153TIP3   OH230653   4.962   5.353   8.201
 2153TIP3    H130654   4.978   5.372   8.294
 2153TIP3    H230655   4.937   5.261   8.199
 2154TIP3   OH230656   4.499   5.094   8.525
 2154TIP3    H130657   4.443   5.151   8.578
 2154TIP3    H230658   4.449   5.077   8.446
 2155TIP3   OH230659   4.134   4.726   8.487
 2155TIP3    H130660   4.146   4.803   8.544
 2155TIP3    H230661   4.040   4.706   8.494
 2156TIP3   OH230662   4.334   5.283   8.640
 2156TIP3    H130663   4.335   5.322   8.552
 2156TIP3    H230664   4.242   5.282   8.665
 2157TIP3   OH230665   4.207   4.721   7.396
 2157TIP3    H130666   4.169   4.794   7.349
 2157TIP3    H230667   4.186   4.644   7.343
 2158TIP3   OH230668   5.464   5.247   7.242
 2158TIP3    H130669   5.430   5.303   7.172
 2158TIP3    H230670   5.438   5.158   7.217
 2159TIP3   OH230671   3.881   4.960   8.387
 2159TIP3    H130672   3.837   4.970   8.303
 2159TIP3    H230673   3.879   4.866   8.404
 2160TIP3   OH230674   3.889   5.252   8.089
 2160TIP3    H130675   3.961   5.267   8.150
 2160TIP3    H230676   3.834   5.331   8.097
 2161TIP3   OH230677   5.674   5.315   8.660
 2161TIP3    H130678   5.662   5.224   8.634
 2161TIP3    H230679   5.588   5.343   8.691
 2162TIP3   OH230680   4.730   5.245   8.518
 2162TIP3    H130681   4.712   5.322   8.571
 2162TIP3    H230682   4.652   5.191   8.526
 2163TIP3   OH230683   4.822   5.568   7.387
 2163TIP3    H130684   4.784   5.519   7.315
 2163TIP3    H230685   4.753   5.571   7.453
 2164TIP3   OH230686   4.076   5.469   7.610
 2164TIP3    H130687   4.170   5.470   7.627
 2164TIP3    H230688   4.037   5.433   7.690
 2165TIP3   OH230689   5.034   5.538   7.128
 2165TIP3    H130690   5.065   5.493   7.048
 2165TIP3    H230691   5.062   5.481   7.199
 2166TIP3   OH230692   5.080   5.481   7.418
 2166TIP3    H130693   4.988   5.508   7.412
 2166TIP3    H230694   5.084   5.430   7.499
 2167TIP3   OH230695   5.363   4.370   8.639
 2167TIP3    H130696   5.304   4.426   8.588
 2167TIP3    H230697   5.365   4.287   8.590
 2168TIP3   OH230698   4.115   5.098   8.430
 2168TIP3    H130699   4.134   5.066   8.518
 2168TIP3    H230700   4.033   5.056   8.406
 2169TIP3   OH230701   4.299   3.872   8.039
 2169TIP3    H130702   4.216   3.862   7.992
 2169TIP3    H230703   4.288   3.952   8.090
 2170TIP3   OH230704   4.802   3.987   8.426
 2170TIP3    H130705   4.844   3.927   8.487
 2170TIP3    H230706   4.715   3.949   8.412
 2171TIP3   OH230707   5.082   4.262   8.496
 2171TIP3    H130708   5.032   4.243   8.575
 2171TIP3    H230709   5.104   4.355   8.504
 2172TIP3   OH230710   4.323   4.444   8.127
 2172TIP3    H130711   4.255   4.437   8.194
 2172TIP3    H230712   4.323   4.537   8.103
 2173TIP3   OH230713   4.403   4.453   7.656
 2173TIP3    H130714   4.320   4.408   7.641
 2173TIP3    H230715   4.439   4.466   7.569
 2174TIP3   OH230716   4.877   4.589   7.498
 2174TIP3    H130717   4.864   4.671   7.451
 2174TIP3    H230718   4.962   4.557   7.468
 2175TIP3   OH230719   4.806   4.466   8.613
 2175TIP3    H130720   4.758   4.394   8.656
 2175TIP3    H230721   4.889   4.471   8.661
 2176TIP3   OH230722   4.138   4.383   8.327
 2176TIP3    H130723   4.196   4.416   8.396
 2176TIP3    H230724   4.109   4.298   8.359
 2177TIP3   OH230725   3.802   4.225   7.717
 2177TIP3    H130726   3.822   4.162   7.786
 2177TIP3    H230727   3.801   4.172   7.637
 2178TIP3   OH230728   4.022   4.305   7.336
 2178TIP3    H130729   4.004   4.352   7.255
 2178TIP3    H230730   3.973   4.353   7.404
 2179TIP3   OH230731   4.999   4.589   8.272
 2179TIP3    H130732   5.014   4.547   8.187
 2179TIP3    H230733   4.914   4.555   8.301
 2180TIP3   OH230734   4.692   4.136   7.820
 2180TIP3    H130735   4.596   4.139   7.825
 2180TIP3    H230736   4.715   4.052   7.861
 2181TIP3   OH230737   4.175   4.302   7.612
 2181TIP3    H130738   4.106   4.313   7.546
 2181TIP3    H230739   4.193   4.208   7.612
 2182TIP3   OH230740   4.489   4.496   7.392
 2182TIP3    H130741   4.573   4.452   7.405
 2182TIP3    H230742   4.434   4.431   7.349
 2183TIP3   OH230743   5.085   4.202   8.080
 2183TIP3    H130744   5.024   4.199   8.154
 2183TIP3    H230745   5.049   4.139   8.018
 2184TIP3   OH230746   5.396   5.682   8.720
 2184TIP3    H130747   5.425   5.697   8.631
 2184TIP3    H230748   5.466   5.717   8.775
 2185TIP3   OH230749   4.141   4.940   8.664
 2185TIP3    H130750   4.214   4.926   8.725
 2185TIP3    H230751   4.063   4.942   8.720
 2186TIP3   OH230752   4.750   4.378   7.939
 2186TIP3    H130753   4.747   4.298   7.886
 2186TIP3    H230754   4.696   4.359   8.015
 2187TIP3   OH230755   4.254   4.030   7.638
 2187TIP3    H130756   4.175   3.975   7.642
 2187TIP3    H230757   4.324   3.969   7.616
 2188TIP3   OH230758   4.578   4.344   8.151
 2188TIP3    H130759   4.491   4.383   8.139
 2188TIP3    H230760   4.617   4.395   8.221
 2189TIP3   OH230761   5.360   4.903   8.159
 2189TIP3    H130762   5.442   4.944   8.134
 2189TIP3    H230763   5.297   4.933   8.094
 2190TIP3   OH230764   5.095   4.226   7.247
 2190TIP3    H130765   5.047   4.207   7.167
 2190TIP3    H230766   5.177   4.178   7.239
 2191TIP3   OH230767   4.907   5.023   8.510
 2191TIP3    H130768   4.902   4.958   8.580
 2191TIP3    H230769   4.844   5.090   8.534
 2192TIP3   OH230770   5.117   4.471   7.415
 2192TIP3    H130771   5.122   4.405   7.346
 2192TIP3    H230772   5.183   4.536   7.392
 2193TIP3   OH230773   4.211   4.823   7.876
 2193TIP3    H130774   4.247   4.797   7.791
 2193TIP3    H230775   4.257   4.769   7.940
 2194TIP3   OH230776   3.859   4.690   8.466
 2194TIP3    H130777   3.832   4.619   8.525
 2194TIP3    H230778   3.807   4.676   8.387
 2195TIP3   OH230779   4.634   4.679   8.628
 2195TIP3    H130780   4.590   4.675   8.543
 2195TIP3    H230781   4.702   4.611   8.624
 2196TIP3   OH230782   4.990   5.356   8.507
 2196TIP3    H130783   4.901   5.322   8.497
 2196TIP3    H230784   5.022   5.315   8.588
 2197TIP3   OH230785   5.565   4.421   7.312
 2197TIP3    H130786   5.514   4.434   7.392
 2197TIP3    H230787   5.600   4.508   7.292
 2198TIP3   OH230788   5.625   5.062   8.559
 2198TIP3    H130789   5.535   5.043   8.533
 2198TIP3    H230790   5.679   5.014   8.496
 2199TIP3   OH230791   5.357   5.458   7.384
 2199TIP3    H130792   5.265   5.440   7.369
 2199TIP3    H230793   5.403   5.387   7.340
 2200TIP3   OH230794   4.994   4.834   8.127
 2200TIP3    H130795   5.000   4.770   8.198
 2200TIP3    H230796   5.013   4.783   8.048
 2201TIP3   OH230797   4.644   5.329   8.265
 2201TIP3    H130798   4.686   5.414   8.253
 2201TIP3    H230799   4.691   5.289   8.338
 2202TIP3   OH230800   4.347   5.488   7.676
 2202TIP3    H130801   4.410   5.472   7.606
 2202TIP3    H230802   4.374   5.571   7.714
 2203TIP3   OH230803   4.920   5.079   8.238
 2203TIP3    H130804   4.917   5.060   8.332
 2203TIP3    H230805   4.940   4.995   8.197
 2204TIP3   OH230806   5.248   5.448   8.462
 2204TIP3    H130807   5.156   5.424   8.470
 2204TIP3    H230808   5.248   5.530   8.413
 2205TIP3   OH230809   4.054   4.127   8.418
 2205TIP3    H130810   3.975   4.164   8.457
 2205TIP3    H230811   4.070   4.046   8.467
 2206TIP3   OH230812   4.079   5.342   8.277
 2206TIP3    H130813   4.098   5.270   8.337
 2206TIP3    H230814   4.077   5.420   8.333
 2207TIP3   OH230815   4.091   4.913   7.231
 2207TIP3    H130816   4.014   4.964   7.257
 2207TIP3    H230817   4.156   4.980   7.208
 2208TIP3   OH230818   4.904   4.208   8.297
 2208TIP3    H130819   4.972   4.223   8.363
 2208TIP3    H230820   4.858   4.129   8.327
 2209TIP3   OH230821   4.915   4.163   7.454
 2209TIP3    H130822   4.980   4.166   7.383
 2209TIP3    H230823   4.848   4.226   7.427
 2210TIP3   OH230824   4.718   4.368   7.522
 2210TIP3    H130825   4.768   4.448   7.510
 2210TIP3    H230826   4.753   4.329   7.602
 2211TIP3   OH230827   4.763   4.450   8.340
 2211TIP3    H130828   4.772   4.451   8.436
 2211TIP3    H230829   4.801   4.366   8.314
 2212TIP3   OH230830   4.702   4.005   7.570
 2212TIP3    H130831   4.719   4.048   7.654
 2212TIP3    H230832   4.782   4.019   7.519
 2213TIP3   OH230833   4.549   5.527   7.479
 2213TIP3    H130834   4.513   5.567   7.399
 2213TIP3    H230835   4.579   5.441   7.451
 2214TIP3   OH230836   4.323   4.299   7.295
 2214TIP3    H130837   4.230   4.280   7.310
 2214TIP3    H230838   4.369   4.237   7.351
 2215TIP3   OH230839   5.327   4.145   8.452
 2215TIP3    H130840   5.235   4.169   8.462
 2215TIP3    H230841   5.334   4.112   8.362
 2216TIP3   OH230842   5.352   5.515   8.057
 2216TIP3    H130843   5.348   5.586   7.993
 2216TIP3    H230844   5.446   5.501   8.071
 2217TIP3   OH230845   4.043   3.855   7.937
 2217TIP3    H130846   4.043   3.857   7.841
 2217TIP3    H230847   4.030   3.763   7.959
 2218TIP3   OH230848   3.922   5.295   7.457
 2218TIP3    H130849   3.845   5.351   7.463
 2218TIP3    H230850   3.990   5.343   7.504
 2219TIP3   OH230851   3.917   5.577   8.727
 2219TIP3    H130852   3.970   5.548   8.801
 2219TIP3    H230853   3.877   5.497   8.693
 2220TIP3   OH230854   4.333   5.425   8.906
 2220TIP3    H130855   4.393   5.403   8.977
 2220TIP3    H230856   4.356   5.365   8.835
 2221TIP3   OH230857   4.685   5.455   7.171
 2221TIP3    H130858   4.667   5.389   7.238
 2221TIP3    H230859   4.727   5.406   7.100
 2222TIP3   OH230860   5.048   5.251   8.755
 2222TIP3    H130861   5.040   5.163   8.791
 2222TIP3    H230862   5.121   5.290   8.802
 2223TIP3   OH230863   3.902   4.937   8.814
 2223TIP3    H130864   3.844   4.865   8.838
 2223TIP3    H230865   3.854   4.986   8.748
 2224TIP3   OH230866   4.589   4.931   8.727
 2224TIP3    H130867   4.566   4.981   8.648
 2224TIP3    H230868   4.618   4.846   8.693
 2225TIP3   OH230869   5.176   4.997   8.592
 2225TIP3    H130870   5.248   5.018   8.532
 2225TIP3    H230871   5.098   5.030   8.548
 2226TIP3   OH230872   4.047   4.511   8.764
 2226TIP3    H130873   4.139   4.485   8.762
 2226TIP3    H230874   4.040   4.570   8.838
 2227TIP3   OH230875   4.451   4.636   7.122
 2227TIP3    H130876   4.364   4.670   7.103
 2227TIP3    H230877   4.454   4.629   7.218
 2228TIP3   OH230878   4.327   4.528   8.471
 2228TIP3    H130879   4.263   4.597   8.489
 2228TIP3    H230880   4.401   4.573   8.432
 2229TIP3   OH230881   4.932   4.832   8.720
 2229TIP3    H130882   5.017   4.794   8.696
 2229TIP3    H230883   4.893   4.768   8.780
 2230TIP3   OH230884   4.437   4.289   8.557
 2230TIP3    H130885   4.446   4.233   8.480
 2230TIP3    H230886   4.407   4.373   8.522
 2231TIP3   OH230887   4.455   4.152   8.316
 2231TIP3    H130888   4.507   4.199   8.250
 2231TIP3    H230889   4.374   4.130   8.271
 2232TIP3   OH230890   4.553   4.648   8.366
 2232TIP3    H130891   4.628   4.598   8.334
 2232TIP3    H230892   4.548   4.724   8.308
 2233TIP3   OH230893   5.043   4.462   8.776
 2233TIP3    H130894   5.019   4.370   8.773
 2233TIP3    H230895   5.137   4.462   8.794
 2234TIP3   OH230896   5.215   4.741   8.655
 2234TIP3    H130897   5.200   4.834   8.640
 2234TIP3    H230898   5.306   4.726   8.629
 2235TIP3   OH230899   4.272   4.325   8.775
 2235TIP3    H130900   4.194   4.271   8.761
 2235TIP3    H230901   4.324   4.314   8.695
 2236TIP3   OH230902   4.537   3.899   8.392
 2236TIP3    H130903   4.509   3.987   8.367
 2236TIP3    H230904   4.475   3.841   8.349
 2237TIP3   OH230905   4.658   4.260   8.728
 2237TIP3    H130906   4.623   4.224   8.810
 2237TIP3    H230907   4.584   4.260   8.668
 2238TIP3   OH230908   4.940   4.217   8.727
 2238TIP3    H130909   4.845   4.206   8.734
 2238TIP3    H230910   4.977   4.146   8.778
 2239TIP3   OH230911   5.073   4.037   8.880
 2239TIP3    H130912   5.073   3.943   8.861
 2239TIP3    H230913   5.047   4.043   8.973
 2240TIP3   OH230914   4.059   4.142   8.748
 2240TIP3    H130915   4.067   4.066   8.691
 2240TIP3    H230916   4.070   4.106   8.837
 2241TIP3   OH230917   4.538   3.795   8.645
 2241TIP3    H130918   4.591   3.717   8.635
 2241TIP3    H230919   4.539   3.836   8.558
 2242TIP3   OH230920   4.605   3.922   8.879
 2242TIP3    H130921   4.591   3.874   8.797
 2242TIP3    H230922   4.541   3.993   8.877
 2243TIP3   OH230923   4.513   5.663   7.231
 2243TIP3    H130924   4.559   5.587   7.195
 2243TIP3    H230925   4.499   5.721   7.156
 2244TIP3   OH230926   3.717   5.517   7.742
 2244TIP3    H130927   3.724   5.503   7.647
 2244TIP3    H230928   3.797   5.478   7.778
 2245TIP3   OH230929   3.948   5.391   7.842
 2245TIP3    H130930   3.913   5.311   7.883
 2245TIP3    H230931   4.007   5.427   7.908
 2246TIP3   OH230932   5.612   5.499   8.147
 2246TIP3    H130933   5.614   5.466   8.237
 2246TIP3    H230934   5.660   5.582   8.151
 2247TIP3   OH230935   5.602   5.413   8.408
 2247TIP3    H130936   5.541   5.345   8.379
 2247TIP3    H230937   5.645   5.376   8.485
 2248TIP3   OH230938   5.479   5.042   8.870
 2248TIP3    H130939   5.391   5.047   8.908
 2248TIP3    H230940   5.524   5.120   8.902
 2249TIP3   OH230941   5.599   5.011   8.107
 2249TIP3    H130942   5.669   4.946   8.105
 2249TIP3    H230943   5.642   5.093   8.086
 2250TIP3   OH230944   5.389   5.269   8.310
 2250TIP3    H130945   5.336   5.329   8.363
 2250TIP3    H230946   5.342   5.263   8.227
 2251TIP3   OH230947   5.398   4.485   7.093
 2251TIP3    H130948   5.445   4.461   7.173
 2251TIP3    H230949   5.384   4.402   7.048
 2252TIP3   OH230950   3.887   4.760   8.075
 2252TIP3    H130951   3.903   4.743   7.982
 2252TIP3    H230952   3.962   4.720   8.120
 2253TIP3   OH230953   5.475   4.707   8.575
 2253TIP3    H130954   5.528   4.629   8.586
 2253TIP3    H230955   5.486   4.732   8.483
 2254TIP3   OH230956   5.619   4.476   8.613
 2254TIP3    H130957   5.532   4.436   8.625
 2254TIP3    H230958   5.675   4.402   8.590
 2255TIP3   OH230959   5.420   4.460   8.339
 2255TIP3    H130960   5.333   4.473   8.376
 2255TIP3    H230961   5.452   4.548   8.321
 2256TIP3   OH230962   3.850   4.243   8.581
 2256TIP3    H130963   3.919   4.238   8.648
 2256TIP3    H230964   3.788   4.175   8.605
 2257TIP3   OH230965   5.688   3.866   8.802
 2257TIP3    H130966   5.718   3.777   8.816
 2257TIP3    H230967   5.746   3.902   8.736
 2258TIP3   OH230968   3.917   4.099   7.977
 2258TIP3    H130969   3.955   4.011   7.967
 2258TIP3    H230970   3.991   4.158   7.968
 2259TIP3   OH230971   3.675   4.431   7.854
 2259TIP3    H130972   3.700   4.352   7.807
 2259TIP3    H230973   3.757   4.478   7.869
 2260TIP3   OH230974   5.531   4.110   8.630
 2260TIP3    H130975   5.477   4.088   8.706
 2260TIP3    H230976   5.471   4.105   8.556
 2261TIP3   OH230977   3.850   4.103   7.469
 2261TIP3    H130978   3.830   4.024   7.419
 2261TIP3    H230979   3.912   4.151   7.413
 2262TIP3   OH230980   5.330   5.563   7.632
 2262TIP3    H130981   5.351   5.527   7.545
 2262TIP3    H230982   5.406   5.617   7.654
 2263TIP3   OH230983   3.821   3.807   8.291
 2263TIP3    H130984   3.750   3.766   8.341
 2263TIP3    H230985   3.783   3.886   8.254
 2264TIP3   OH230986   4.074   5.301   8.725
 2264TIP3    H130987   3.982   5.297   8.699
 2264TIP3    H230988   4.073   5.347   8.809
 2265TIP3   OH230989   4.389   5.349   8.364
 2265TIP3    H130990   4.364   5.439   8.344
 2265TIP3    H230991   4.480   5.342   8.333
 2266TIP3   OH230992   4.721   5.480   8.659
 2266TIP3    H130993   4.738   5.437   8.742
 2266TIP3    H230994   4.795   5.541   8.647
 2267TIP3   OH230995   4.952   5.627   8.624
 2267TIP3    H130996   4.995   5.546   8.598
 2267TIP3    H230997   5.010   5.665   8.691
 2268TIP3   OH230998   5.470   3.808   8.454
 2268TIP3    H130999   5.397   3.806   8.392
 2268TIP3    H231000   5.519   3.727   8.435
 2269TIP3   OH231001   4.082   5.603   8.401
 2269TIP3    H131002   4.004   5.640   8.359
 2269TIP3    H231003   4.092   5.653   8.482
 2270TIP3   OH231004   4.340   5.616   8.308
 2270TIP3    H131005   4.251   5.611   8.343
 2270TIP3    H231006   4.330   5.661   8.224
 2271TIP3   OH231007   4.738   5.586   8.222
 2271TIP3    H131008   4.667   5.632   8.177
 2271TIP3    H231009   4.763   5.646   8.293
 2272TIP3   OH231010   5.026   5.669   8.237
 2272TIP3    H131011   4.975   5.717   8.302
 2272TIP3    H231012   5.117   5.685   8.260
 2273TIP3   OH231013   5.300   5.660   8.284
 2273TIP3    H131014   5.328   5.746   8.252
 2273TIP3    H231015   5.314   5.601   8.210
 2274TIP3   OH231016   4.134   5.469   8.030
 2274TIP3    H131017   4.121   5.428   8.115
 2274TIP3    H231018   4.207   5.420   7.991
 2275TIP3   OH231019   4.327   5.319   7.900
 2275TIP3    H131020   4.338   5.224   7.889
 2275TIP3    H231021   4.334   5.354   7.811
 2276TIP3   OH231022   4.534   5.439   8.032
 2276TIP3    H131023   4.463   5.395   7.985
 2276TIP3    H231024   4.560   5.376   8.100
 2277TIP3   OH231025   4.760   3.880   7.911
 2277TIP3    H131026   4.675   3.838   7.901
 2277TIP3    H231027   4.823   3.812   7.889
 2278TIP3   OH231028   4.052   3.841   7.665
 2278TIP3    H131029   3.963   3.808   7.647
 2278TIP3    H231030   4.106   3.762   7.668
 2279TIP3   OH231031   4.473   3.850   7.624
 2279TIP3    H131032   4.557   3.889   7.598
 2279TIP3    H231033   4.489   3.816   7.712
 2280TIP3   OH231034   4.512   4.187   7.467
 2280TIP3    H131035   4.550   4.101   7.483
 2280TIP3    H231036   4.582   4.249   7.484
 2281TIP3   OH231037   4.084   3.897   8.603
 2281TIP3    H131038   4.020   3.832   8.633
 2281TIP3    H231039   4.164   3.876   8.650
 2282TIP3   OH231040   4.290   3.808   8.767
 2282TIP3    H131041   4.377   3.816   8.726
 2282TIP3    H231042   4.282   3.715   8.788
 2283TIP3   OH231043   5.137   3.785   8.786
 2283TIP3    H131044   5.136   3.729   8.864
 2283TIP3    H231045   5.222   3.770   8.746
 2284TIP3   OH231046   5.416   5.408   8.687
 2284TIP3    H131047   5.359   5.407   8.611
 2284TIP3    H231048   5.412   5.499   8.719
 2285TIP3   OH231049   6.870   4.600   7.581
 2285TIP3    H131050   6.880   4.580   7.674
 2285TIP3    H231051   6.812   4.676   7.579
 2286TIP3   OH231052   6.798   4.692   8.056
 2286TIP3    H131053   6.813   4.645   8.138
 2286TIP3    H231054   6.767   4.625   7.995
 2287TIP3   OH231055   5.946   4.629   8.262
 2287TIP3    H131056   5.968   4.537   8.275
 2287TIP3    H231057   5.999   4.676   8.325
 2288TIP3   OH231058   7.257   4.989   7.941
 2288TIP3    H131059   7.178   4.936   7.955
 2288TIP3    H231060   7.232   5.076   7.973
 2289TIP3   OH231061   6.176   5.083   7.941
 2289TIP3    H131062   6.122   5.008   7.915
 2289TIP3    H231063   6.191   5.071   8.035
 2290TIP3   OH231064   5.804   4.697   7.892
 2290TIP3    H131065   5.835   4.608   7.877
 2290TIP3    H231066   5.881   4.752   7.877
 2291TIP3   OH231067   6.646   4.927   8.089
 2291TIP3    H131068   6.684   4.846   8.056
 2291TIP3    H231069   6.706   4.956   8.158
 2292TIP3   OH231070   7.391   4.086   8.154
 2292TIP3    H131071   7.385   4.126   8.241
 2292TIP3    H231072   7.432   4.154   8.099
 2293TIP3   OH231073   6.937   4.346   8.088
 2293TIP3    H131074   6.932   4.250   8.082
 2293TIP3    H231075   6.944   4.376   7.998
 2294TIP3   OH231076   6.283   4.176   7.774
 2294TIP3    H131077   6.285   4.260   7.727
 2294TIP3    H231078   6.238   4.116   7.715
 2295TIP3   OH231079   7.024   4.273   7.675
 2295TIP3    H131080   7.040   4.192   7.723
 2295TIP3    H231081   7.111   4.301   7.645
 2296TIP3   OH231082   5.886   4.428   7.861
 2296TIP3    H131083   5.951   4.375   7.906
 2296TIP3    H231084   5.897   4.408   7.768
 2297TIP3   OH231085   6.385   4.573   7.819
 2297TIP3    H131086   6.476   4.545   7.825
 2297TIP3    H231087   6.344   4.508   7.762
 2298TIP3   OH231088   7.397   4.224   8.391
 2298TIP3    H131089   7.365   4.312   8.370
 2298TIP3    H231090   7.480   4.239   8.436
 2299TIP3   OH231091   6.136   4.100   8.180
 2299TIP3    H131092   6.109   4.156   8.107
 2299TIP3    H231093   6.065   4.110   8.244
 2300TIP3   OH231094   6.701   4.813   7.586
 2300TIP3    H131095   6.730   4.868   7.513
 2300TIP3    H231096   6.610   4.838   7.600
 2301TIP3   OH231097   6.380   4.891   8.172
 2301TIP3    H131098   6.336   4.972   8.197
 2301TIP3    H231099   6.467   4.919   8.143
 2302TIP3   OH231100   7.090   4.039   7.796
 2302TIP3    H131101   7.032   3.966   7.818
 2302TIP3    H231102   7.172   3.997   7.771
 2303TIP3   OH231103   6.086   4.253   7.956
 2303TIP3    H131104   6.138   4.320   8.000
 2303TIP3    H231105   6.144   4.219   7.888
 2304TIP3   OH231106   6.220   5.107   8.257
 2304TIP3    H131107   6.234   5.200   8.275
 2304TIP3    H231108   6.131   5.090   8.288
 2305TIP3   OH231109   7.189   5.221   8.076
 2305TIP3    H131110   7.096   5.210   8.096
 2305TIP3    H231111   7.197   5.312   8.047
 2306TIP3   OH231112   7.129   3.967   8.183
 2306TIP3    H131113   7.055   4.006   8.138
 2306TIP3    H231114   7.206   4.013   8.149
 2307TIP3   OH231115   6.459   3.803   8.011
 2307TIP3    H131116   6.449   3.709   7.997
 2307TIP3    H231117   6.370   3.834   8.032
 2308TIP3   OH231118   7.314   5.035   8.428
 2308TIP3    H131119   7.298   4.980   8.352
 2308TIP3    H231120   7.332   5.122   8.392
 2309TIP3   OH231121   7.445   4.693   8.334
 2309TIP3    H131122   7.379   4.751   8.295
 2309TIP3    H231123   7.485   4.649   8.259
 2310TIP3   OH231124   7.100   4.558   7.433
 2310TIP3    H131125   7.018   4.581   7.476
 2310TIP3    H231126   7.168   4.584   7.495
 2311TIP3   OH231127   7.034   4.512   8.479
 2311TIP3    H131128   7.029   4.594   8.528
 2311TIP3    H231129   6.969   4.521   8.409
 2312TIP3   OH231130   6.230   4.758   7.686
 2312TIP3    H131131   6.218   4.720   7.599
 2312TIP3    H231132   6.283   4.695   7.734
 2313TIP3   OH231133   6.532   5.149   7.968
 2313TIP3    H131134   6.488   5.119   7.888
 2313TIP3    H231135   6.575   5.070   8.002
 2314TIP3   OH231136   6.246   4.691   8.031
 2314TIP3    H131137   6.305   4.660   7.962
 2314TIP3    H231138   6.296   4.758   8.077
 2315TIP3   OH231139   6.928   5.194   8.146
 2315TIP3    H131140   6.884   5.270   8.184
 2315TIP3    H231141   6.885   5.119   8.186
 2316TIP3   OH231142   6.365   5.086   8.510
 2316TIP3    H131143   6.307   5.146   8.557
 2316TIP3    H231144   6.323   5.073   8.425
 2317TIP3   OH231145   6.055   4.741   8.492
 2317TIP3    H131146   6.062   4.831   8.524
 2317TIP3    H231147   5.969   4.712   8.522
 2318TIP3   OH231148   6.195   5.270   8.618
 2318TIP3    H131149   6.197   5.321   8.538
 2318TIP3    H231150   6.104   5.276   8.649
 2319TIP3   OH231151   7.359   3.875   7.298
 2319TIP3    H131152   7.373   3.781   7.309
 2319TIP3    H231153   7.346   3.886   7.204
 2320TIP3   OH231154   6.246   4.652   7.438
 2320TIP3    H131155   6.333   4.651   7.396
 2320TIP3    H231156   6.192   4.596   7.382
 2321TIP3   OH231157   7.313   5.358   7.220
 2321TIP3    H131158   7.275   5.376   7.307
 2321TIP3    H231159   7.394   5.409   7.218
 2322TIP3   OH231160   5.775   4.899   8.396
 2322TIP3    H131161   5.758   4.859   8.311
 2322TIP3    H231162   5.782   4.825   8.456
 2323TIP3   OH231163   5.719   5.257   8.066
 2323TIP3    H131164   5.796   5.269   8.122
 2323TIP3    H231165   5.666   5.335   8.081
 2324TIP3   OH231166   7.560   5.360   8.615
 2324TIP3    H131167   7.578   5.268   8.595
 2324TIP3    H231168   7.470   5.359   8.648
 2325TIP3   OH231169   6.620   5.191   8.517
 2325TIP3    H131170   6.609   5.282   8.545
 2325TIP3    H231171   6.531   5.157   8.510
 2326TIP3   OH231172   6.084   5.454   7.666
 2326TIP3    H131173   6.100   5.418   7.753
 2326TIP3    H231174   6.020   5.395   7.627
 2327TIP3   OH231175   7.194   4.385   8.678
 2327TIP3    H131176   7.150   4.432   8.607
 2327TIP3    H231177   7.197   4.294   8.649
 2328TIP3   OH231178   5.972   5.101   8.386
 2328TIP3    H131179   5.999   5.083   8.476
 2328TIP3    H231180   5.900   5.039   8.371
 2329TIP3   OH231181   6.192   3.859   8.061
 2329TIP3    H131182   6.118   3.837   8.004
 2329TIP3    H231183   6.171   3.945   8.095
 2330TIP3   OH231184   6.657   3.907   8.444
 2330TIP3    H131185   6.702   3.850   8.507
 2330TIP3    H231186   6.565   3.903   8.469
 2331TIP3   OH231187   6.974   4.224   8.513
 2331TIP3    H131188   6.918   4.214   8.590
 2331TIP3    H231189   6.975   4.318   8.496
 2332TIP3   OH231190   7.192   4.730   7.230
 2332TIP3    H131191   7.145   4.658   7.272
 2332TIP3    H231192   7.219   4.786   7.303
 2333TIP3   OH231193   6.670   4.138   7.058
 2333TIP3    H131194   6.605   4.113   7.123
 2333TIP3    H231195   6.642   4.094   6.977
 2334TIP3   OH231196   6.222   4.431   8.117
 2334TIP3    H131197   6.160   4.421   8.189
 2334TIP3    H231198   6.213   4.523   8.090
 2335TIP3   OH231199   6.249   4.412   7.639
 2335TIP3    H131200   6.155   4.403   7.625
 2335TIP3    H231201   6.287   4.418   7.551
 2336TIP3   OH231202   6.790   4.392   7.416
 2336TIP3    H131203   6.808   4.470   7.469
 2336TIP3    H231204   6.875   4.349   7.407
 2337TIP3   OH231205   6.690   4.441   8.613
 2337TIP3    H131206   6.645   4.373   8.663
 2337TIP3    H231207   6.772   4.455   8.660
 2338TIP3   OH231208   6.898   4.461   7.830
 2338TIP3    H131209   6.804   4.450   7.846
 2338TIP3    H231210   6.921   4.389   7.771
 2339TIP3   OH231211   6.052   4.382   8.327
 2339TIP3    H131212   6.110   4.410   8.398
 2339TIP3    H231213   6.018   4.297   8.355
 2340TIP3   OH231214   6.233   4.265   7.138
 2340TIP3    H131215   6.308   4.213   7.167
 2340TIP3    H231216   6.196   4.215   7.065
 2341TIP3   OH231217   5.650   4.175   7.786
 2341TIP3    H131218   5.723   4.157   7.846
 2341TIP3    H231219   5.684   4.153   7.700
 2342TIP3   OH231220   5.805   4.321   7.399
 2342TIP3    H131221   5.854   4.349   7.323
 2342TIP3    H231222   5.713   4.339   7.377
 2343TIP3   OH231223   6.847   4.516   8.276
 2343TIP3    H131224   6.885   4.456   8.212
 2343TIP3    H231225   6.762   4.477   8.298
 2344TIP3   OH231226   6.550   4.211   7.869
 2344TIP3    H131227   6.461   4.188   7.842
 2344TIP3    H231228   6.588   4.128   7.896
 2345TIP3   OH231229   5.980   4.327   7.615
 2345TIP3    H131230   5.919   4.335   7.542
 2345TIP3    H231231   6.012   4.237   7.610
 2346TIP3   OH231232   6.415   4.377   7.410
 2346TIP3    H131233   6.476   4.356   7.481
 2346TIP3    H231234   6.408   4.296   7.360
 2347TIP3   OH231235   6.883   4.074   8.088
 2347TIP3    H131236   6.834   4.088   8.170
 2347TIP3    H231237   6.820   4.032   8.030
 2348TIP3   OH231238   6.136   4.496   7.246
 2348TIP3    H131239   6.044   4.481   7.222
 2348TIP3    H231240   6.183   4.420   7.213
 2349TIP3   OH231241   7.270   5.641   8.732
 2349TIP3    H131242   7.270   5.681   8.645
 2349TIP3    H231243   7.355   5.663   8.769
 2350TIP3   OH231244   6.020   4.981   8.634
 2350TIP3    H131245   6.085   4.968   8.703
 2350TIP3    H231246   5.937   4.991   8.681
 2351TIP3   OH231247   6.637   4.462   7.921
 2351TIP3    H131248   6.608   4.373   7.902
 2351TIP3    H231249   6.591   4.486   8.002
 2352TIP3   OH231250   6.098   4.074   7.587
 2352TIP3    H131251   6.057   3.991   7.610
 2352TIP3    H231252   6.108   4.071   7.492
 2353TIP3   OH231253   6.493   4.489   8.152
 2353TIP3    H131254   6.404   4.456   8.139
 2353TIP3    H231255   6.530   4.434   8.221
 2354TIP3   OH231256   6.480   4.881   7.308
 2354TIP3    H131257   6.487   4.786   7.293
 2354TIP3    H231258   6.465   4.889   7.402
 2355TIP3   OH231259   7.269   4.864   8.218
 2355TIP3    H131260   7.327   4.910   8.158
 2355TIP3    H231261   7.190   4.847   8.167
 2356TIP3   OH231262   6.888   4.084   7.238
 2356TIP3    H131263   6.814   4.102   7.180
 2356TIP3    H231264   6.934   4.168   7.244
 2357TIP3   OH231265   6.707   4.926   8.527
 2357TIP3    H131266   6.738   4.896   8.612
 2357TIP3    H231267   6.678   5.016   8.543
 2358TIP3   OH231268   7.046   4.293   7.355
 2358TIP3    H131269   7.117   4.232   7.376
 2358TIP3    H231270   7.082   4.379   7.377
 2359TIP3   OH231271   6.056   4.833   7.885
 2359TIP3    H131272   6.102   4.816   7.803
 2359TIP3    H231273   6.103   4.779   7.949
 2360TIP3   OH231274   6.738   4.972   7.369
 2360TIP3    H131275   6.740   5.068   7.359
 2360TIP3    H231276   6.660   4.945   7.321
 2361TIP3   OH231277   5.799   4.688   8.582
 2361TIP3    H131278   5.845   4.692   8.666
 2361TIP3    H231279   5.740   4.614   8.590
 2362TIP3   OH231280   6.529   4.669   8.607
 2362TIP3    H131281   6.501   4.687   8.518
 2362TIP3    H231282   6.591   4.596   8.598
 2363TIP3   OH231283   6.899   5.213   8.533
 2363TIP3    H131284   6.807   5.210   8.508
 2363TIP3    H231285   6.897   5.226   8.628
 2364TIP3   OH231286   7.560   5.083   8.560
 2364TIP3    H131287   7.465   5.079   8.544
 2364TIP3    H231288   7.599   5.044   8.481
 2365TIP3   OH231289   7.061   4.811   8.038
 2365TIP3    H131290   6.967   4.799   8.050
 2365TIP3    H231291   7.087   4.740   7.980
 2366TIP3   OH231292   6.374   5.139   7.738
 2366TIP3    H131293   6.359   5.224   7.697
 2366TIP3    H231294   6.296   5.123   7.790
 2367TIP3   OH231295   6.438   4.912   7.586
 2367TIP3    H131296   6.428   4.998   7.627
 2367TIP3    H231297   6.364   4.861   7.618
 2368TIP3   OH231298   6.522   5.376   8.301
 2368TIP3    H131299   6.564   5.462   8.296
 2368TIP3    H231300   6.591   5.317   8.333
 2369TIP3   OH231301   6.352   5.401   7.635
 2369TIP3    H131302   6.260   5.424   7.630
 2369TIP3    H231303   6.395   5.480   7.668
 2370TIP3   OH231304   6.830   4.974   8.289
 2370TIP3    H131305   6.773   4.951   8.362
 2370TIP3    H231306   6.919   4.962   8.324
 2371TIP3   OH231307   7.117   5.363   8.460
 2371TIP3    H131308   7.036   5.316   8.477
 2371TIP3    H231309   7.093   5.432   8.398
 2372TIP3   OH231310   5.947   4.125   8.379
 2372TIP3    H131311   5.867   4.157   8.420
 2372TIP3    H231312   5.937   4.030   8.377
 2373TIP3   OH231313   7.312   4.881   7.423
 2373TIP3    H131314   7.300   4.940   7.497
 2373TIP3    H231315   7.401   4.848   7.431
 2374TIP3   OH231316   5.918   5.345   8.241
 2374TIP3    H131317   5.942   5.271   8.297
 2374TIP3    H231318   5.927   5.422   8.298
 2375TIP3   OH231319   6.404   5.312   6.841
 2375TIP3    H131320   6.416   5.331   6.747
 2375TIP3    H231321   6.333   5.249   6.844
 2376TIP3   OH231322   6.774   4.130   8.339
 2376TIP3    H131323   6.853   4.145   8.390
 2376TIP3    H231324   6.735   4.051   8.378
 2377TIP3   OH231325   6.873   4.078   7.519
 2377TIP3    H131326   6.877   4.070   7.424
 2377TIP3    H231327   6.932   4.150   7.539
 2378TIP3   OH231328   6.717   5.244   7.345
 2378TIP3    H131329   6.630   5.284   7.347
 2378TIP3    H231330   6.757   5.277   7.264
 2379TIP3   OH231331   6.592   4.296   7.599
 2379TIP3    H131332   6.672   4.307   7.547
 2379TIP3    H231333   6.623   4.276   7.687
 2380TIP3   OH231334   6.625   4.360   8.353
 2380TIP3    H131335   6.637   4.385   8.445
 2380TIP3    H231336   6.671   4.276   8.345
 2381TIP3   OH231337   6.725   3.908   7.666
 2381TIP3    H131338   6.638   3.936   7.637
 2381TIP3    H231339   6.785   3.965   7.618
 2382TIP3   OH231340   6.483   5.380   7.389
 2382TIP3    H131341   6.453   5.460   7.346
 2382TIP3    H231342   6.428   5.372   7.466
 2383TIP3   OH231343   7.225   4.120   8.572
 2383TIP3    H131344   7.135   4.123   8.541
 2383TIP3    H231345   7.277   4.148   8.497
 2384TIP3   OH231346   7.130   4.593   7.885
 2384TIP3    H131347   7.047   4.550   7.868
 2384TIP3    H231348   7.175   4.537   7.948
 2385TIP3   OH231349   5.886   4.439   7.162
 2385TIP3    H131350   5.847   4.519   7.127
 2385TIP3    H231351   5.874   4.374   7.094
 2386TIP3   OH231352   7.240   5.490   8.046
 2386TIP3    H131353   7.228   5.557   7.979
 2386TIP3    H231354   7.335   5.482   8.055
 2387TIP3   OH231355   5.947   3.836   7.912
 2387TIP3    H131356   5.965   3.846   7.819
 2387TIP3    H231357   5.902   3.752   7.919
 2388TIP3   OH231358   5.878   5.305   7.568
 2388TIP3    H131359   5.822   5.307   7.646
 2388TIP3    H231360   5.818   5.316   7.495
 2389TIP3   OH231361   5.796   5.578   8.721
 2389TIP3    H131362   5.850   5.550   8.795
 2389TIP3    H231363   5.752   5.498   8.692
 2390TIP3   OH231364   6.237   5.274   8.896
 2390TIP3    H131365   6.243   5.363   8.931
 2390TIP3    H231366   6.237   5.285   8.801
 2391TIP3   OH231367   6.645   5.498   7.032
 2391TIP3    H131368   6.585   5.445   6.980
 2391TIP3    H231369   6.714   5.436   7.058
 2392TIP3   OH231370   6.904   5.234   8.805
 2392TIP3    H131371   6.895   5.158   8.861
 2392TIP3    H231372   6.982   5.279   8.838
 2393TIP3   OH231373   5.777   4.980   8.778
 2393TIP3    H131374   5.738   4.896   8.805
 2393TIP3    H231375   5.716   5.014   8.713
 2394TIP3   OH231376   6.435   4.913   8.714
 2394TIP3    H131377   6.419   4.969   8.638
 2394TIP3    H231378   6.476   4.834   8.677
 2395TIP3   OH231379   7.043   4.987   8.475
 2395TIP3    H131380   7.132   5.020   8.466
 2395TIP3    H231381   6.991   5.065   8.496
 2396TIP3   OH231382   5.960   4.705   8.801
 2396TIP3    H131383   6.037   4.762   8.799
 2396TIP3    H231384   5.945   4.686   8.893
 2397TIP3   OH231385   6.462   4.604   7.267
 2397TIP3    H131386   6.446   4.523   7.315
 2397TIP3    H231387   6.458   4.579   7.175
 2398TIP3   OH231388   6.239   4.538   8.470
 2398TIP3    H131389   6.175   4.606   8.491
 2398TIP3    H231390   6.311   4.584   8.428
 2399TIP3   OH231391   6.461   4.496   7.014
 2399TIP3    H131392   6.397   4.437   6.976
 2399TIP3    H231393   6.513   4.527   6.940
 2400TIP3   OH231394   6.836   4.822   8.756
 2400TIP3    H131395   6.913   4.789   8.712
 2400TIP3    H231396   6.806   4.749   8.811
 2401TIP3   OH231397   6.337   4.300   8.565
 2401TIP3    H131398   6.345   4.246   8.486
 2401TIP3    H231399   6.314   4.387   8.531
 2402TIP3   OH231400   6.358   4.152   8.333
 2402TIP3    H131401   6.427   4.177   8.271
 2402TIP3    H231402   6.282   4.134   8.278
 2403TIP3   OH231403   6.437   4.682   8.344
 2403TIP3    H131404   6.471   4.625   8.275
 2403TIP3    H231405   6.413   4.763   8.299
 2404TIP3   OH231406   6.924   4.443   8.776
 2404TIP3    H131407   6.900   4.350   8.779
 2404TIP3    H231408   7.020   4.442   8.774
 2405TIP3   OH231409   7.073   4.755   8.615
 2405TIP3    H131410   7.042   4.831   8.566
 2405TIP3    H231411   7.168   4.757   8.605
 2406TIP3   OH231412   6.163   4.309   8.779
 2406TIP3    H131413   6.083   4.264   8.754
 2406TIP3    H231414   6.215   4.313   8.698
 2407TIP3   OH231415   6.382   3.910   8.467
 2407TIP3    H131416   6.373   3.999   8.433
 2407TIP3    H231417   6.317   3.859   8.419
 2408TIP3   OH231418   6.547   4.236   8.735
 2408TIP3    H131419   6.504   4.191   8.808
 2408TIP3    H231420   6.477   4.253   8.672
 2409TIP3   OH231421   6.830   4.191   8.744
 2409TIP3    H131422   6.736   4.181   8.757
 2409TIP3    H231423   6.869   4.120   8.796
 2410TIP3   OH231424   6.982   4.008   8.885
 2410TIP3    H131425   6.982   3.917   8.857
 2410TIP3    H231426   6.954   4.005   8.976
 2411TIP3   OH231427   5.939   4.152   8.738
 2411TIP3    H131428   5.931   4.071   8.688
 2411TIP3    H231429   5.950   4.123   8.829
 2412TIP3   OH231430   6.360   3.751   8.691
 2412TIP3    H131431   6.420   3.680   8.669
 2412TIP3    H231432   6.363   3.809   8.615
 2413TIP3   OH231433   6.465   3.879   8.910
 2413TIP3    H131434   6.434   3.823   8.838
 2413TIP3    H231435   6.418   3.961   8.898
 2414TIP3   OH231436   6.422   5.629   7.291
 2414TIP3    H131437   6.501   5.646   7.239
 2414TIP3    H231438   6.391   5.716   7.316
 2415TIP3   OH231439   5.698   5.560   7.604
 2415TIP3    H131440   5.686   5.507   7.525
 2415TIP3    H231441   5.710   5.496   7.674
 2416TIP3   OH231442   5.758   5.382   7.812
 2416TIP3    H131443   5.723   5.314   7.869
 2416TIP3    H231444   5.818   5.432   7.867
 2417TIP3   OH231445   7.516   5.489   8.056
 2417TIP3    H131446   7.550   5.565   8.103
 2417TIP3    H231447   7.550   5.497   7.967
 2418TIP3   OH231448   7.461   5.521   8.394
 2418TIP3    H131449   7.428   5.445   8.345
 2418TIP3    H231450   7.511   5.482   8.466
 2419TIP3   OH231451   7.347   5.042   8.880
 2419TIP3    H131452   7.262   5.048   8.924
 2419TIP3    H231453   7.399   5.113   8.918
 2420TIP3   OH231454   7.571   4.770   7.414
 2420TIP3    H131455   7.664   4.778   7.391
 2420TIP3    H231456   7.570   4.756   7.509
 2421TIP3   OH231457   7.516   4.730   7.682
 2421TIP3    H131458   7.436   4.680   7.668
 2421TIP3    H231459   7.490   4.799   7.744
 2422TIP3   OH231460   7.483   4.996   8.093
 2422TIP3    H131461   7.421   4.996   8.020
 2422TIP3    H231462   7.534   5.076   8.080
 2423TIP3   OH231463   7.332   5.281   8.310
 2423TIP3    H131464   7.255   5.313   8.357
 2423TIP3    H231465   7.300   5.262   8.222
 2424TIP3   OH231466   7.535   4.579   7.214
 2424TIP3    H131467   7.550   4.622   7.130
 2424TIP3    H231468   7.541   4.651   7.278
 2425TIP3   OH231469   7.280   4.591   7.655
 2425TIP3    H131470   7.282   4.496   7.642
 2425TIP3    H231471   7.225   4.603   7.733
 2426TIP3   OH231472   5.739   4.762   8.151
 2426TIP3    H131473   5.740   4.742   8.057
 2426TIP3    H231474   5.811   4.711   8.187
 2427TIP3   OH231475   7.340   4.798   8.573
 2427TIP3    H131476   7.390   4.750   8.506
 2427TIP3    H231477   7.334   4.887   8.539
 2428TIP3   OH231478   7.475   4.442   8.639
 2428TIP3    H131479   7.386   4.421   8.669
 2428TIP3    H231480   7.519   4.358   8.632
 2429TIP3   OH231481   7.288   4.325   7.577
 2429TIP3    H131482   7.279   4.235   7.545
 2429TIP3    H231483   7.368   4.358   7.535
 2430TIP3   OH231484   7.263   4.440   8.063
 2430TIP3    H131485   7.336   4.380   8.048
 2430TIP3    H231486   7.250   4.438   8.158
 2431TIP3   OH231487   7.275   4.464   8.345
 2431TIP3    H131488   7.189   4.484   8.382
 2431TIP3    H231489   7.326   4.545   8.356
 2432TIP3   OH231490   5.754   4.243   8.549
 2432TIP3    H131491   5.819   4.226   8.617
 2432TIP3    H231492   5.680   4.185   8.571
 2433TIP3   OH231493   7.561   3.813   8.810
 2433TIP3    H131494   7.645   3.770   8.792
 2433TIP3    H231495   7.548   3.872   8.735
 2434TIP3   OH231496   7.254   4.077   7.464
 2434TIP3    H131497   7.253   4.024   7.544
 2434TIP3    H231498   7.270   4.014   7.393
 2435TIP3   OH231499   5.845   4.089   7.968
 2435TIP3    H131500   5.880   4.001   7.956
 2435TIP3    H231501   5.922   4.146   7.961
 2436TIP3   OH231502   5.656   4.448   8.033
 2436TIP3    H131503   5.733   4.435   7.978
 2436TIP3    H231504   5.680   4.411   8.118
 2437TIP3   OH231505   7.465   3.965   8.597
 2437TIP3    H131506   7.382   4.013   8.600
 2437TIP3    H231507   7.452   3.899   8.528
 2438TIP3   OH231508   5.752   4.090   7.544
 2438TIP3    H131509   5.783   4.020   7.487
 2438TIP3    H231510   5.766   4.170   7.494
 2439TIP3   OH231511   5.676   3.967   8.352
 2439TIP3    H131512   5.602   3.924   8.394
 2439TIP3    H231513   5.640   4.005   8.272
 2440TIP3   OH231514   5.945   5.294   8.730
 2440TIP3    H131515   5.853   5.293   8.707
 2440TIP3    H231516   5.949   5.348   8.809
 2441TIP3   OH231517   6.256   5.364   8.360
 2441TIP3    H131518   6.228   5.450   8.330
 2441TIP3    H231519   6.351   5.366   8.352
 2442TIP3   OH231520   6.623   5.451   8.602
 2442TIP3    H131521   6.625   5.418   8.692
 2442TIP3    H231522   6.699   5.510   8.597
 2443TIP3   OH231523   6.834   5.627   8.596
 2443TIP3    H131524   6.902   5.628   8.528
 2443TIP3    H231525   6.881   5.645   8.677
 2444TIP3   OH231526   7.387   3.757   8.432
 2444TIP3    H131527   7.304   3.750   8.386
 2444TIP3    H231528   7.427   3.671   8.424
 2445TIP3   OH231529   5.938   5.604   8.358
 2445TIP3    H131530   5.863   5.646   8.316
 2445TIP3    H231531   5.949   5.652   8.440
 2446TIP3   OH231532   6.198   5.617   8.271
 2446TIP3    H131533   6.105   5.616   8.296
 2446TIP3    H231534   6.198   5.660   8.185
 2447TIP3   OH231535   6.638   5.619   8.245
 2447TIP3    H131536   6.586   5.656   8.174
 2447TIP3    H231537   6.649   5.691   8.307
 2448TIP3   OH231538   6.831   5.426   8.255
 2448TIP3    H131539   6.766   5.495   8.246
 2448TIP3    H231540   6.915   5.472   8.254
 2449TIP3   OH231541   7.078   5.549   8.260
 2449TIP3    H131542   7.089   5.644   8.264
 2449TIP3    H231543   7.130   5.521   8.185
 2450TIP3   OH231544   5.941   5.489   7.996
 2450TIP3    H131545   5.924   5.451   8.082
 2450TIP3    H231546   6.023   5.448   7.968
 2451TIP3   OH231547   6.168   5.357   7.917
 2451TIP3    H131548   6.162   5.262   7.924
 2451TIP3    H231549   6.251   5.379   7.958
 2452TIP3   OH231550   6.419   5.386   8.044
 2452TIP3    H131551   6.457   5.306   8.009
 2452TIP3    H231552   6.442   5.384   8.137
 2453TIP3   OH231553   6.668   3.969   7.934
 2453TIP3    H131554   6.601   3.905   7.960
 2453TIP3    H231555   6.700   3.937   7.850
 2454TIP3   OH231556   7.199   3.716   7.831
 2454TIP3    H131557   7.245   3.785   7.785
 2454TIP3    H231558   7.107   3.743   7.830
 2455TIP3   OH231559   7.326   3.926   7.693
 2455TIP3    H131560   7.373   3.852   7.654
 2455TIP3    H231561   7.394   3.993   7.707
 2456TIP3   OH231562   5.978   3.831   7.640
 2456TIP3    H131563   5.909   3.815   7.575
 2456TIP3    H231564   6.025   3.748   7.645
 2457TIP3   OH231565   5.864   3.914   7.359
 2457TIP3    H131566   5.938   3.969   7.335
 2457TIP3    H231567   5.857   3.851   7.288
 2458TIP3   OH231568   6.386   3.826   7.724
 2458TIP3    H131569   6.413   3.902   7.673
 2458TIP3    H231570   6.411   3.847   7.814
 2459TIP3   OH231571   6.937   3.803   7.826
 2459TIP3    H131572   6.872   3.819   7.758
 2459TIP3    H231573   6.905   3.724   7.871
 2460TIP3   OH231574   5.681   5.383   7.380
 2460TIP3    H131575   5.615   5.323   7.346
 2460TIP3    H231576   5.703   5.440   7.307
 2461TIP3   OH231577   6.496   4.033   7.578
 2461TIP3    H131578   6.474   4.026   7.485
 2461TIP3    H231579   6.516   4.126   7.591
 2462TIP3   OH231580   6.640   5.743   7.156
 2462TIP3    H131581   6.729   5.778   7.155
 2462TIP3    H231582   6.644   5.665   7.102
 2463TIP3   OH231583   5.911   3.901   8.633
 2463TIP3    H131584   5.914   3.865   8.545
 2463TIP3    H231585   5.980   3.854   8.681
 2464TIP3   OH231586   6.107   3.789   8.796
 2464TIP3    H131587   6.193   3.768   8.760
 2464TIP3    H231588   6.081   3.710   8.844
 2465TIP3   OH231589   7.026   3.754   8.771
 2465TIP3    H131590   7.013   3.703   8.851
 2465TIP3    H231591   7.118   3.744   8.750
 2466TIP3   OH231592   7.289   5.371   8.680
 2466TIP3    H131593   7.232   5.358   8.604
 2466TIP3    H231594   7.277   5.463   8.703
 2467TIP3   OH231595   7.509   4.423   7.447
 2467TIP3    H131596   7.600   4.438   7.473
 2467TIP3    H231597   7.492   4.488   7.379
 2468TIP3   OH231598   7.613   4.931   8.330
 2468TIP3    H131599   7.582   4.965   8.246
 2468TIP3    H231600   7.576   4.842   8.335
 2469TIP3   OH231601   7.616   5.227   8.053
 2469TIP3    H131602   7.707   5.246   8.032
 2469TIP3    H231603   7.576   5.314   8.066
 2470TIP3   OH231604   7.520   4.120   7.705
 2470TIP3    H131605   7.615   4.113   7.703
 2470TIP3    H231606   7.503   4.208   7.740
 2471TIP3   OH231607   7.630   4.641   8.540
 2471TIP3    H131608   7.584   4.574   8.590
 2471TIP3    H231609   7.577   4.652   8.460
 2472TIP3   OH231610   7.681   4.958   8.773
 2472TIP3    H131611   7.617   4.890   8.795
 2472TIP3    H231612   7.641   5.007   8.702
 2473TIP3   OH231613   7.490   5.698   7.681
 2473TIP3    H131614   7.408   5.680   7.636
 2473TIP3    H231615   7.512   5.616   7.725
 2474TIP3   OH231616   7.628   5.484   7.806
 2474TIP3    H131617   7.630   5.393   7.776
 2474TIP3    H231618   7.721   5.509   7.811
 2475TIP3   OH231619   7.540   4.591   8.104
 2475TIP3    H131620   7.480   4.604   8.030
 2475TIP3    H231621   7.626   4.616   8.071
 2476TIP3   OH231622   7.607   4.204   8.580
 2476TIP3    H131623   7.702   4.192   8.577
 2476TIP3    H231624   7.571   4.116   8.592
 2477TIP3   OH231625   7.511   4.316   8.055
 2477TIP3    H131626   7.562   4.316   7.974
 2477TIP3    H231627   7.535   4.398   8.098
 2478TIP3   OH231628   7.521   4.095   7.341
 2478TIP3    H131629   7.464   4.124   7.411
 2478TIP3    H231630   7.481   4.015   7.307
 2479TIP3   OH231631   7.556   3.872   8.214
 2479TIP3    H131632   7.509   3.847   8.294
 2479TIP3    H231633   7.501   3.940   8.175
 2480TIP3   OH231634   1.294   6.781   7.627
 2480TIP3    H131635   1.298   6.854   7.566
 2480TIP3    H231636   1.221   6.727   7.596
 2481TIP3   OH231637   1.092   6.586   8.030
 2481TIP3    H131638   1.132   6.541   8.105
 2481TIP3    H231639   1.045   6.517   7.984
 2482TIP3   OH231640   0.322   6.503   8.167
 2482TIP3    H131641   0.345   6.452   8.245
 2482TIP3    H231642   0.405   6.534   8.132
 2483TIP3   OH231643   0.449   6.990   7.993
 2483TIP3    H131644   0.419   6.908   7.953
 2483TIP3    H231645   0.544   6.982   7.993
 2484TIP3   OH231646   0.154   6.301   7.499
 2484TIP3    H131647   0.061   6.308   7.474
 2484TIP3    H231648   0.153   6.246   7.577
 2485TIP3   OH231649   0.072   6.530   7.718
 2485TIP3    H131650   0.124   6.467   7.767
 2485TIP3    H231651   0.132   6.564   7.651
 2486TIP3   OH231652   0.964   6.834   8.064
 2486TIP3    H131653   1.003   6.752   8.033
 2486TIP3    H231654   1.017   6.859   8.139
 2487TIP3   OH231655   1.961   5.984   8.193
 2487TIP3    H131656   1.916   6.058   8.234
 2487TIP3    H231657   1.993   6.019   8.110
 2488TIP3   OH231658   1.248   6.229   8.073
 2488TIP3    H131659   1.239   6.134   8.081
 2488TIP3    H231660   1.261   6.244   7.979
 2489TIP3   OH231661   1.382   6.092   7.667
 2489TIP3    H131662   1.423   6.067   7.750
 2489TIP3    H231663   1.455   6.126   7.614
 2490TIP3   OH231664   0.248   6.351   7.836
 2490TIP3    H131665   0.334   6.350   7.877
 2490TIP3    H231666   0.245   6.270   7.785
 2491TIP3   OH231667   0.684   6.364   7.781
 2491TIP3    H131668   0.772   6.381   7.816
 2491TIP3    H231669   0.700   6.315   7.700
 2492TIP3   OH231670   1.823   6.159   8.365
 2492TIP3    H131671   1.762   6.232   8.351
 2492TIP3    H231672   1.878   6.187   8.438
 2493TIP3   OH231673   0.442   6.084   8.149
 2493TIP3    H131674   0.452   6.173   8.117
 2493TIP3    H231675   0.380   6.091   8.222
 2494TIP3   OH231676   0.723   6.777   8.197
 2494TIP3    H131677   0.681   6.850   8.241
 2494TIP3    H231678   0.798   6.816   8.151
 2495TIP3   OH231679   1.509   6.065   7.907
 2495TIP3    H131680   1.526   5.979   7.945
 2495TIP3    H231681   1.567   6.124   7.954
 2496TIP3   OH231682   0.492   6.312   7.970
 2496TIP3    H131683   0.528   6.349   8.050
 2496TIP3    H231684   0.557   6.332   7.902
 2497TIP3   OH231685   0.597   6.979   8.335
 2497TIP3    H131686   0.609   7.073   8.336
 2497TIP3    H231687   0.505   6.966   8.358
 2498TIP3   OH231688   0.378   6.924   7.382
 2498TIP3    H131689   0.367   6.984   7.308
 2498TIP3    H231690   0.357   6.976   7.459
 2499TIP3   OH231691   1.491   7.228   8.140
 2499TIP3    H131692   1.419   7.283   8.172
 2499TIP3    H231693   1.552   7.290   8.099
 2500TIP3   OH231694   1.419   5.829   8.205
 2500TIP3    H131695   1.341   5.881   8.187
 2500TIP3    H231696   1.464   5.824   8.120
 2501TIP3   OH231697   0.868   5.632   7.847
 2501TIP3    H131698   0.858   5.633   7.751
 2501TIP3    H231699   0.838   5.545   7.873
 2502TIP3   OH231700   1.635   6.885   8.424
 2502TIP3    H131701   1.626   6.845   8.337
 2502TIP3    H231702   1.645   6.978   8.407
 2503TIP3   OH231703   1.094   6.659   7.469
 2503TIP3    H131704   1.020   6.709   7.433
 2503TIP3    H231705   1.166   6.676   7.409
 2504TIP3   OH231706   1.770   6.571   8.236
 2504TIP3    H131707   1.708   6.642   8.220
 2504TIP3    H231708   1.827   6.572   8.159
 2505TIP3   OH231709   1.558   6.719   7.563
 2505TIP3    H131710   1.475   6.744   7.603
 2505TIP3    H231711   1.582   6.638   7.606
 2506TIP3   OH231712   1.401   6.457   8.430
 2506TIP3    H131713   1.372   6.530   8.487
 2506TIP3    H231714   1.335   6.454   8.361
 2507TIP3   OH231715   0.521   6.590   7.707
 2507TIP3    H131716   0.448   6.566   7.649
 2507TIP3    H231717   0.571   6.510   7.718
 2508TIP3   OH231718   0.729   6.981   7.945
 2508TIP3    H131719   0.706   6.984   7.852
 2508TIP3    H231720   0.807   6.925   7.949
 2509TIP3   OH231721   0.563   6.603   8.058
 2509TIP3    H131722   0.624   6.580   7.987
 2509TIP3    H231723   0.612   6.665   8.112
 2510TIP3   OH231724   0.707   6.989   8.591
 2510TIP3    H131725   0.638   7.047   8.624
 2510TIP3    H231726   0.675   6.961   8.505
 2511TIP3   OH231727   1.361   6.632   7.378
 2511TIP3    H131728   1.381   6.541   7.396
 2511TIP3    H231729   1.429   6.681   7.424
 2512TIP3   OH231730   0.450   6.607   8.549
 2512TIP3    H131731   0.439   6.695   8.584
 2512TIP3    H231732   0.361   6.578   8.529
 2513TIP3   OH231733   0.517   7.187   8.647
 2513TIP3    H131734   0.546   7.219   8.562
 2513TIP3    H231735   0.422   7.179   8.639
 2514TIP3   OH231736   1.680   5.669   7.343
 2514TIP3    H131737   1.594   5.700   7.370
 2514TIP3    H231738   1.716   5.739   7.289
 2515TIP3   OH231739   0.307   6.534   7.539
 2515TIP3    H131740   0.353   6.569   7.462
 2515TIP3    H231741   0.266   6.454   7.508
 2516TIP3   OH231742   0.204   6.767   8.391
 2516TIP3    H131743   0.117   6.784   8.356
 2516TIP3    H231744   0.202   6.675   8.417
 2517TIP3   OH231745   0.192   7.077   8.067
 2517TIP3    H131746   0.273   7.031   8.048
 2517TIP3    H231747   0.205   7.116   8.154
 2518TIP3   OH231748   1.870   7.200   8.651
 2518TIP3    H131749   1.862   7.106   8.634
 2518TIP3    H231750   1.783   7.225   8.683
 2519TIP3   OH231751   0.951   7.107   8.550
 2519TIP3    H131752   0.945   7.193   8.591
 2519TIP3    H231753   0.864   7.068   8.562
 2520TIP3   OH231754   0.866   7.541   7.303
 2520TIP3    H131755   0.951   7.527   7.262
 2520TIP3    H231756   0.850   7.635   7.295
 2521TIP3   OH231757   0.446   7.342   7.719
 2521TIP3    H131758   0.462   7.326   7.812
 2521TIP3    H231759   0.399   7.265   7.688
 2522TIP3   OH231760   1.547   6.321   8.629
 2522TIP3    H131761   1.512   6.385   8.567
 2522TIP3    H231762   1.527   6.236   8.591
 2523TIP3   OH231763   0.348   6.986   8.456
 2523TIP3    H131764   0.368   6.957   8.545
 2523TIP3    H231765   0.293   6.917   8.420
 2524TIP3   OH231766   0.962   5.820   8.479
 2524TIP3    H131767   1.004   5.748   8.527
 2524TIP3    H231768   0.872   5.791   8.466
 2525TIP3   OH231769   1.427   6.112   8.489
 2525TIP3    H131770   1.353   6.090   8.545
 2525TIP3    H231771   1.387   6.136   8.405
 2526TIP3   OH231772   0.599   6.346   8.225
 2526TIP3    H131773   0.530   6.338   8.291
 2526TIP3    H231774   0.651   6.421   8.255
 2527TIP3   OH231775   1.170   6.414   7.579
 2527TIP3    H131776   1.134   6.497   7.548
 2527TIP3    H231777   1.239   6.392   7.517
 2528TIP3   OH231778   1.035   6.381   8.625
 2528TIP3    H131779   0.996   6.304   8.668
 2528TIP3    H231780   1.123   6.385   8.660
 2529TIP3   OH231781   1.289   6.309   7.809
 2529TIP3    H131782   1.243   6.364   7.745
 2529TIP3    H231783   1.315   6.231   7.759
 2530TIP3   OH231784   0.366   6.323   8.372
 2530TIP3    H131785   0.312   6.378   8.429
 2530TIP3    H231786   0.321   6.239   8.371
 2531TIP3   OH231787   0.215   6.107   7.718
 2531TIP3    H131788   0.183   6.062   7.797
 2531TIP3    H231789   0.192   6.048   7.646
 2532TIP3   OH231790   0.275   6.123   7.327
 2532TIP3    H131791   0.249   6.196   7.383
 2532TIP3    H231792   0.245   6.045   7.373
 2533TIP3   OH231793   1.196   6.429   8.243
 2533TIP3    H131794   1.226   6.364   8.180
 2533TIP3    H231795   1.120   6.389   8.286
 2534TIP3   OH231796   0.723   6.212   7.552
 2534TIP3    H131797   0.798   6.169   7.512
 2534TIP3    H231798   0.681   6.260   7.481
 2535TIP3   OH231799   1.187   5.968   8.152
 2535TIP3    H131800   1.142   5.991   8.233
 2535TIP3    H231801   1.123   5.916   8.103
 2536TIP3   OH231802   0.645   6.353   7.327
 2536TIP3    H131803   0.597   6.432   7.303
 2536TIP3    H231804   0.717   6.348   7.263
 2537TIP3   OH231805   1.612   7.552   8.752
 2537TIP3    H131806   1.612   7.582   8.661
 2537TIP3    H231807   1.702   7.566   8.782
 2538TIP3   OH231808   0.401   6.845   8.692
 2538TIP3    H131809   0.465   6.836   8.763
 2538TIP3    H231810   0.318   6.819   8.731
 2539TIP3   OH231811   0.932   6.362   7.929
 2539TIP3    H131812   0.972   6.310   7.859
 2539TIP3    H231813   0.914   6.299   7.998
 2540TIP3   OH231814   0.828   6.212   8.153
 2540TIP3    H131815   0.747   6.262   8.168
 2540TIP3    H231816   0.888   6.243   8.220
 2541TIP3   OH231817   0.860   6.794   7.371
 2541TIP3    H131818   0.804   6.757   7.303
 2541TIP3    H231819   0.808   6.788   7.451
 2542TIP3   OH231820   1.603   6.780   8.175
 2542TIP3    H131821   1.664   6.824   8.116
 2542TIP3    H231822   1.529   6.756   8.120
 2543TIP3   OH231823   1.027   6.827   8.549
 2543TIP3    H131824   1.056   6.787   8.630
 2543TIP3    H231825   0.999   6.915   8.573
 2544TIP3   OH231826   1.397   6.357   7.418
 2544TIP3    H131827   1.469   6.324   7.471
 2544TIP3    H231828   1.392   6.296   7.344
 2545TIP3   OH231829   0.386   6.741   7.900
 2545TIP3    H131830   0.411   6.706   7.814
 2545TIP3    H231831   0.438   6.690   7.962
 2546TIP3   OH231832   0.193   6.501   8.499
 2546TIP3    H131833   0.187   6.475   8.590
 2546TIP3    H231834   0.102   6.499   8.467
 2547TIP3   OH231835   0.847   6.573   8.701
 2547TIP3    H131836   0.774   6.538   8.651
 2547TIP3    H231837   0.924   6.529   8.666
 2548TIP3   OH231838   1.229   7.100   8.558
 2548TIP3    H131839   1.136   7.092   8.534
 2548TIP3    H231840   1.228   7.111   8.653
 2549TIP3   OH231841   1.790   6.373   7.399
 2549TIP3    H131842   1.738   6.402   7.324
 2549TIP3    H231843   1.817   6.454   7.442
 2550TIP3   OH231844   1.862   6.932   8.587
 2550TIP3    H131845   1.770   6.917   8.565
 2550TIP3    H231846   1.910   6.900   8.511
 2551TIP3   OH231847   1.623   7.105   7.299
 2551TIP3    H131848   1.534   7.091   7.332
 2551TIP3    H231849   1.611   7.150   7.216
 2552TIP3   OH231850   1.396   6.680   8.020
 2552TIP3    H131851   1.302   6.668   8.009
 2552TIP3    H231852   1.434   6.599   7.986
 2553TIP3   OH231853   0.602   7.025   7.688
 2553TIP3    H131854   0.639   7.098   7.638
 2553TIP3    H231855   0.507   7.035   7.677
 2554TIP3   OH231856   0.258   6.521   7.211
 2554TIP3    H131857   0.342   6.564   7.230
 2554TIP3    H231858   0.192   6.581   7.244
 2555TIP3   OH231859   0.701   6.780   7.598
 2555TIP3    H131860   0.664   6.865   7.624
 2555TIP3    H231861   0.639   6.715   7.630
 2556TIP3   OH231862   0.899   7.238   8.303
 2556TIP3    H131863   0.970   7.301   8.290
 2556TIP3    H231864   0.933   7.177   8.369
 2557TIP3   OH231865   0.662   7.273   7.566
 2557TIP3    H131866   0.589   7.307   7.617
 2557TIP3    H231867   0.732   7.336   7.579
 2558TIP3   OH231868   1.120   6.863   8.292
 2558TIP3    H131869   1.074   6.844   8.374
 2558TIP3    H231870   1.212   6.851   8.312
 2559TIP3   OH231871   1.405   7.293   8.481
 2559TIP3    H131872   1.344   7.222   8.502
 2559TIP3    H231873   1.373   7.329   8.398
 2560TIP3   OH231874   0.247   6.072   8.346
 2560TIP3    H131875   0.216   6.064   8.436
 2560TIP3    H231876   0.201   6.003   8.299
 2561TIP3   OH231877   0.257   7.209   8.302
 2561TIP3    H131878   0.283   7.139   8.362
 2561TIP3    H231879   0.264   7.289   8.354
 2562TIP3   OH231880   0.865   7.090   7.316
 2562TIP3    H131881   0.848   6.997   7.331
 2562TIP3    H231882   0.960   7.096   7.314
 2563TIP3   OH231883   0.461   6.665   7.338
 2563TIP3    H131884   0.435   6.755   7.359
 2563TIP3    H231885   0.547   6.675   7.296
 2564TIP3   OH231886   1.093   6.042   8.409
 2564TIP3    H131887   1.142   6.053   8.490
 2564TIP3    H231888   1.039   5.965   8.423
 2565TIP3   OH231889   1.218   6.092   7.429
 2565TIP3    H131890   1.279   6.105   7.356
 2565TIP3    H231891   1.275   6.081   7.505
 2566TIP3   OH231892   1.008   6.223   7.698
 2566TIP3    H131893   0.974   6.173   7.624
 2566TIP3    H231894   1.060   6.293   7.657
 2567TIP3   OH231895   0.989   6.293   8.364
 2567TIP3    H131896   0.992   6.331   8.452
 2567TIP3    H231897   1.023   6.204   8.376
 2568TIP3   OH231898   1.119   5.990   7.800
 2568TIP3    H131899   1.085   6.074   7.769
 2568TIP3    H231900   1.204   5.981   7.756
 2569TIP3   OH231901   1.653   5.952   8.437
 2569TIP3    H131902   1.567   5.995   8.440
 2569TIP3    H231903   1.709   6.013   8.388
 2570TIP3   OH231904   1.499   6.435   7.932
 2570TIP3    H131905   1.423   6.387   7.900
 2570TIP3    H231906   1.553   6.369   7.975
 2571TIP3   OH231907   0.252   6.271   7.101
 2571TIP3    H131908   0.256   6.361   7.134
 2571TIP3    H231909   0.274   6.217   7.177
 2572TIP3   OH231910   1.639   7.444   8.057
 2572TIP3    H131911   1.612   7.473   7.970
 2572TIP3    H231912   1.734   7.444   8.054
 2573TIP3   OH231913   0.322   7.111   7.630
 2573TIP3    H131914   0.253   7.125   7.695
 2573TIP3    H231915   0.289   7.153   7.550
 2574TIP3   OH231916   0.129   7.429   8.786
 2574TIP3    H131917   0.213   7.439   8.830
 2574TIP3    H231918   0.134   7.343   8.744
 2575TIP3   OH231919   0.612   7.262   8.898
 2575TIP3    H131920   0.676   7.193   8.918
 2575TIP3    H231921   0.581   7.241   8.810
 2576TIP3   OH231922   1.217   7.136   8.831
 2576TIP3    H131923   1.218   7.050   8.873
 2576TIP3    H231924   1.297   7.179   8.861
 2577TIP3   OH231925   0.183   6.753   8.831
 2577TIP3    H131926   0.187   6.679   8.892
 2577TIP3    H231927   0.104   6.737   8.779
 2578TIP3   OH231928   0.812   6.836   8.791
 2578TIP3    H131929   0.784   6.881   8.712
 2578TIP3    H231930   0.839   6.749   8.761
 2579TIP3   OH231931   1.112   7.008   7.047
 2579TIP3    H131932   1.125   7.027   7.140
 2579TIP3    H231933   1.019   6.986   7.040
 2580TIP3   OH231934   1.356   6.867   8.469
 2580TIP3    H131935   1.448   6.888   8.452
 2580TIP3    H231936   1.317   6.950   8.496
 2581TIP3   OH231937   0.238   6.416   8.758
 2581TIP3    H131938   0.329   6.387   8.767
 2581TIP3    H231939   0.219   6.462   8.840
 2582TIP3   OH231940   0.667   6.444   8.535
 2582TIP3    H131941   0.586   6.494   8.545
 2582TIP3    H231942   0.707   6.478   8.456
 2583TIP3   OH231943   0.854   6.331   7.136
 2583TIP3    H131944   0.859   6.421   7.104
 2583TIP3    H231945   0.942   6.312   7.170
 2584TIP3   OH231946   1.146   6.705   8.775
 2584TIP3    H131947   1.226   6.680   8.729
 2584TIP3    H231948   1.122   6.627   8.825
 2585TIP3   OH231949   0.692   6.176   8.593
 2585TIP3    H131950   0.679   6.126   8.512
 2585TIP3    H231951   0.688   6.268   8.565
 2586TIP3   OH231952   0.665   6.043   8.327
 2586TIP3    H131953   0.734   6.084   8.274
 2586TIP3    H231954   0.587   6.050   8.273
 2587TIP3   OH231955   0.783   6.535   8.306
 2587TIP3    H131956   0.878   6.528   8.300
 2587TIP3    H231957   0.763   6.624   8.275
 2588TIP3   OH231958   1.280   6.336   8.754
 2588TIP3    H131959   1.267   6.244   8.729
 2588TIP3    H231960   1.373   6.352   8.739
 2589TIP3   OH231961   1.391   6.658   8.640
 2589TIP3    H131962   1.366   6.731   8.584
 2589TIP3    H231963   1.485   6.647   8.624
 2590TIP3   OH231964   0.482   6.271   8.772
 2590TIP3    H131965   0.426   6.194   8.784
 2590TIP3    H231966   0.545   6.244   8.706
 2591TIP3   OH231967   0.691   5.780   8.424
 2591TIP3    H131968   0.682   5.872   8.398
 2591TIP3    H231969   0.638   5.732   8.361
 2592TIP3   OH231970   0.941   6.145   8.730
 2592TIP3    H131971   0.931   6.101   8.815
 2592TIP3    H231972   0.854   6.139   8.690
 2593TIP3   OH231973   1.205   6.081   8.663
 2593TIP3    H131974   1.113   6.093   8.686
 2593TIP3    H231975   1.239   6.020   8.728
 2594TIP3   OH231976   1.303   5.925   8.865
 2594TIP3    H131977   1.296   5.831   8.850
 2594TIP3    H231978   1.266   5.938   8.952
 2595TIP3   OH231979   0.341   6.035   8.809
 2595TIP3    H131980   0.427   5.995   8.807
 2595TIP3    H231981   0.300   6.002   8.889
 2596TIP3   OH231982   0.653   5.647   8.663
 2596TIP3    H131983   0.720   5.578   8.657
 2596TIP3    H231984   0.660   5.693   8.579
 2597TIP3   OH231985   0.777   5.801   8.856
 2597TIP3    H131986   0.741   5.747   8.785
 2597TIP3    H231987   0.712   5.870   8.868
 2598TIP3   OH231988   0.103   6.966   7.140
 2598TIP3    H131989   0.180   7.016   7.164
 2598TIP3    H231990   0.136   6.891   7.090
 2599TIP3   OH231991   0.047   7.477   7.591
 2599TIP3    H131992  -0.037   7.515   7.618
 2599TIP3    H231993   0.028   7.385   7.576
 2600TIP3   OH231994   0.162   7.231   7.839
 2600TIP3    H131995   0.163   7.165   7.908
 2600TIP3    H231996   0.185   7.313   7.884
 2601TIP3   OH231997   1.910   7.459   8.065
 2601TIP3    H131998   1.932   7.507   8.145
 2601TIP3    H231999   1.991   7.415   8.041
 2602TIP3   OH232000   1.795   7.379   8.438
 2602TIP3    H132001   1.757   7.306   8.388
 2602TIP3    H232002   1.844   7.336   8.508
 2603TIP3   OH232003   1.680   6.943   8.849
 2603TIP3    H132004   1.601   6.952   8.902
 2603TIP3    H232005   1.739   7.010   8.882
 2604TIP3   OH232006   1.843   6.822   7.487
 2604TIP3    H132007   1.857   6.732   7.518
 2604TIP3    H232008   1.749   6.836   7.496
 2605TIP3   OH232009   1.861   6.567   7.587
 2605TIP3    H132010   1.782   6.538   7.633
 2605TIP3    H232011   1.930   6.563   7.653
 2606TIP3   OH232012   1.877   6.852   8.108
 2606TIP3    H132013   1.908   6.769   8.071
 2606TIP3    H232014   1.939   6.917   8.074
 2607TIP3   OH232015   1.624   7.155   8.368
 2607TIP3    H132016   1.559   7.203   8.419
 2607TIP3    H232017   1.594   7.163   8.278
 2608TIP3   OH232018   1.650   6.405   7.156
 2608TIP3    H132019   1.686   6.456   7.084
 2608TIP3    H232020   1.618   6.325   7.115
 2609TIP3   OH232021   1.620   6.473   7.685
 2609TIP3    H132022   1.615   6.383   7.653
 2609TIP3    H232023   1.582   6.469   7.773
 2610TIP3   OH232024   0.159   6.695   8.056
 2610TIP3    H132025   0.224   6.730   7.994
 2610TIP3    H232026   0.208   6.634   8.111
 2611TIP3   OH232027   1.660   6.641   8.577
 2611TIP3    H132028   1.722   6.575   8.547
 2611TIP3    H232029   1.667   6.712   8.514
 2612TIP3   OH232030   1.822   6.398   8.585
 2612TIP3    H132031   1.737   6.362   8.611
 2612TIP3    H232032   1.886   6.343   8.631
 2613TIP3   OH232033   1.608   6.221   7.545
 2613TIP3    H132034   1.630   6.128   7.542
 2613TIP3    H232035   1.670   6.262   7.485
 2614TIP3   OH232036   1.668   6.245   8.052
 2614TIP3    H132037   1.763   6.250   8.041
 2614TIP3    H232038   1.653   6.266   8.144
 2615TIP3   OH232039   1.631   6.350   8.311
 2615TIP3    H132040   1.547   6.382   8.344
 2615TIP3    H232041   1.678   6.429   8.285
 2616TIP3   OH232042   0.155   6.024   8.601
 2616TIP3    H132043   0.213   6.050   8.673
 2616TIP3    H232044   0.159   5.928   8.600
 2617TIP3   OH232045   1.841   5.751   8.813
 2617TIP3    H132046   1.886   5.682   8.764
 2617TIP3    H232047   1.843   5.827   8.755
 2618TIP3   OH232048   1.636   5.942   7.554
 2618TIP3    H132049   1.655   5.885   7.628
 2618TIP3    H232050   1.567   5.897   7.506
 2619TIP3   OH232051   0.198   6.041   8.004
 2619TIP3    H132052   0.285   6.040   8.044
 2619TIP3    H232053   0.159   6.123   8.032
 2620TIP3   OH232054   0.132   6.307   8.077
 2620TIP3    H132055   0.155   6.329   7.987
 2620TIP3    H232056   0.178   6.372   8.130
 2621TIP3   OH232057   1.774   5.981   8.678
 2621TIP3    H132058   1.702   6.000   8.739
 2621TIP3    H232059   1.731   5.968   8.594
 2622TIP3   OH232060   1.660   6.082   7.280
 2622TIP3    H132061   1.671   5.995   7.242
 2622TIP3    H232062   1.567   6.101   7.268
 2623TIP3   OH232063   0.137   5.957   7.501
 2623TIP3    H132064   0.049   5.981   7.472
 2623TIP3    H232065   0.128   5.866   7.530
 2624TIP3   OH232066   1.601   7.293   7.742
 2624TIP3    H132067   1.636   7.296   7.653
 2624TIP3    H232068   1.586   7.385   7.765
 2625TIP3   OH232069   0.124   5.860   8.211
 2625TIP3    H132070   0.041   5.811   8.210
 2625TIP3    H232071   0.129   5.899   8.124
 2626TIP3   OH232072   0.154   7.168   8.704
 2626TIP3    H132073   0.065   7.156   8.672
 2626TIP3    H232074   0.160   7.113   8.782
 2627TIP3   OH232075   0.636   7.245   8.397
 2627TIP3    H132076   0.592   7.317   8.353
 2627TIP3    H232077   0.726   7.249   8.365
 2628TIP3   OH232078   0.957   7.357   8.666
 2628TIP3    H132079   0.964   7.339   8.760
 2628TIP3    H232080   1.039   7.400   8.644
 2629TIP3   OH232081   1.199   7.471   8.597
 2629TIP3    H132082   1.273   7.424   8.560
 2629TIP3    H232083   1.236   7.521   8.669
 2630TIP3   OH232084   1.698   5.685   8.469
 2630TIP3    H132085   1.687   5.778   8.452
 2630TIP3    H232086   1.626   5.643   8.420
 2631TIP3   OH232087   0.293   7.460   8.418
 2631TIP3    H132088   0.222   7.523   8.404
 2631TIP3    H232089   0.326   7.481   8.505
 2632TIP3   OH232090   0.533   7.469   8.282
 2632TIP3    H132091   0.443   7.471   8.315
 2632TIP3    H232092   0.528   7.510   8.196
 2633TIP3   OH232093   1.075   7.504   8.098
 2633TIP3    H132094   0.992   7.523   8.054
 2633TIP3    H232095   1.061   7.532   8.188
 2634TIP3   OH232096   1.305   7.403   8.243
 2634TIP3    H132097   1.228   7.431   8.192
 2634TIP3    H232098   1.361   7.480   8.244
 2635TIP3   OH232099   1.499   7.596   8.237
 2635TIP3    H132100   1.513   7.688   8.216
 2635TIP3    H232101   1.552   7.548   8.173
 2636TIP3   OH232102   0.255   7.385   8.071
 2636TIP3    H132103   0.231   7.338   8.151
 2636TIP3    H232104   0.338   7.344   8.043
 2637TIP3   OH232105   0.481   7.263   7.980
 2637TIP3    H132106   0.460   7.169   7.983
 2637TIP3    H232107   0.569   7.269   8.017
 2638TIP3   OH232108   0.732   7.225   8.078
 2638TIP3    H132109   0.741   7.139   8.038
 2638TIP3    H232110   0.795   7.225   8.151
 2639TIP3   OH232111   1.023   5.811   7.983
 2639TIP3    H132112   0.971   5.748   7.933
 2639TIP3    H232113   1.064   5.866   7.916
 2640TIP3   OH232114   1.539   5.784   7.959
 2640TIP3    H132115   1.608   5.788   7.892
 2640TIP3    H232116   1.460   5.762   7.910
 2641TIP3   OH232117   1.734   5.779   7.763
 2641TIP3    H132118   1.798   5.710   7.748
 2641TIP3    H232119   1.785   5.859   7.772
 2642TIP3   OH232120   1.316   5.709   7.824
 2642TIP3    H132121   1.313   5.696   7.729
 2642TIP3    H232122   1.259   5.641   7.860
 2643TIP3   OH232123   1.447   5.788   7.422
 2643TIP3    H132124   1.400   5.799   7.339
 2643TIP3    H232125   1.389   5.732   7.475
 2644TIP3   OH232126   0.243   7.238   7.405
 2644TIP3    H132127   0.263   7.199   7.320
 2644TIP3    H232128   0.244   7.332   7.389
 2645TIP3   OH232129   0.949   6.069   7.470
 2645TIP3    H132130   0.928   5.985   7.428
 2645TIP3    H232131   1.041   6.084   7.450
 2646TIP3   OH232132   1.705   7.301   7.481
 2646TIP3    H132133   1.680   7.222   7.435
 2646TIP3    H232134   1.713   7.368   7.413
 2647TIP3   OH232135   0.211   5.755   8.625
 2647TIP3    H132136   0.154   5.684   8.654
 2647TIP3    H232137   0.285   5.752   8.686
 2648TIP3   OH232138   0.420   5.702   8.807
 2648TIP3    H132139   0.500   5.679   8.759
 2648TIP3    H232140   0.380   5.617   8.828
 2649TIP3   OH232141   1.321   5.656   8.798
 2649TIP3    H132142   1.315   5.605   8.879
 2649TIP3    H232143   1.413   5.650   8.773
 2650TIP3   OH232144   1.601   7.284   8.696
 2650TIP3    H132145   1.538   7.285   8.624
 2650TIP3    H232146   1.608   7.376   8.722
 2651TIP3   OH232147   3.072   6.702   7.664
 2651TIP3    H132148   3.059   6.797   7.660
 2651TIP3    H232149   2.988   6.665   7.640
 2652TIP3   OH232150   2.984   6.571   8.037
 2652TIP3    H132151   3.006   6.528   8.119
 2652TIP3    H232152   2.923   6.512   7.994
 2653TIP3   OH232153   2.165   6.442   8.144
 2653TIP3    H132154   2.194   6.392   8.220
 2653TIP3    H232155   2.246   6.477   8.106
 2654TIP3   OH232156   3.355   6.866   7.863
 2654TIP3    H132157   3.317   6.789   7.906
 2654TIP3    H232158   3.391   6.918   7.935
 2655TIP3   OH232159   2.346   6.951   7.934
 2655TIP3    H132160   2.321   6.864   7.900
 2655TIP3    H232161   2.439   6.942   7.956
 2656TIP3   OH232162   1.955   6.164   7.543
 2656TIP3    H132163   1.909   6.236   7.499
 2656TIP3    H232164   1.936   6.087   7.488
 2657TIP3   OH232165   2.052   6.555   7.788
 2657TIP3    H132166   2.090   6.468   7.802
 2657TIP3    H232167   2.127   6.615   7.791
 2658TIP3   OH232168   2.998   7.368   7.873
 2658TIP3    H132169   3.079   7.316   7.865
 2658TIP3    H232170   2.989   7.384   7.967
 2659TIP3   OH232171   2.841   6.810   8.075
 2659TIP3    H132172   2.886   6.732   8.041
 2659TIP3    H232173   2.901   6.845   8.141
 2660TIP3   OH232174   3.740   5.934   8.173
 2660TIP3    H132175   3.731   6.018   8.218
 2660TIP3    H232176   3.799   5.952   8.099
 2661TIP3   OH232177   3.110   6.221   8.048
 2661TIP3    H132178   3.106   6.135   8.090
 2661TIP3    H232179   3.064   6.209   7.965
 2662TIP3   OH232180   2.508   6.027   7.783
 2662TIP3    H132181   2.511   6.105   7.729
 2662TIP3    H232182   2.449   5.967   7.737
 2663TIP3   OH232183   2.162   6.310   7.849
 2663TIP3    H132184   2.228   6.273   7.907
 2663TIP3    H232185   2.174   6.264   7.766
 2664TIP3   OH232186   2.559   6.423   7.831
 2664TIP3    H132187   2.651   6.409   7.855
 2664TIP3    H232188   2.540   6.355   7.766
 2665TIP3   OH232189   3.697   6.149   8.344
 2665TIP3    H132190   3.652   6.231   8.326
 2665TIP3    H232191   3.761   6.171   8.411
 2666TIP3   OH232192   2.344   5.999   8.231
 2666TIP3    H132193   2.304   6.052   8.162
 2666TIP3    H232194   2.284   6.008   8.306
 2667TIP3   OH232195   3.022   6.975   7.626
 2667TIP3    H132196   3.116   6.996   7.630
 2667TIP3    H232197   2.979   7.056   7.652
 2668TIP3   OH232198   2.585   6.725   8.157
 2668TIP3    H132199   2.538   6.800   8.194
 2668TIP3    H232200   2.665   6.762   8.120
 2669TIP3   OH232201   2.353   6.148   7.982
 2669TIP3    H132202   2.410   6.199   8.040
 2669TIP3    H232203   2.413   6.104   7.922
 2670TIP3   OH232204   2.453   6.929   8.289
 2670TIP3    H132205   2.465   7.023   8.283
 2670TIP3    H232206   2.364   6.918   8.324
 2671TIP3   OH232207   2.101   6.882   7.392
 2671TIP3    H132208   2.017   6.854   7.429
 2671TIP3    H232209   2.119   6.966   7.435
 2672TIP3   OH232210   3.437   7.023   8.082
 2672TIP3    H132211   3.348   7.036   8.117
 2672TIP3    H232212   3.463   7.109   8.050
 2673TIP3   OH232213   3.510   5.804   8.266
 2673TIP3    H132214   3.488   5.875   8.327
 2673TIP3    H232215   3.583   5.838   8.215
 2674TIP3   OH232216   2.690   5.666   7.994
 2674TIP3    H132217   2.661   5.575   7.999
 2674TIP3    H232218   2.615   5.717   8.024
 2675TIP3   OH232219   3.228   7.258   7.742
 2675TIP3    H132220   3.250   7.171   7.708
 2675TIP3    H232221   3.313   7.299   7.757
 2676TIP3   OH232222   3.296   7.011   7.641
 2676TIP3    H132223   3.352   6.979   7.570
 2676TIP3    H232224   3.319   6.957   7.716
 2677TIP3   OH232225   3.537   6.846   8.418
 2677TIP3    H132226   3.525   6.805   8.333
 2677TIP3    H232227   3.554   6.938   8.399
 2678TIP3   OH232228   3.007   6.464   7.377
 2678TIP3    H132229   2.966   6.550   7.384
 2678TIP3    H232230   3.101   6.483   7.377
 2679TIP3   OH232231   3.630   6.558   8.254
 2679TIP3    H132232   3.578   6.631   8.222
 2679TIP3    H232233   3.709   6.559   8.200
 2680TIP3   OH232234   3.338   6.653   7.595
 2680TIP3    H132235   3.251   6.670   7.633
 2680TIP3    H232236   3.388   6.614   7.667
 2681TIP3   OH232237   3.256   6.405   8.449
 2681TIP3    H132238   3.249   6.478   8.510
 2681TIP3    H232239   3.192   6.424   8.380
 2682TIP3   OH232240   2.458   6.610   7.646
 2682TIP3    H132241   2.425   6.571   7.565
 2682TIP3    H232242   2.496   6.537   7.694
 2683TIP3   OH232243   2.632   6.955   7.946
 2683TIP3    H132244   2.640   6.960   7.851
 2683TIP3    H232245   2.713   6.911   7.975
 2684TIP3   OH232246   2.420   6.536   8.041
 2684TIP3    H132247   2.471   6.501   7.968
 2684TIP3    H232248   2.476   6.603   8.080
 2685TIP3   OH232249   3.198   7.055   8.201
 2685TIP3    H132250   3.159   7.140   8.220
 2685TIP3    H232251   3.128   6.992   8.221
 2686TIP3   OH232252   2.608   6.949   8.522
 2686TIP3    H132253   2.544   7.007   8.563
 2686TIP3    H232254   2.566   6.921   8.440
 2687TIP3   OH232255   3.277   6.500   7.376
 2687TIP3    H132256   3.309   6.557   7.445
 2687TIP3    H232257   3.356   6.471   7.330
 2688TIP3   OH232258   2.239   6.524   8.516
 2688TIP3    H132259   2.251   6.605   8.565
 2688TIP3    H232260   2.156   6.536   8.469
 2689TIP3   OH232261   2.900   7.217   7.662
 2689TIP3    H132262   2.921   7.267   7.741
 2689TIP3    H232263   2.876   7.284   7.598
 2690TIP3   OH232264   2.413   7.126   8.598
 2690TIP3    H132265   2.421   7.163   8.510
 2690TIP3    H232266   2.319   7.122   8.614
 2691TIP3   OH232267   3.679   5.739   7.380
 2691TIP3    H132268   3.585   5.749   7.367
 2691TIP3    H232269   3.719   5.779   7.303
 2692TIP3   OH232270   2.373   6.508   7.408
 2692TIP3    H132271   2.313   6.565   7.359
 2692TIP3    H232272   2.401   6.442   7.344
 2693TIP3   OH232273   1.976   6.820   8.367
 2693TIP3    H132274   1.936   6.831   8.281
 2693TIP3    H232275   1.985   6.725   8.377
 2694TIP3   OH232276   2.089   7.015   8.032
 2694TIP3    H132277   2.175   6.988   8.001
 2694TIP3    H232278   2.107   7.073   8.106
 2695TIP3   OH232279   3.769   7.185   8.669
 2695TIP3    H132280   3.763   7.092   8.647
 2695TIP3    H232281   3.681   7.207   8.701
 2696TIP3   OH232282   2.854   7.071   8.508
 2696TIP3    H132283   2.845   7.162   8.536
 2696TIP3    H232284   2.765   7.036   8.508
 2697TIP3   OH232285   2.872   7.439   7.498
 2697TIP3    H132286   2.833   7.455   7.412
 2697TIP3    H232287   2.847   7.516   7.550
 2698TIP3   OH232288   2.295   7.311   7.620
 2698TIP3    H132289   2.313   7.278   7.708
 2698TIP3    H232290   2.236   7.246   7.582
 2699TIP3   OH232291   3.147   7.429   7.523
 2699TIP3    H132292   3.053   7.423   7.509
 2699TIP3    H232293   3.169   7.353   7.577
 2700TIP3   OH232294   3.448   6.268   8.612
 2700TIP3    H132295   3.381   6.316   8.563
 2700TIP3    H232296   3.438   6.177   8.583
 2701TIP3   OH232297   2.205   6.964   8.409
 2701TIP3    H132298   2.200   6.984   8.503
 2701TIP3    H232299   2.129   6.908   8.392
 2702TIP3   OH232300   2.453   5.790   8.082
 2702TIP3    H132301   2.385   5.777   8.016
 2702TIP3    H232302   2.426   5.869   8.130
 2703TIP3   OH232303   2.949   5.809   8.349
 2703TIP3    H132304   2.987   5.765   8.425
 2703TIP3    H232305   2.854   5.809   8.367
 2704TIP3   OH232306   3.217   6.127   8.431
 2704TIP3    H132307   3.173   6.105   8.513
 2704TIP3    H232308   3.216   6.223   8.429
 2705TIP3   OH232309   2.475   6.305   8.180
 2705TIP3    H132310   2.413   6.298   8.252
 2705TIP3    H232311   2.459   6.391   8.143
 2706TIP3   OH232312   2.478   6.251   7.629
 2706TIP3    H132313   2.383   6.242   7.624
 2706TIP3    H232314   2.509   6.232   7.540
 2707TIP3   OH232315   3.032   6.217   7.510
 2707TIP3    H132316   3.024   6.299   7.461
 2707TIP3    H232317   3.121   6.187   7.493
 2708TIP3   OH232318   2.941   6.370   8.648
 2708TIP3    H132319   2.901   6.293   8.690
 2708TIP3    H232320   3.027   6.377   8.689
 2709TIP3   OH232321   3.028   6.262   7.783
 2709TIP3    H132322   3.074   6.344   7.768
 2709TIP3    H232323   3.014   6.226   7.695
 2710TIP3   OH232324   2.267   6.294   8.360
 2710TIP3    H132325   2.261   6.360   8.429
 2710TIP3    H232326   2.245   6.211   8.404
 2711TIP3   OH232327   1.899   5.995   7.772
 2711TIP3    H132328   1.971   6.007   7.834
 2711TIP3    H232329   1.916   6.059   7.703
 2712TIP3   OH232330   1.895   6.202   7.210
 2712TIP3    H132331   1.818   6.146   7.223
 2712TIP3    H232332   1.879   6.278   7.265
 2713TIP3   OH232333   3.063   6.401   8.249
 2713TIP3    H132334   3.085   6.338   8.180
 2713TIP3    H232335   2.991   6.359   8.298
 2714TIP3   OH232336   2.755   5.927   7.674
 2714TIP3    H132337   2.684   5.960   7.730
 2714TIP3    H232338   2.817   5.887   7.736
 2715TIP3   OH232339   2.216   6.159   7.629
 2715TIP3    H132340   2.130   6.162   7.588
 2715TIP3    H232341   2.243   6.067   7.621
 2716TIP3   OH232342   2.545   6.165   7.373
 2716TIP3    H132343   2.640   6.151   7.364
 2716TIP3    H232344   2.523   6.221   7.299
 2717TIP3   OH232345   2.437   6.356   7.179
 2717TIP3    H132346   2.357   6.379   7.131
 2717TIP3    H232347   2.506   6.406   7.137
 2718TIP3   OH232348   3.484   7.534   8.687
 2718TIP3    H132349   3.497   7.554   8.594
 2718TIP3    H232350   3.566   7.560   8.729
 2719TIP3   OH232351   2.234   6.737   8.681
 2719TIP3    H132352   2.304   6.757   8.744
 2719TIP3    H232353   2.154   6.769   8.723
 2720TIP3   OH232354   2.816   6.369   7.929
 2720TIP3    H132355   2.878   6.319   7.877
 2720TIP3    H232356   2.795   6.313   8.004
 2721TIP3   OH232357   2.321   5.902   7.616
 2721TIP3    H132358   2.269   5.823   7.631
 2721TIP3    H232359   2.364   5.887   7.532
 2722TIP3   OH232360   2.740   6.240   8.161
 2722TIP3    H132361   2.652   6.275   8.171
 2722TIP3    H232362   2.785   6.261   8.243
 2723TIP3   OH232363   2.848   6.695   7.354
 2723TIP3    H132364   2.807   6.704   7.268
 2723TIP3    H232365   2.777   6.709   7.416
 2724TIP3   OH232366   3.460   6.757   8.169
 2724TIP3    H132367   3.469   6.845   8.132
 2724TIP3    H232368   3.387   6.718   8.120
 2725TIP3   OH232369   2.884   6.781   8.510
 2725TIP3    H132370   2.926   6.745   8.588
 2725TIP3    H232371   2.874   6.874   8.530
 2726TIP3   OH232372   3.291   6.115   7.483
 2726TIP3    H132373   3.299   6.022   7.501
 2726TIP3    H232374   3.313   6.123   7.390
 2727TIP3   OH232375   2.291   6.694   7.845
 2727TIP3    H132376   2.345   6.675   7.769
 2727TIP3    H232377   2.325   6.637   7.914
 2728TIP3   OH232378   2.890   6.977   7.385
 2728TIP3    H132379   2.925   6.985   7.473
 2728TIP3    H232380   2.868   6.884   7.376
 2729TIP3   OH232381   1.978   6.545   8.416
 2729TIP3    H132382   1.937   6.494   8.486
 2729TIP3    H232383   1.916   6.540   8.343
 2730TIP3   OH232384   2.722   6.536   8.694
 2730TIP3    H132385   2.654   6.503   8.635
 2730TIP3    H232386   2.803   6.494   8.664
 2731TIP3   OH232387   3.129   7.069   8.538
 2731TIP3    H132388   3.037   7.068   8.513
 2731TIP3    H232389   3.128   7.082   8.633
 2732TIP3   OH232390   3.756   6.325   7.292
 2732TIP3    H132391   3.664   6.301   7.283
 2732TIP3    H232392   3.761   6.414   7.255
 2733TIP3   OH232393   3.751   6.922   8.597
 2733TIP3    H132394   3.662   6.901   8.570
 2733TIP3    H232395   3.807   6.879   8.531
 2734TIP3   OH232396   3.592   7.226   7.308
 2734TIP3    H132397   3.523   7.165   7.282
 2734TIP3    H232398   3.645   7.237   7.229
 2735TIP3   OH232399   3.260   6.646   8.009
 2735TIP3    H132400   3.164   6.642   8.011
 2735TIP3    H232401   3.287   6.556   7.989
 2736TIP3   OH232402   2.585   6.994   7.674
 2736TIP3    H132403   2.605   7.079   7.636
 2736TIP3    H232404   2.489   6.990   7.674
 2737TIP3   OH232405   2.661   6.765   7.537
 2737TIP3    H132406   2.651   6.849   7.582
 2737TIP3    H232407   2.590   6.711   7.570
 2738TIP3   OH232408   2.734   7.255   8.263
 2738TIP3    H132409   2.731   7.348   8.287
 2738TIP3    H232410   2.820   7.226   8.291
 2739TIP3   OH232411   2.564   7.247   7.566
 2739TIP3    H132412   2.472   7.275   7.564
 2739TIP3    H232413   2.607   7.313   7.620
 2740TIP3   OH232414   3.031   6.845   8.285
 2740TIP3    H132415   2.968   6.820   8.353
 2740TIP3    H232416   3.116   6.822   8.322
 2741TIP3   OH232417   3.380   7.032   7.254
 2741TIP3    H132418   3.406   6.970   7.323
 2741TIP3    H232419   3.289   7.009   7.234
 2742TIP3   OH232420   3.323   7.246   8.460
 2742TIP3    H132421   3.255   7.181   8.480
 2742TIP3    H232422   3.289   7.293   8.384
 2743TIP3   OH232423   2.196   6.037   8.466
 2743TIP3    H132424   2.112   6.073   8.498
 2743TIP3    H232425   2.211   5.960   8.521
 2744TIP3   OH232426   3.451   6.862   7.459
 2744TIP3    H132427   3.407   6.787   7.501
 2744TIP3    H232428   3.541   6.833   7.445
 2745TIP3   OH232429   2.162   7.186   8.243
 2745TIP3    H132430   2.187   7.112   8.300
 2745TIP3    H232431   2.162   7.262   8.302
 2746TIP3   OH232432   2.216   6.661   7.237
 2746TIP3    H132433   2.171   6.730   7.285
 2746TIP3    H232434   2.239   6.701   7.153
 2747TIP3   OH232435   3.115   5.993   8.205
 2747TIP3    H132436   3.154   6.034   8.283
 2747TIP3    H232437   3.056   5.926   8.241
 2748TIP3   OH232438   2.808   6.063   7.434
 2748TIP3    H132439   2.886   6.113   7.459
 2748TIP3    H232440   2.788   6.010   7.511
 2749TIP3   OH232441   2.875   6.266   8.401
 2749TIP3    H132442   2.891   6.319   8.479
 2749TIP3    H232443   2.863   6.177   8.435
 2750TIP3   OH232444   2.446   5.902   7.367
 2750TIP3    H132445   2.491   5.986   7.370
 2750TIP3    H232446   2.506   5.844   7.321
 2751TIP3   OH232447   3.470   6.018   8.438
 2751TIP3    H132448   3.384   6.054   8.416
 2751TIP3    H232449   3.532   6.075   8.392
 2752TIP3   OH232450   3.325   6.376   7.959
 2752TIP3    H132451   3.244   6.334   7.988
 2752TIP3    H232452   3.395   6.321   7.995
 2753TIP3   OH232453   2.176   6.432   7.055
 2753TIP3    H132454   2.115   6.458   6.986
 2753TIP3    H232455   2.173   6.503   7.118
 2754TIP3   OH232456   3.513   7.281   8.024
 2754TIP3    H132457   3.495   7.315   7.936
 2754TIP3    H232458   3.592   7.328   8.052
 2755TIP3   OH232459   2.221   5.750   7.937
 2755TIP3    H132460   2.212   5.728   7.844
 2755TIP3    H232461   2.196   5.670   7.983
 2756TIP3   OH232462   2.097   7.155   7.495
 2756TIP3    H132463   2.036   7.163   7.568
 2756TIP3    H232464   2.066   7.218   7.431
 2757TIP3   OH232465   2.063   7.403   8.660
 2757TIP3    H132466   2.132   7.392   8.726
 2757TIP3    H232467   2.006   7.327   8.672
 2758TIP3   OH232468   2.464   7.204   8.858
 2758TIP3    H132469   2.544   7.161   8.888
 2758TIP3    H232470   2.455   7.177   8.767
 2759TIP3   OH232471   3.123   7.102   8.809
 2759TIP3    H132472   3.123   7.017   8.852
 2759TIP3    H232473   3.195   7.150   8.850
 2760TIP3   OH232474   3.495   7.130   7.028
 2760TIP3    H132475   3.454   7.082   7.100
 2760TIP3    H232476   3.578   7.086   7.014
 2761TIP3   OH232477   1.990   6.804   8.797
 2761TIP3    H132478   1.924   6.742   8.827
 2761TIP3    H232479   1.946   6.855   8.729
 2762TIP3   OH232480   2.676   6.805   8.748
 2762TIP3    H132481   2.664   6.846   8.662
 2762TIP3    H232482   2.705   6.716   8.728
 2763TIP3   OH232483   3.111   6.963   7.212
 2763TIP3    H132484   3.058   6.966   7.292
 2763TIP3    H232485   3.046   6.960   7.141
 2764TIP3   OH232486   3.255   6.835   8.461
 2764TIP3    H132487   3.347   6.853   8.444
 2764TIP3    H232488   3.218   6.920   8.487
 2765TIP3   OH232489   2.101   6.442   8.760
 2765TIP3    H132490   2.156   6.471   8.687
 2765TIP3    H232491   2.121   6.504   8.831
 2766TIP3   OH232492   2.519   6.437   8.518
 2766TIP3    H132493   2.431   6.474   8.520
 2766TIP3    H232494   2.569   6.498   8.464
 2767TIP3   OH232495   3.025   6.675   8.730
 2767TIP3    H132496   3.109   6.643   8.698
 2767TIP3    H232497   3.000   6.612   8.798
 2768TIP3   OH232498   2.600   6.179   8.572
 2768TIP3    H132499   2.599   6.129   8.490
 2768TIP3    H232500   2.579   6.268   8.546
 2769TIP3   OH232501   2.600   6.048   8.323
 2769TIP3    H132502   2.648   6.092   8.253
 2769TIP3    H232503   2.511   6.038   8.290
 2770TIP3   OH232504   2.681   6.616   8.396
 2770TIP3    H132505   2.750   6.673   8.429
 2770TIP3    H232506   2.656   6.654   8.312
 2771TIP3   OH232507   3.175   6.329   8.805
 2771TIP3    H132508   3.167   6.241   8.767
 2771TIP3    H232509   3.261   6.329   8.846
 2772TIP3   OH232510   3.284   6.621   8.627
 2772TIP3    H132511   3.263   6.698   8.574
 2772TIP3    H232512   3.379   6.610   8.617
 2773TIP3   OH232513   2.426   6.199   8.787
 2773TIP3    H132514   2.339   6.166   8.764
 2773TIP3    H232515   2.476   6.194   8.705
 2774TIP3   OH232516   2.672   5.789   8.381
 2774TIP3    H132517   2.645   5.878   8.362
 2774TIP3    H232518   2.598   5.735   8.354
 2775TIP3   OH232519   2.832   6.135   8.738
 2775TIP3    H132520   2.821   6.103   8.827
 2775TIP3    H232521   2.744   6.134   8.700
 2776TIP3   OH232522   3.103   6.090   8.679
 2776TIP3    H132523   3.008   6.092   8.696
 2776TIP3    H232524   3.136   6.022   8.738
 2777TIP3   OH232525   3.194   5.916   8.870
 2777TIP3    H132526   3.184   5.822   8.853
 2777TIP3    H232527   3.162   5.928   8.959
 2778TIP3   OH232528   2.173   6.071   8.800
 2778TIP3    H132529   2.202   5.991   8.845
 2778TIP3    H232530   2.152   6.132   8.871
 2779TIP3   OH232531   2.670   5.691   8.637
 2779TIP3    H132532   2.714   5.607   8.626
 2779TIP3    H232533   2.675   5.732   8.550
 2780TIP3   OH232534   2.731   5.797   8.883
 2780TIP3    H132535   2.719   5.758   8.796
 2780TIP3    H232536   2.661   5.862   8.889
 2781TIP3   OH232537   2.776   7.463   7.237
 2781TIP3    H132538   2.855   7.480   7.186
 2781TIP3    H232539   2.722   7.540   7.224
 2782TIP3   OH232540   1.927   7.378   7.632
 2782TIP3    H132541   1.846   7.355   7.586
 2782TIP3    H232542   1.935   7.313   7.702
 2783TIP3   OH232543   2.011   7.188   7.812
 2783TIP3    H132544   2.006   7.104   7.857
 2783TIP3    H232545   2.049   7.248   7.877
 2784TIP3   OH232546   3.733   7.421   8.105
 2784TIP3    H132547   3.747   7.487   8.173
 2784TIP3    H232548   3.820   7.390   8.083
 2785TIP3   OH232549   3.687   7.321   8.435
 2785TIP3    H132550   3.654   7.245   8.387
 2785TIP3    H232551   3.732   7.284   8.511
 2786TIP3   OH232552   3.566   6.935   8.848
 2786TIP3    H132553   3.486   6.935   8.901
 2786TIP3    H232554   3.619   7.006   8.883
 2787TIP3   OH232555   3.703   6.748   7.442
 2787TIP3    H132556   3.777   6.809   7.442
 2787TIP3    H232557   3.723   6.686   7.513
 2788TIP3   OH232558   3.748   6.569   7.657
 2788TIP3    H132559   3.662   6.550   7.695
 2788TIP3    H232560   3.806   6.581   7.732
 2789TIP3   OH232561   3.786   6.813   8.172
 2789TIP3    H132562   3.797   6.744   8.107
 2789TIP3    H232563   3.843   6.884   8.141
 2790TIP3   OH232564   3.536   7.108   8.339
 2790TIP3    H132565   3.461   7.156   8.373
 2790TIP3    H232566   3.514   7.090   8.248
 2791TIP3   OH232567   3.707   6.586   7.209
 2791TIP3    H132568   3.626   6.576   7.159
 2791TIP3    H232569   3.685   6.648   7.278
 2792TIP3   OH232570   3.486   6.322   7.234
 2792TIP3    H132571   3.478   6.389   7.166
 2792TIP3    H232572   3.427   6.252   7.206
 2793TIP3   OH232573   3.495   6.478   7.755
 2793TIP3    H132574   3.497   6.400   7.699
 2793TIP3    H232575   3.442   6.452   7.830
 2794TIP3   OH232576   1.963   6.600   8.043
 2794TIP3    H132577   1.973   6.588   7.949
 2794TIP3    H232578   2.035   6.551   8.082
 2795TIP3   OH232579   3.554   6.612   8.571
 2795TIP3    H132580   3.612   6.544   8.534
 2795TIP3    H232581   3.561   6.685   8.509
 2796TIP3   OH232582   3.705   6.360   8.565
 2796TIP3    H132583   3.615   6.333   8.585
 2796TIP3    H232584   3.760   6.288   8.595
 2797TIP3   OH232585   3.501   6.197   8.067
 2797TIP3    H132586   3.593   6.212   8.042
 2797TIP3    H232587   3.495   6.232   8.156
 2798TIP3   OH232588   3.490   6.333   8.307
 2798TIP3    H132589   3.409   6.364   8.349
 2798TIP3    H232590   3.540   6.413   8.290
 2799TIP3   OH232591   1.981   6.147   8.613
 2799TIP3    H132592   2.049   6.134   8.678
 2799TIP3    H232593   1.910   6.088   8.640
 2800TIP3   OH232594   3.734   5.758   8.814
 2800TIP3    H132595   3.803   5.703   8.777
 2800TIP3    H232596   3.721   5.827   8.749
 2801TIP3   OH232597   2.114   6.006   7.951
 2801TIP3    H132598   2.146   5.916   7.948
 2801TIP3    H232599   2.193   6.060   7.951
 2802TIP3   OH232600   1.950   6.276   8.045
 2802TIP3    H132601   1.992   6.262   7.960
 2802TIP3    H232602   2.010   6.332   8.094
 2803TIP3   OH232603   3.636   5.966   8.657
 2803TIP3    H132604   3.573   5.985   8.726
 2803TIP3    H232605   3.584   5.962   8.577
 2804TIP3   OH232606   3.835   5.865   7.194
 2804TIP3    H132607   3.926   5.843   7.173
 2804TIP3    H232608   3.841   5.952   7.235
 2805TIP3   OH232609   1.884   5.932   7.417
 2805TIP3    H132610   1.802   5.936   7.465
 2805TIP3    H232611   1.858   5.910   7.327
 2806TIP3   OH232612   3.472   7.387   7.768
 2806TIP3    H132613   3.505   7.384   7.679
 2806TIP3    H232614   3.467   7.481   7.788
 2807TIP3   OH232615   1.936   5.721   8.246
 2807TIP3    H132616   1.915   5.682   8.161
 2807TIP3    H232617   1.941   5.815   8.228
 2808TIP3   OH232618   2.144   7.090   8.658
 2808TIP3    H132619   2.057   7.126   8.637
 2808TIP3    H232620   2.143   7.078   8.753
 2809TIP3   OH232621   2.477   7.199   8.338
 2809TIP3    H132622   2.438   7.282   8.308
 2809TIP3    H232623   2.570   7.208   8.317
 2810TIP3   OH232624   2.861   7.339   8.593
 2810TIP3    H132625   2.855   7.301   8.681
 2810TIP3    H232626   2.951   7.371   8.587
 2811TIP3   OH232627   3.120   7.435   8.576
 2811TIP3    H132628   3.196   7.380   8.555
 2811TIP3    H232629   3.147   7.486   8.653
 2812TIP3   OH232630   3.623   5.664   8.477
 2812TIP3    H132631   3.575   5.694   8.400
 2812TIP3    H232632   3.651   5.575   8.455
 2813TIP3   OH232633   2.163   7.417   8.397
 2813TIP3    H132634   2.098   7.478   8.361
 2813TIP3    H232635   2.144   7.416   8.491
 2814TIP3   OH232636   2.407   7.456   8.270
 2814TIP3    H132637   2.321   7.459   8.313
 2814TIP3    H232638   2.398   7.515   8.195
 2815TIP3   OH232639   2.929   7.467   8.131
 2815TIP3    H132640   2.844   7.486   8.090
 2815TIP3    H232641   2.933   7.525   8.206
 2816TIP3   OH232642   3.124   7.314   8.248
 2816TIP3    H132643   3.049   7.361   8.211
 2816TIP3    H232644   3.199   7.369   8.227
 2817TIP3   OH232645   3.368   7.434   8.208
 2817TIP3    H132646   3.347   7.504   8.145
 2817TIP3    H232647   3.420   7.372   8.158
 2818TIP3   OH232648   2.154   7.336   8.009
 2818TIP3    H132649   2.156   7.291   8.094
 2818TIP3    H232650   2.231   7.303   7.963
 2819TIP3   OH232651   2.360   7.219   7.874
 2819TIP3    H132652   2.348   7.125   7.889
 2819TIP3    H232653   2.444   7.239   7.916
 2820TIP3   OH232654   2.593   7.220   8.020
 2820TIP3    H132655   2.614   7.129   7.999
 2820TIP3    H232656   2.644   7.239   8.098
 2821TIP3   OH232657   2.907   5.779   7.857
 2821TIP3    H132658   2.837   5.744   7.912
 2821TIP3    H232659   2.971   5.707   7.851
 2822TIP3   OH232660   3.474   5.589   7.842
 2822TIP3    H132661   3.559   5.569   7.802
 2822TIP3    H232662   3.411   5.537   7.791
 2823TIP3   OH232663   2.162   5.677   7.676
 2823TIP3    H132664   2.067   5.671   7.681
 2823TIP3    H232665   2.189   5.597   7.632
 2824TIP3   OH232666   2.616   5.668   7.711
 2824TIP3    H132667   2.660   5.739   7.665
 2824TIP3    H232668   2.653   5.672   7.800
 2825TIP3   OH232669   2.008   7.349   7.307
 2825TIP3    H132670   1.915   7.368   7.295
 2825TIP3    H232671   2.048   7.434   7.325
 2826TIP3   OH232672   2.214   5.980   7.239
 2826TIP3    H132673   2.144   5.943   7.293
 2826TIP3    H232674   2.295   5.951   7.282
 2827TIP3   OH232675   2.757   5.963   7.179
 2827TIP3    H132676   2.709   5.881   7.188
 2827TIP3    H232677   2.782   5.986   7.268
 2828TIP3   OH232678   3.574   7.412   7.509
 2828TIP3    H132679   3.584   7.336   7.451
 2828TIP3    H232680   3.554   7.484   7.450
 2829TIP3   OH232681   2.214   5.783   8.615
 2829TIP3    H132682   2.165   5.736   8.683
 2829TIP3    H232683   2.304   5.785   8.648
 2830TIP3   OH232684   2.435   5.728   8.771
 2830TIP3    H132685   2.518   5.726   8.724
 2830TIP3    H232686   2.423   5.638   8.803
 2831TIP3   OH232687   3.218   5.651   8.781
 2831TIP3    H132688   3.217   5.603   8.863
 2831TIP3    H232689   3.311   5.655   8.757
 2832TIP3   OH232690   3.497   7.259   8.692
 2832TIP3    H132691   3.447   7.240   8.613
 2832TIP3    H232692   3.494   7.354   8.701
 2833TIP3   OH232693   4.088   6.556   8.222
 2833TIP3    H132694   4.111   6.466   8.243
 2833TIP3    H232695   4.117   6.606   8.299
 2834TIP3   OH232696   5.219   6.863   7.927
 2834TIP3    H132697   5.205   6.778   7.967
 2834TIP3    H232698   5.231   6.923   8.001
 2835TIP3   OH232699   4.234   6.954   7.988
 2835TIP3    H132700   4.212   6.861   7.985
 2835TIP3    H232701   4.329   6.957   7.980
 2836TIP3   OH232702   3.906   6.383   7.517
 2836TIP3    H132703   3.849   6.446   7.561
 2836TIP3    H232704   3.860   6.360   7.437
 2837TIP3   OH232705   3.984   6.545   7.831
 2837TIP3    H132706   3.985   6.451   7.848
 2837TIP3    H232707   4.035   6.556   7.751
 2838TIP3   OH232708   4.976   7.362   7.966
 2838TIP3    H132709   5.052   7.315   7.933
 2838TIP3    H232710   4.926   7.295   8.014
 2839TIP3   OH232711   4.735   6.906   8.088
 2839TIP3    H132712   4.789   6.984   8.074
 2839TIP3    H232713   4.790   6.848   8.141
 2840TIP3   OH232714   5.659   5.967   8.139
 2840TIP3    H132715   5.665   6.048   8.190
 2840TIP3    H232716   5.720   5.980   8.067
 2841TIP3   OH232717   4.968   6.251   7.989
 2841TIP3    H132718   4.982   6.157   7.999
 2841TIP3    H232719   4.990   6.269   7.897
 2842TIP3   OH232720   4.326   6.118   7.719
 2842TIP3    H132721   4.254   6.176   7.693
 2842TIP3    H232722   4.306   6.035   7.675
 2843TIP3   OH232723   5.179   6.087   7.642
 2843TIP3    H132724   5.202   6.065   7.732
 2843TIP3    H232725   5.263   6.112   7.601
 2844TIP3   OH232726   3.995   6.278   7.885
 2844TIP3    H132727   4.070   6.241   7.932
 2844TIP3    H232728   4.003   6.243   7.796
 2845TIP3   OH232729   5.675   6.195   8.292
 2845TIP3    H132730   5.585   6.224   8.308
 2845TIP3    H232731   5.713   6.187   8.379
 2846TIP3   OH232732   4.225   6.010   8.216
 2846TIP3    H132733   4.212   6.064   8.139
 2846TIP3    H232734   4.158   6.039   8.278
 2847TIP3   OH232735   4.511   6.784   8.205
 2847TIP3    H132736   4.450   6.848   8.243
 2847TIP3    H232737   4.579   6.837   8.164
 2848TIP3   OH232738   5.222   6.044   7.904
 2848TIP3    H132739   5.152   6.014   7.962
 2848TIP3    H232740   5.280   6.095   7.961
 2849TIP3   OH232741   4.221   6.148   7.977
 2849TIP3    H132742   4.283   6.211   8.015
 2849TIP3    H232743   4.263   6.120   7.896
 2850TIP3   OH232744   4.346   6.961   8.337
 2850TIP3    H132745   4.354   7.056   8.343
 2850TIP3    H232746   4.255   6.943   8.361
 2851TIP3   OH232747   3.906   6.943   7.426
 2851TIP3    H132748   3.873   6.990   7.349
 2851TIP3    H232749   3.928   7.011   7.489
 2852TIP3   OH232750   5.221   7.089   8.105
 2852TIP3    H132751   5.126   7.083   8.115
 2852TIP3    H232752   5.234   7.145   8.028
 2853TIP3   OH232753   5.396   5.878   8.149
 2853TIP3    H132754   5.373   5.849   8.060
 2853TIP3    H232755   5.484   5.915   8.140
 2854TIP3   OH232756   4.564   5.706   8.037
 2854TIP3    H132757   4.547   5.612   8.025
 2854TIP3    H232758   4.479   5.743   8.060
 2855TIP3   OH232759   5.193   7.228   7.865
 2855TIP3    H132760   5.173   7.151   7.812
 2855TIP3    H232761   5.236   7.289   7.805
 2856TIP3   OH232762   5.137   7.013   7.709
 2856TIP3    H132763   5.069   6.965   7.662
 2856TIP3    H232764   5.171   6.950   7.774
 2857TIP3   OH232765   5.427   6.872   8.428
 2857TIP3    H132766   5.422   6.825   8.345
 2857TIP3    H232767   5.421   6.964   8.403
 2858TIP3   OH232768   5.551   6.520   8.234
 2858TIP3    H132769   5.495   6.598   8.229
 2858TIP3    H232770   5.607   6.527   8.157
 2859TIP3   OH232771   5.278   6.494   7.402
 2859TIP3    H132772   5.285   6.587   7.377
 2859TIP3    H232773   5.336   6.486   7.477
 2860TIP3   OH232774   5.182   6.370   8.449
 2860TIP3    H132775   5.165   6.447   8.503
 2860TIP3    H232776   5.136   6.388   8.367
 2861TIP3   OH232777   4.506   6.983   7.946
 2861TIP3    H132778   4.523   7.000   7.853
 2861TIP3    H232779   4.589   6.950   7.979
 2862TIP3   OH232780   4.420   6.595   8.026
 2862TIP3    H132781   4.334   6.633   8.008
 2862TIP3    H232782   4.461   6.656   8.088
 2863TIP3   OH232783   4.948   7.079   8.155
 2863TIP3    H132784   4.955   7.154   8.214
 2863TIP3    H232785   4.941   7.003   8.214
 2864TIP3   OH232786   4.516   6.947   8.558
 2864TIP3    H132787   4.458   7.002   8.611
 2864TIP3    H232788   4.467   6.929   8.478
 2865TIP3   OH232789   4.174   6.623   8.481
 2865TIP3    H132790   4.179   6.698   8.540
 2865TIP3    H232791   4.089   6.583   8.501
 2866TIP3   OH232792   4.330   7.123   8.652
 2866TIP3    H132793   4.333   7.172   8.570
 2866TIP3    H232794   4.237   7.116   8.673
 2867TIP3   OH232795   4.132   6.531   7.597
 2867TIP3    H132796   4.126   6.604   7.535
 2867TIP3    H232797   4.073   6.465   7.562
 2868TIP3   OH232798   3.893   6.775   8.420
 2868TIP3    H132799   3.849   6.775   8.334
 2868TIP3    H232800   3.897   6.683   8.444
 2869TIP3   OH232801   3.977   6.994   8.096
 2869TIP3    H132802   4.064   6.983   8.058
 2869TIP3    H232803   3.989   7.063   8.162
 2870TIP3   OH232804   5.658   7.182   8.640
 2870TIP3    H132805   5.656   7.087   8.633
 2870TIP3    H232806   5.575   7.205   8.683
 2871TIP3   OH232807   4.739   7.101   8.508
 2871TIP3    H132808   4.733   7.180   8.561
 2871TIP3    H232809   4.659   7.051   8.530
 2872TIP3   OH232810   4.720   7.294   7.507
 2872TIP3    H132811   4.742   7.202   7.520
 2872TIP3    H232812   4.698   7.326   7.595
 2873TIP3   OH232813   4.154   7.323   7.692
 2873TIP3    H132814   4.171   7.283   7.777
 2873TIP3    H232815   4.097   7.260   7.647
 2874TIP3   OH232816   5.015   7.385   7.322
 2874TIP3    H132817   5.082   7.347   7.265
 2874TIP3    H232818   5.019   7.333   7.402
 2875TIP3   OH232819   5.079   7.239   7.541
 2875TIP3    H132820   5.081   7.153   7.585
 2875TIP3    H232821   5.145   7.290   7.588
 2876TIP3   OH232822   5.394   6.297   8.646
 2876TIP3    H132823   5.325   6.300   8.579
 2876TIP3    H232824   5.371   6.223   8.702
 2877TIP3   OH232825   4.090   6.966   8.442
 2877TIP3    H132826   4.111   6.955   8.535
 2877TIP3    H232827   4.022   6.900   8.425
 2878TIP3   OH232828   4.310   5.782   8.094
 2878TIP3    H132829   4.240   5.764   8.031
 2878TIP3    H232830   4.283   5.863   8.138
 2879TIP3   OH232831   4.832   5.767   8.416
 2879TIP3    H132832   4.867   5.736   8.500
 2879TIP3    H232833   4.739   5.781   8.434
 2880TIP3   OH232834   5.121   6.098   8.468
 2880TIP3    H132835   5.053   6.081   8.535
 2880TIP3    H232836   5.133   6.193   8.471
 2881TIP3   OH232837   4.377   6.336   8.105
 2881TIP3    H132838   4.312   6.347   8.175
 2881TIP3    H232839   4.395   6.426   8.076
 2882TIP3   OH232840   4.883   6.377   7.491
 2882TIP3    H132841   4.842   6.431   7.424
 2882TIP3    H232842   4.965   6.347   7.450
 2883TIP3   OH232843   4.842   6.327   8.621
 2883TIP3    H132844   4.781   6.263   8.657
 2883TIP3    H232845   4.922   6.316   8.673
 2884TIP3   OH232846   5.031   6.302   7.727
 2884TIP3    H132847   4.978   6.342   7.658
 2884TIP3    H232848   5.071   6.226   7.685
 2885TIP3   OH232849   4.189   6.316   8.312
 2885TIP3    H132850   4.254   6.348   8.375
 2885TIP3    H232851   4.147   6.243   8.357
 2886TIP3   OH232852   4.265   5.992   7.043
 2886TIP3    H132853   4.339   5.933   7.060
 2886TIP3    H232854   4.282   6.026   6.955
 2887TIP3   OH232855   3.751   6.013   7.789
 2887TIP3    H132856   3.820   5.997   7.853
 2887TIP3    H232857   3.785   5.975   7.707
 2888TIP3   OH232858   3.900   6.093   7.343
 2888TIP3    H132859   3.986   6.117   7.308
 2888TIP3    H232860   3.845   6.169   7.326
 2889TIP3   OH232861   5.034   6.404   8.211
 2889TIP3    H132862   5.025   6.356   8.129
 2889TIP3    H232863   4.952   6.388   8.258
 2890TIP3   OH232864   4.606   6.103   7.695
 2890TIP3    H132865   4.511   6.106   7.705
 2890TIP3    H232866   4.640   6.139   7.776
 2891TIP3   OH232867   4.069   6.190   7.637
 2891TIP3    H132868   4.009   6.239   7.580
 2891TIP3    H232869   4.081   6.106   7.592
 2892TIP3   OH232870   4.496   6.051   7.335
 2892TIP3    H132871   4.569   6.107   7.362
 2892TIP3    H232872   4.434   6.110   7.293
 2893TIP3   OH232873   4.986   5.977   8.040
 2893TIP3    H132874   4.958   5.988   8.130
 2893TIP3    H232875   4.938   5.900   8.009
 2894TIP3   OH232876   4.302   6.204   7.211
 2894TIP3    H132877   4.283   6.131   7.152
 2894TIP3    H232878   4.265   6.281   7.166
 2895TIP3   OH232879   5.384   7.544   8.693
 2895TIP3    H132880   5.397   7.561   8.600
 2895TIP3    H232881   5.470   7.563   8.733
 2896TIP3   OH232882   4.141   6.811   8.680
 2896TIP3    H132883   4.208   6.798   8.746
 2896TIP3    H232884   4.060   6.820   8.730
 2897TIP3   OH232885   4.696   6.207   7.930
 2897TIP3    H132886   4.786   6.233   7.951
 2897TIP3    H232887   4.657   6.188   8.015
 2898TIP3   OH232888   4.184   5.937   7.566
 2898TIP3    H132889   4.137   5.865   7.608
 2898TIP3    H232890   4.227   5.897   7.490
 2899TIP3   OH232891   4.599   6.196   8.191
 2899TIP3    H132892   4.531   6.259   8.166
 2899TIP3    H232893   4.664   6.248   8.238
 2900TIP3   OH232894   5.405   6.747   8.190
 2900TIP3    H132895   5.468   6.792   8.134
 2900TIP3    H232896   5.340   6.711   8.128
 2901TIP3   OH232897   4.941   6.035   7.314
 2901TIP3    H132898   4.859   6.071   7.349
 2901TIP3    H232899   4.998   6.111   7.304
 2902TIP3   OH232900   4.789   6.783   8.530
 2902TIP3    H132901   4.832   6.740   8.604
 2902TIP3    H232902   4.768   6.871   8.562
 2903TIP3   OH232903   5.118   6.272   7.388
 2903TIP3    H132904   5.186   6.209   7.410
 2903TIP3    H232905   5.163   6.355   7.380
 2904TIP3   OH232906   4.165   6.688   7.992
 2904TIP3    H132907   4.103   6.652   7.928
 2904TIP3    H232908   4.136   6.651   8.076
 2905TIP3   OH232909   3.923   6.522   8.537
 2905TIP3    H132910   3.965   6.496   8.620
 2905TIP3    H232911   3.843   6.471   8.533
 2906TIP3   OH232912   4.647   6.521   8.667
 2906TIP3    H132913   4.616   6.545   8.579
 2906TIP3    H232914   4.722   6.464   8.651
 2907TIP3   OH232915   5.016   7.082   8.520
 2907TIP3    H132916   4.924   7.088   8.496
 2907TIP3    H232917   5.016   7.090   8.616
 2908TIP3   OH232918   5.611   6.280   7.360
 2908TIP3    H132919   5.670   6.246   7.293
 2908TIP3    H232920   5.621   6.375   7.355
 2909TIP3   OH232921   5.659   6.913   8.582
 2909TIP3    H132922   5.568   6.903   8.555
 2909TIP3    H232923   5.710   6.883   8.506
 2910TIP3   OH232924   5.576   7.165   7.330
 2910TIP3    H132925   5.579   7.076   7.365
 2910TIP3    H232926   5.573   7.153   7.235
 2911TIP3   OH232927   5.211   6.607   8.046
 2911TIP3    H132928   5.150   6.557   8.101
 2911TIP3    H232929   5.232   6.547   7.974
 2912TIP3   OH232930   4.542   7.045   7.684
 2912TIP3    H132931   4.615   7.034   7.624
 2912TIP3    H232932   4.495   7.122   7.651
 2913TIP3   OH232933   3.978   6.612   7.172
 2913TIP3    H132934   3.995   6.570   7.088
 2913TIP3    H232935   3.883   6.610   7.181
 2914TIP3   OH232936   4.618   7.219   8.284
 2914TIP3    H132937   4.671   7.296   8.261
 2914TIP3    H232938   4.673   7.170   8.346
 2915TIP3   OH232939   4.419   7.290   7.608
 2915TIP3    H132940   4.331   7.313   7.638
 2915TIP3    H232941   4.477   7.348   7.658
 2916TIP3   OH232942   4.923   6.839   8.296
 2916TIP3    H132943   4.866   6.816   8.370
 2916TIP3    H232944   5.012   6.822   8.327
 2917TIP3   OH232945   5.201   7.288   8.479
 2917TIP3    H132946   5.128   7.227   8.471
 2917TIP3    H232947   5.187   7.352   8.409
 2918TIP3   OH232948   5.574   7.443   7.099
 2918TIP3    H132949   5.652   7.486   7.132
 2918TIP3    H232950   5.503   7.477   7.154
 2919TIP3   OH232951   4.075   6.091   8.436
 2919TIP3    H132952   3.993   6.113   8.480
 2919TIP3    H232953   4.109   6.016   8.485
 2920TIP3   OH232954   5.319   6.762   7.347
 2920TIP3    H132955   5.258   6.823   7.389
 2920TIP3    H232956   5.406   6.796   7.367
 2921TIP3   OH232957   4.026   7.192   8.287
 2921TIP3    H132958   4.053   7.124   8.349
 2921TIP3    H232959   4.022   7.272   8.339
 2922TIP3   OH232960   4.593   6.966   7.056
 2922TIP3    H132961   4.687   6.982   7.049
 2922TIP3    H232962   4.572   6.986   7.147
 2923TIP3   OH232963   4.558   7.050   7.310
 2923TIP3    H132964   4.619   7.042   7.384
 2923TIP3    H232965   4.514   7.133   7.324
 2924TIP3   OH232966   4.076   6.719   7.407
 2924TIP3    H132967   4.025   6.800   7.415
 2924TIP3    H232968   4.050   6.681   7.323
 2925TIP3   OH232969   4.917   6.013   8.305
 2925TIP3    H132970   4.996   6.035   8.354
 2925TIP3    H232971   4.879   5.938   8.353
 2926TIP3   OH232972   5.048   5.883   7.521
 2926TIP3    H132973   4.993   5.927   7.457
 2926TIP3    H232974   5.090   5.954   7.569
 2927TIP3   OH232975   4.726   6.155   7.452
 2927TIP3    H132976   4.774   6.236   7.469
 2927TIP3    H232977   4.688   6.132   7.537
 2928TIP3   OH232978   4.818   6.281   8.344
 2928TIP3    H132979   4.825   6.298   8.438
 2928TIP3    H232980   4.845   6.189   8.335
 2929TIP3   OH232981   4.704   5.838   7.671
 2929TIP3    H132982   4.677   5.930   7.680
 2929TIP3    H232983   4.715   5.826   7.577
 2930TIP3   OH232984   4.451   7.300   7.334
 2930TIP3    H132985   4.417   7.384   7.304
 2930TIP3    H232986   4.439   7.302   7.429
 2931TIP3   OH232987   4.320   5.834   7.346
 2931TIP3    H132988   4.376   5.912   7.340
 2931TIP3    H232989   4.375   5.763   7.313
 2932TIP3   OH232990   5.360   5.969   8.415
 2932TIP3    H132991   5.277   6.013   8.432
 2932TIP3    H232992   5.363   5.960   8.320
 2933TIP3   OH232993   5.263   6.403   7.856
 2933TIP3    H132994   5.181   6.368   7.821
 2933TIP3    H232995   5.294   6.334   7.915
 2934TIP3   OH232996   5.373   7.477   8.077
 2934TIP3    H132997   5.351   7.513   7.991
 2934TIP3    H232998   5.468   7.463   8.074
 2935TIP3   OH232999   4.087   5.730   7.942
 2935TIP3    H133000   4.071   5.728   7.847
 2935TIP3    H233001   4.094   5.638   7.967
 2936TIP3   OH233002   3.945   7.181   7.572
 2936TIP3    H133003   3.883   7.221   7.633
 2936TIP3    H233004   3.933   7.230   7.490
 2937TIP3   OH233005   3.929   7.411   8.668
 2937TIP3    H133006   3.994   7.400   8.738
 2937TIP3    H233007   3.878   7.331   8.670
 2938TIP3   OH233008   4.341   7.253   8.912
 2938TIP3    H133009   4.413   7.256   8.975
 2938TIP3    H233010   4.374   7.198   8.841
 2939TIP3   OH233011   5.011   7.099   8.794
 2939TIP3    H133012   5.010   7.012   8.834
 2939TIP3    H233013   5.086   7.143   8.833
 2940TIP3   OH233014   3.890   6.820   8.811
 2940TIP3    H133015   3.836   6.745   8.837
 2940TIP3    H233016   3.839   6.863   8.742
 2941TIP3   OH233017   4.583   6.778   8.765
 2941TIP3    H133018   4.568   6.823   8.682
 2941TIP3    H233019   4.616   6.691   8.740
 2942TIP3   OH233020   5.146   6.841   8.470
 2942TIP3    H133021   5.240   6.858   8.461
 2942TIP3    H233022   5.107   6.926   8.489
 2943TIP3   OH233023   4.050   6.435   8.764
 2943TIP3    H133024   4.134   6.392   8.775
 2943TIP3    H233025   4.038   6.483   8.846
 2944TIP3   OH233026   4.384   6.444   8.459
 2944TIP3    H133027   4.316   6.509   8.478
 2944TIP3    H233028   4.462   6.496   8.439
 2945TIP3   OH233029   4.924   6.656   8.739
 2945TIP3    H133030   5.003   6.621   8.699
 2945TIP3    H233031   4.895   6.588   8.800
 2946TIP3   OH233032   4.432   6.195   8.580
 2946TIP3    H133033   4.447   6.133   8.510
 2946TIP3    H233034   4.430   6.280   8.537
 2947TIP3   OH233035   4.462   6.025   8.356
 2947TIP3    H133036   4.520   6.074   8.297
 2947TIP3    H233037   4.380   6.018   8.308
 2948TIP3   OH233038   4.590   6.625   8.416
 2948TIP3    H133039   4.663   6.679   8.447
 2948TIP3    H233040   4.558   6.670   8.338
 2949TIP3   OH233041   5.046   6.259   8.804
 2949TIP3    H133042   5.038   6.165   8.821
 2949TIP3    H233043   5.140   6.277   8.812
 2950TIP3   OH233044   5.169   6.604   8.610
 2950TIP3    H133045   5.141   6.682   8.563
 2950TIP3    H233046   5.264   6.605   8.606
 2951TIP3   OH233047   4.250   6.232   8.782
 2951TIP3    H133048   4.183   6.166   8.765
 2951TIP3    H233049   4.310   6.225   8.708
 2952TIP3   OH233050   4.553   5.769   8.405
 2952TIP3    H133051   4.524   5.859   8.391
 2952TIP3    H233052   4.483   5.715   8.368
 2953TIP3   OH233053   4.678   6.139   8.732
 2953TIP3    H133054   4.672   6.125   8.827
 2953TIP3    H233055   4.586   6.145   8.704
 2954TIP3   OH233056   4.910   6.022   8.628
 2954TIP3    H133057   4.823   6.051   8.658
 2954TIP3    H233058   4.954   5.991   8.707
 2955TIP3   OH233059   5.067   5.975   8.851
 2955TIP3    H133060   5.087   5.881   8.844
 2955TIP3    H233061   5.039   5.986   8.942
 2956TIP3   OH233062   4.065   6.018   8.752
 2956TIP3    H133063   4.075   5.935   8.705
 2956TIP3    H233064   4.078   5.994   8.844
 2957TIP3   OH233065   4.527   5.672   8.658
 2957TIP3    H133066   4.582   5.593   8.657
 2957TIP3    H233067   4.534   5.707   8.569
 2958TIP3   OH233068   4.607   5.831   8.864
 2958TIP3    H133069   4.588   5.774   8.790
 2958TIP3    H233070   4.538   5.897   8.863
 2959TIP3   OH233071   3.744   7.529   7.688
 2959TIP3    H133072   3.692   7.496   7.615
 2959TIP3    H233073   3.757   7.453   7.744
 2960TIP3   OH233074   3.818   7.292   7.814
 2960TIP3    H133075   3.754   7.228   7.843
 2960TIP3    H233076   3.878   7.302   7.888
 2961TIP3   OH233077   5.649   7.457   8.083
 2961TIP3    H133078   5.678   7.507   8.159
 2961TIP3    H233079   5.729   7.421   8.046
 2962TIP3   OH233080   5.560   7.321   8.416
 2962TIP3    H133081   5.519   7.251   8.365
 2962TIP3    H233082   5.606   7.276   8.487
 2963TIP3   OH233083   5.474   6.945   8.838
 2963TIP3    H133084   5.393   6.954   8.888
 2963TIP3    H233085   5.531   7.013   8.874
 2964TIP3   OH233086   5.568   6.854   7.427
 2964TIP3    H133087   5.657   6.883   7.408
 2964TIP3    H233088   5.579   6.786   7.494
 2965TIP3   OH233089   5.616   6.629   7.591
 2965TIP3    H133090   5.550   6.563   7.613
 2965TIP3    H233091   5.683   6.621   7.659
 2966TIP3   OH233092   5.658   6.839   8.110
 2966TIP3    H133093   5.691   6.757   8.075
 2966TIP3    H233094   5.715   6.906   8.070
 2967TIP3   OH233095   5.377   7.123   8.332
 2967TIP3    H133096   5.318   7.181   8.380
 2967TIP3    H233097   5.336   7.112   8.247
 2968TIP3   OH233098   5.676   6.543   7.335
 2968TIP3    H133099   5.771   6.536   7.324
 2968TIP3    H233100   5.665   6.589   7.418
 2969TIP3   OH233101   5.434   6.413   7.633
 2969TIP3    H133102   5.410   6.327   7.597
 2969TIP3    H233103   5.381   6.422   7.712
 2970TIP3   OH233104   3.853   6.553   8.078
 2970TIP3    H133105   3.889   6.559   7.989
 2970TIP3    H233106   3.930   6.553   8.135
 2971TIP3   OH233107   5.435   6.640   8.587
 2971TIP3    H133108   5.507   6.579   8.571
 2971TIP3    H233109   5.451   6.712   8.526
 2972TIP3   OH233110   5.625   6.443   8.614
 2972TIP3    H133111   5.552   6.383   8.632
 2972TIP3    H233112   5.694   6.414   8.673
 2973TIP3   OH233113   5.390   6.165   7.480
 2973TIP3    H133114   5.404   6.072   7.467
 2973TIP3    H233115   5.458   6.208   7.428
 2974TIP3   OH233116   5.383   6.225   8.036
 2974TIP3    H133117   5.475   6.235   8.012
 2974TIP3    H233118   5.381   6.239   8.131
 2975TIP3   OH233119   5.414   6.296   8.303
 2975TIP3    H133120   5.339   6.320   8.358
 2975TIP3    H233121   5.458   6.379   8.284
 2976TIP3   OH233122   3.853   6.127   8.606
 2976TIP3    H133123   3.920   6.104   8.670
 2976TIP3    H233124   3.781   6.067   8.624
 2977TIP3   OH233125   5.639   5.794   8.796
 2977TIP3    H133126   5.699   5.722   8.780
 2977TIP3    H233127   5.644   5.848   8.717
 2978TIP3   OH233128   5.417   5.891   7.460
 2978TIP3    H133129   5.451   5.846   7.538
 2978TIP3    H233130   5.349   5.833   7.428
 2979TIP3   OH233131   3.951   5.966   7.985
 2979TIP3    H133132   3.990   5.880   7.975
 2979TIP3    H233133   4.025   6.027   7.976
 2980TIP3   OH233134   3.756   6.290   8.034
 2980TIP3    H133135   3.826   6.262   7.975
 2980TIP3    H233136   3.779   6.380   8.057
 2981TIP3   OH233137   5.590   5.919   8.554
 2981TIP3    H133138   5.511   5.962   8.519
 2981TIP3    H233139   5.584   5.829   8.523
 2982TIP3   OH233140   5.628   5.964   7.035
 2982TIP3    H133141   5.567   5.982   6.964
 2982TIP3    H233142   5.712   5.999   7.005
 2983TIP3   OH233143   3.837   5.898   7.544
 2983TIP3    H133144   3.774   5.842   7.498
 2983TIP3    H233145   3.860   5.966   7.481
 2984TIP3   OH233146   5.277   7.399   7.653
 2984TIP3    H133147   5.361   7.387   7.609
 2984TIP3    H233148   5.294   7.469   7.717
 2985TIP3   OH233149   3.852   5.726   8.316
 2985TIP3    H133150   3.788   5.721   8.387
 2985TIP3    H233151   3.823   5.801   8.264
 2986TIP3   OH233152   4.058   7.128   8.709
 2986TIP3    H133153   3.964   7.125   8.695
 2986TIP3    H233154   4.069   7.188   8.783
 2987TIP3   OH233155   4.366   7.230   8.395
 2987TIP3    H133156   4.322   7.307   8.361
 2987TIP3    H233157   4.456   7.237   8.362
 2988TIP3   OH233158   4.748   7.336   8.655
 2988TIP3    H133159   4.751   7.303   8.745
 2988TIP3    H233160   4.834   7.375   8.640
 2989TIP3   OH233161   4.996   7.451   8.615
 2989TIP3    H133162   5.069   7.399   8.582
 2989TIP3    H233163   5.032   7.500   8.688
 2990TIP3   OH233164   5.518   5.670   8.460
 2990TIP3    H133165   5.438   5.671   8.407
 2990TIP3    H233166   5.551   5.580   8.452
 2991TIP3   OH233167   4.009   7.447   8.403
 2991TIP3    H133168   3.936   7.497   8.366
 2991TIP3    H233169   3.989   7.441   8.496
 2992TIP3   OH233170   4.265   7.470   8.300
 2992TIP3    H133171   4.176   7.468   8.334
 2992TIP3    H233172   4.262   7.534   8.228
 2993TIP3   OH233173   4.750   7.444   8.201
 2993TIP3    H133174   4.695   7.484   8.133
 2993TIP3    H233175   4.755   7.510   8.270
 2994TIP3   OH233176   4.977   7.316   8.283
 2994TIP3    H133177   4.899   7.363   8.254
 2994TIP3    H233178   5.049   7.377   8.264
 2995TIP3   OH233179   5.193   7.492   8.276
 2995TIP3    H133180   5.152   7.576   8.256
 2995TIP3    H233181   5.252   7.476   8.202
 2996TIP3   OH233182   3.989   7.331   8.047
 2996TIP3    H133183   3.991   7.287   8.132
 2996TIP3    H233184   4.068   7.300   8.002
 2997TIP3   OH233185   4.216   7.224   7.941
 2997TIP3    H133186   4.212   7.129   7.950
 2997TIP3    H233187   4.300   7.248   7.980
 2998TIP3   OH233188   4.473   7.239   8.051
 2998TIP3    H133189   4.486   7.155   8.007
 2998TIP3    H233190   4.516   7.228   8.136
 2999TIP3   OH233191   4.824   5.744   7.950
 2999TIP3    H133192   4.732   5.748   7.978
 2999TIP3    H233193   4.820   5.765   7.856
 3000TIP3   OH233194   5.346   5.746   7.905
 3000TIP3    H133195   5.412   5.760   7.837
 3000TIP3    H233196   5.262   5.758   7.861
 3001TIP3   OH233197   5.526   5.759   7.684
 3001TIP3    H133198   5.594   5.698   7.658
 3001TIP3    H233199   5.573   5.838   7.712
 3002TIP3   OH233200   4.025   5.736   7.673
 3002TIP3    H133201   3.950   5.779   7.632
 3002TIP3    H233202   4.027   5.649   7.634
 3003TIP3   OH233203   4.468   5.718   7.769
 3003TIP3    H133204   4.542   5.747   7.716
 3003TIP3    H233205   4.498   5.728   7.859
 3004TIP3   OH233206   5.122   5.712   7.733
 3004TIP3    H133207   5.083   5.766   7.664
 3004TIP3    H233208   5.187   5.659   7.687
 3005TIP3   OH233209   5.202   5.728   7.359
 3005TIP3    H133210   5.146   5.783   7.414
 3005TIP3    H233211   5.175   5.638   7.379
 3006TIP3   OH233212   3.915   7.313   7.334
 3006TIP3    H133213   3.870   7.279   7.257
 3006TIP3    H233214   3.906   7.408   7.327
 3007TIP3   OH233215   4.104   5.814   7.171
 3007TIP3    H133216   4.140   5.876   7.108
 3007TIP3    H233217   4.168   5.812   7.243
 3008TIP3   OH233218   4.676   5.838   7.374
 3008TIP3    H133219   4.618   5.768   7.341
 3008TIP3    H233220   4.624   5.918   7.365
 3009TIP3   OH233221   5.499   7.376   7.491
 3009TIP3    H133222   5.519   7.297   7.442
 3009TIP3    H233223   5.481   7.442   7.424
 3010TIP3   OH233224   4.093   5.767   8.635
 3010TIP3    H133225   4.024   5.707   8.664
 3010TIP3    H233226   4.170   5.741   8.687
 3011TIP3   OH233227   4.295   5.680   8.801
 3011TIP3    H133228   4.377   5.687   8.751
 3011TIP3    H233229   4.301   5.595   8.844
 3012TIP3   OH233230   5.137   5.710   8.814
 3012TIP3    H133231   5.134   5.657   8.893
 3012TIP3    H233232   5.227   5.704   8.784
 3013TIP3   OH233233   5.390   7.269   8.691
 3013TIP3    H133234   5.331   7.257   8.616
 3013TIP3    H233235   5.395   7.363   8.703
 3014TIP3   OH233236   6.859   6.565   7.745
 3014TIP3    H133237   6.861   6.660   7.736
 3014TIP3    H233238   6.813   6.535   7.667
 3015TIP3   OH233239   6.812   6.622   8.021
 3015TIP3    H133240   6.822   6.549   8.082
 3015TIP3    H233241   6.809   6.581   7.935
 3016TIP3   OH233242   5.959   6.449   8.137
 3016TIP3    H133243   5.978   6.388   8.209
 3016TIP3    H233244   6.043   6.488   8.115
 3017TIP3   OH233245   7.222   6.881   7.893
 3017TIP3    H133246   7.172   6.802   7.917
 3017TIP3    H233247   7.209   6.940   7.967
 3018TIP3   OH233248   6.117   6.957   7.944
 3018TIP3    H133249   6.091   6.871   7.911
 3018TIP3    H233250   6.210   6.949   7.963
 3019TIP3   OH233251   5.681   6.228   7.620
 3019TIP3    H133252   5.635   6.299   7.665
 3019TIP3    H233253   5.658   6.239   7.528
 3020TIP3   OH233254   5.814   6.576   7.781
 3020TIP3    H133255   5.843   6.487   7.798
 3020TIP3    H233256   5.892   6.630   7.794
 3021TIP3   OH233257   6.831   7.348   7.903
 3021TIP3    H133258   6.909   7.302   7.872
 3021TIP3    H233259   6.758   7.293   7.876
 3022TIP3   OH233260   6.618   6.826   8.070
 3022TIP3    H133261   6.676   6.758   8.036
 3022TIP3    H233262   6.667   6.865   8.142
 3023TIP3   OH233263   7.378   5.892   8.126
 3023TIP3    H133264   7.390   5.970   8.179
 3023TIP3    H233265   7.389   5.921   8.036
 3024TIP3   OH233266   6.943   6.185   8.062
 3024TIP3    H133267   6.949   6.090   8.076
 3024TIP3    H233268   6.903   6.194   7.976
 3025TIP3   OH233269   6.224   6.060   7.745
 3025TIP3    H133270   6.219   6.147   7.706
 3025TIP3    H233271   6.172   6.005   7.686
 3026TIP3   OH233272   6.987   6.136   7.627
 3026TIP3    H133273   7.024   6.095   7.705
 3026TIP3    H233274   7.063   6.159   7.573
 3027TIP3   OH233275   5.890   6.323   7.861
 3027TIP3    H133276   5.955   6.293   7.925
 3027TIP3    H233277   5.910   6.273   7.782
 3028TIP3   OH233278   6.342   6.400   7.862
 3028TIP3    H133279   6.427   6.356   7.860
 3028TIP3    H233280   6.297   6.369   7.783
 3029TIP3   OH233281   7.394   6.086   8.328
 3029TIP3    H133282   7.360   6.173   8.309
 3029TIP3    H233283   7.472   6.102   8.382
 3030TIP3   OH233284   6.123   5.979   8.197
 3030TIP3    H133285   6.086   6.043   8.135
 3030TIP3    H233286   6.066   5.983   8.273
 3031TIP3   OH233287   6.848   6.819   7.641
 3031TIP3    H133288   6.827   6.833   7.549
 3031TIP3    H233289   6.835   6.905   7.681
 3032TIP3   OH233290   6.363   6.750   8.159
 3032TIP3    H133291   6.323   6.827   8.199
 3032TIP3    H233292   6.445   6.783   8.120
 3033TIP3   OH233293   7.147   6.055   7.836
 3033TIP3    H133294   7.218   5.998   7.808
 3033TIP3    H233295   7.180   6.100   7.913
 3034TIP3   OH233296   6.093   6.151   7.974
 3034TIP3    H133297   6.156   6.203   8.024
 3034TIP3    H233298   6.144   6.115   7.901
 3035TIP3   OH233299   6.253   6.961   8.306
 3035TIP3    H133300   6.267   7.055   8.304
 3035TIP3    H233301   6.161   6.950   8.331
 3036TIP3   OH233302   5.817   6.957   7.382
 3036TIP3    H133303   5.880   6.951   7.311
 3036TIP3    H233304   5.853   7.023   7.441
 3037TIP3   OH233305   7.174   7.061   8.097
 3037TIP3    H133306   7.084   7.075   8.129
 3037TIP3    H233307   7.200   7.145   8.061
 3038TIP3   OH233308   7.140   5.815   8.249
 3038TIP3    H133309   7.065   5.853   8.203
 3038TIP3    H233310   7.216   5.841   8.196
 3039TIP3   OH233311   6.468   5.661   8.019
 3039TIP3    H133312   6.446   5.568   8.027
 3039TIP3    H233313   6.385   5.706   8.030
 3040TIP3   OH233314   7.043   7.230   7.758
 3040TIP3    H133315   7.100   7.158   7.731
 3040TIP3    H233316   7.085   7.308   7.723
 3041TIP3   OH233317   7.199   7.021   7.661
 3041TIP3    H133318   7.176   6.952   7.600
 3041TIP3    H233319   7.219   6.976   7.743
 3042TIP3   OH233320   7.279   6.836   8.418
 3042TIP3    H133321   7.276   6.789   8.335
 3042TIP3    H233322   7.290   6.928   8.394
 3043TIP3   OH233323   6.762   6.500   7.500
 3043TIP3    H133324   6.685   6.552   7.478
 3043TIP3    H233325   6.833   6.539   7.450
 3044TIP3   OH233326   7.463   6.514   8.152
 3044TIP3    H133327   7.396   6.581   8.165
 3044TIP3    H233328   7.512   6.542   8.075
 3045TIP3   OH233329   7.111   6.584   7.582
 3045TIP3    H133330   7.046   6.584   7.652
 3045TIP3    H233331   7.179   6.524   7.613
 3046TIP3   OH233332   7.026   6.409   8.433
 3046TIP3    H133333   7.002   6.482   8.491
 3046TIP3    H233334   6.974   6.423   8.354
 3047TIP3   OH233335   6.182   6.596   7.631
 3047TIP3    H133336   6.175   6.598   7.536
 3047TIP3    H233337   6.194   6.504   7.653
 3048TIP3   OH233338   6.404   6.974   7.946
 3048TIP3    H133339   6.401   6.976   7.851
 3048TIP3    H233340   6.485   6.927   7.967
 3049TIP3   OH233341   6.209   6.547   8.050
 3049TIP3    H133342   6.264   6.507   7.983
 3049TIP3    H233343   6.264   6.617   8.087
 3050TIP3   OH233344   6.940   7.105   8.233
 3050TIP3    H133345   6.906   7.184   8.275
 3050TIP3    H233346   6.871   7.039   8.245
 3051TIP3   OH233347   6.405   6.953   8.542
 3051TIP3    H133348   6.344   7.015   8.583
 3051TIP3    H233349   6.365   6.932   8.458
 3052TIP3   OH233350   6.977   6.562   7.340
 3052TIP3    H133351   7.039   6.579   7.411
 3052TIP3    H233352   7.017   6.601   7.262
 3053TIP3   OH233353   6.017   6.494   8.515
 3053TIP3    H133354   6.022   6.560   8.584
 3053TIP3    H233355   5.938   6.516   8.466
 3054TIP3   OH233356   6.812   7.085   7.711
 3054TIP3    H133357   6.895   7.130   7.727
 3054TIP3    H233358   6.765   7.143   7.652
 3055TIP3   OH233359   6.210   7.139   8.601
 3055TIP3    H133360   6.225   7.182   8.517
 3055TIP3    H233361   6.115   7.132   8.608
 3056TIP3   OH233362   6.193   6.522   7.365
 3056TIP3    H133363   6.104   6.506   7.335
 3056TIP3    H233364   6.232   6.435   7.371
 3057TIP3   OH233365   5.781   6.813   8.358
 3057TIP3    H133366   5.734   6.825   8.276
 3057TIP3    H233367   5.787   6.718   8.370
 3058TIP3   OH233368   5.854   7.022   8.029
 3058TIP3    H133369   5.942   6.995   8.002
 3058TIP3    H233370   5.868   7.082   8.102
 3059TIP3   OH233371   7.562   7.137   8.648
 3059TIP3    H133372   7.553   7.045   8.623
 3059TIP3    H233373   7.476   7.161   8.683
 3060TIP3   OH233374   6.620   7.131   8.496
 3060TIP3    H133375   6.607   7.209   8.550
 3060TIP3    H233376   6.546   7.074   8.517
 3061TIP3   OH233377   6.688   7.277   7.554
 3061TIP3    H133378   6.610   7.244   7.508
 3061TIP3    H233379   6.655   7.349   7.607
 3062TIP3   OH233380   6.113   7.320   7.646
 3062TIP3    H133381   6.115   7.295   7.738
 3062TIP3    H233382   6.048   7.262   7.606
 3063TIP3   OH233383   6.927   7.307   7.128
 3063TIP3    H133384   6.853   7.250   7.109
 3063TIP3    H233385   6.938   7.301   7.223
 3064TIP3   OH233386   6.929   7.290   7.407
 3064TIP3    H133387   6.847   7.296   7.456
 3064TIP3    H233388   6.950   7.197   7.406
 3065TIP3   OH233389   7.184   6.300   8.646
 3065TIP3    H133390   7.137   6.343   8.574
 3065TIP3    H233391   7.193   6.209   8.618
 3066TIP3   OH233392   5.992   6.984   8.396
 3066TIP3    H133393   5.977   7.013   8.486
 3066TIP3    H233394   5.924   6.919   8.380
 3067TIP3   OH233395   6.215   5.770   8.043
 3067TIP3    H133396   6.145   5.762   7.979
 3067TIP3    H233397   6.193   5.848   8.094
 3068TIP3   OH233398   6.669   5.803   8.452
 3068TIP3    H133399   6.709   5.754   8.523
 3068TIP3    H233400   6.575   5.798   8.468
 3069TIP3   OH233401   6.950   6.135   8.464
 3069TIP3    H133402   6.905   6.124   8.548
 3069TIP3    H233403   6.964   6.230   8.456
 3070TIP3   OH233404   7.063   6.623   7.085
 3070TIP3    H133405   7.017   6.558   7.031
 3070TIP3    H233406   7.126   6.663   7.025
 3071TIP3   OH233407   6.245   6.294   8.161
 3071TIP3    H133408   6.184   6.285   8.234
 3071TIP3    H233409   6.237   6.385   8.134
 3072TIP3   OH233410   6.199   6.316   7.636
 3072TIP3    H133411   6.108   6.288   7.623
 3072TIP3    H233412   6.240   6.303   7.551
 3073TIP3   OH233413   6.780   6.232   7.448
 3073TIP3    H133414   6.769   6.319   7.486
 3073TIP3    H233415   6.847   6.190   7.503
 3074TIP3   OH233416   6.680   6.353   8.611
 3074TIP3    H133417   6.636   6.279   8.653
 3074TIP3    H233418   6.762   6.362   8.659
 3075TIP3   OH233419   6.856   6.294   7.820
 3075TIP3    H133420   6.859   6.385   7.792
 3075TIP3    H233421   6.892   6.244   7.747
 3076TIP3   OH233422   6.045   6.273   8.346
 3076TIP3    H133423   6.033   6.334   8.418
 3076TIP3    H233424   6.022   6.187   8.383
 3077TIP3   OH233425   5.663   5.983   7.754
 3077TIP3    H133426   5.727   5.992   7.824
 3077TIP3    H233427   5.665   6.067   7.708
 3078TIP3   OH233428   5.791   6.247   7.159
 3078TIP3    H133429   5.796   6.311   7.088
 3078TIP3    H233430   5.816   6.164   7.118
 3079TIP3   OH233431   6.868   6.409   8.201
 3079TIP3    H133432   6.902   6.331   8.155
 3079TIP3    H233433   6.788   6.378   8.243
 3080TIP3   OH233434   6.498   6.044   7.703
 3080TIP3    H133435   6.405   6.034   7.723
 3080TIP3    H233436   6.528   6.115   7.760
 3081TIP3   OH233437   5.955   6.188   7.628
 3081TIP3    H133438   5.862   6.195   7.608
 3081TIP3    H233439   5.981   6.101   7.595
 3082TIP3   OH233440   6.318   6.273   7.394
 3082TIP3    H133441   6.392   6.214   7.404
 3082TIP3    H233442   6.298   6.271   7.300
 3083TIP3   OH233443   6.907   5.906   8.112
 3083TIP3    H133444   6.840   5.940   8.172
 3083TIP3    H233445   6.858   5.850   8.052
 3084TIP3   OH233446   6.263   6.298   7.131
 3084TIP3    H133447   6.206   6.226   7.103
 3084TIP3    H233448   6.274   6.353   7.054
 3085TIP3   OH233449   7.318   7.499   8.716
 3085TIP3    H133450   7.327   7.527   8.625
 3085TIP3    H233451   7.401   7.523   8.756
 3086TIP3   OH233452   6.004   6.661   8.727
 3086TIP3    H133453   6.072   6.686   8.789
 3086TIP3    H233454   5.926   6.708   8.757
 3087TIP3   OH233455   6.578   6.246   7.871
 3087TIP3    H133456   6.672   6.264   7.866
 3087TIP3    H233457   6.563   6.225   7.963
 3088TIP3   OH233458   6.061   5.944   7.550
 3088TIP3    H133459   6.022   5.858   7.565
 3088TIP3    H233460   6.088   5.942   7.458
 3089TIP3   OH233461   6.502   6.207   8.131
 3089TIP3    H133462   6.414   6.245   8.140
 3089TIP3    H233463   6.553   6.248   8.201
 3090TIP3   OH233464   6.562   6.661   7.408
 3090TIP3    H133465   6.507   6.648   7.331
 3090TIP3    H233466   6.504   6.701   7.472
 3091TIP3   OH233467   7.280   6.715   8.176
 3091TIP3    H133468   7.340   6.774   8.131
 3091TIP3    H233469   7.209   6.701   8.114
 3092TIP3   OH233470   6.631   6.784   8.512
 3092TIP3    H133471   6.677   6.760   8.593
 3092TIP3    H233472   6.564   6.846   8.540
 3093TIP3   OH233473   6.062   6.696   7.857
 3093TIP3    H133474   6.105   6.669   7.776
 3093TIP3    H233475   6.102   6.642   7.925
 3094TIP3   OH233476   6.758   6.854   7.372
 3094TIP3    H133477   6.727   6.883   7.286
 3094TIP3    H233478   6.695   6.787   7.399
 3095TIP3   OH233479   5.768   6.542   8.406
 3095TIP3    H133480   5.725   6.506   8.484
 3095TIP3    H233481   5.709   6.520   8.334
 3096TIP3   OH233482   6.481   6.534   8.683
 3096TIP3    H133483   6.406   6.502   8.632
 3096TIP3    H233484   6.557   6.489   8.646
 3097TIP3   OH233485   6.877   7.055   8.570
 3097TIP3    H133486   6.791   7.075   8.533
 3097TIP3    H233487   6.867   7.066   8.664
 3098TIP3   OH233488   7.302   6.350   7.310
 3098TIP3    H133489   7.239   6.320   7.245
 3098TIP3    H233490   7.295   6.446   7.307
 3099TIP3   OH233491   7.519   6.883   8.552
 3099TIP3    H133492   7.428   6.876   8.524
 3099TIP3    H233493   7.569   6.859   8.474
 3100TIP3   OH233494   7.246   7.148   7.417
 3100TIP3    H133495   7.246   7.112   7.506
 3100TIP3    H233496   7.161   7.122   7.381
 3101TIP3   OH233497   7.090   6.655   7.989
 3101TIP3    H133498   6.996   6.662   8.002
 3101TIP3    H233499   7.103   6.566   7.956
 3102TIP3   OH233500   6.321   7.020   7.683
 3102TIP3    H133501   6.359   7.101   7.648
 3102TIP3    H233502   6.227   7.037   7.685
 3103TIP3   OH233503   5.938   6.465   7.278
 3103TIP3    H133504   5.954   6.518   7.200
 3103TIP3    H233505   5.908   6.381   7.244
 3104TIP3   OH233506   6.389   6.775   7.580
 3104TIP3    H133507   6.371   6.862   7.615
 3104TIP3    H233508   6.318   6.720   7.613
 3105TIP3   OH233509   6.542   7.251   8.256
 3105TIP3    H133510   6.609   7.314   8.230
 3105TIP3    H233511   6.582   7.202   8.328
 3106TIP3   OH233512   6.384   7.272   7.595
 3106TIP3    H133513   6.295   7.306   7.593
 3106TIP3    H233514   6.436   7.344   7.630
 3107TIP3   OH233515   6.774   6.885   8.297
 3107TIP3    H133516   6.713   6.857   8.365
 3107TIP3    H233517   6.858   6.847   8.323
 3108TIP3   OH233518   6.990   7.018   7.379
 3108TIP3    H133519   7.049   6.948   7.405
 3108TIP3    H233520   6.905   6.976   7.368
 3109TIP3   OH233521   7.094   7.209   8.506
 3109TIP3    H133522   7.026   7.148   8.535
 3109TIP3    H233523   7.047   7.277   8.458
 3110TIP3   OH233524   7.425   7.301   7.051
 3110TIP3    H133525   7.426   7.364   6.979
 3110TIP3    H233526   7.385   7.348   7.124
 3111TIP3   OH233527   5.978   5.999   8.431
 3111TIP3    H133528   5.902   6.043   8.469
 3111TIP3    H233529   5.987   5.919   8.481
 3112TIP3   OH233530   7.167   6.826   7.467
 3112TIP3    H133531   7.141   6.745   7.511
 3112TIP3    H233532   7.259   6.813   7.444
 3113TIP3   OH233533   5.924   7.202   8.237
 3113TIP3    H133534   5.956   7.130   8.291
 3113TIP3    H233535   5.919   7.277   8.297
 3114TIP3   OH233536   6.753   6.022   8.314
 3114TIP3    H133537   6.832   6.049   8.361
 3114TIP3    H233538   6.720   5.947   8.365
 3115TIP3   OH233539   6.857   5.906   7.504
 3115TIP3    H133540   6.894   5.894   7.417
 3115TIP3    H233541   6.913   5.972   7.545
 3116TIP3   OH233542   6.535   6.104   7.435
 3116TIP3    H133543   6.623   6.140   7.432
 3116TIP3    H233544   6.523   6.077   7.526
 3117TIP3   OH233545   6.665   6.286   8.338
 3117TIP3    H133546   6.660   6.312   8.430
 3117TIP3    H233547   6.688   6.193   8.340
 3118TIP3   OH233548   6.660   5.823   7.681
 3118TIP3    H133549   6.606   5.902   7.684
 3118TIP3    H233550   6.729   5.843   7.617
 3119TIP3   OH233551   6.153   5.949   7.285
 3119TIP3    H133552   6.128   6.005   7.212
 3119TIP3    H233553   6.248   5.939   7.276
 3120TIP3   OH233554   7.205   6.056   8.529
 3120TIP3    H133555   7.117   6.053   8.492
 3120TIP3    H233556   7.263   6.046   8.453
 3121TIP3   OH233557   7.123   6.385   7.911
 3121TIP3    H133558   7.037   6.343   7.913
 3121TIP3    H233559   7.180   6.324   7.958
 3122TIP3   OH233560   5.844   6.420   6.956
 3122TIP3    H133561   5.895   6.494   6.987
 3122TIP3    H233562   5.900   6.377   6.892
 3123TIP3   OH233563   7.279   7.310   8.044
 3123TIP3    H133564   7.258   7.390   7.996
 3123TIP3    H233565   7.373   7.316   8.060
 3124TIP3   OH233566   5.981   5.747   7.896
 3124TIP3    H133567   5.972   5.737   7.802
 3124TIP3    H233568   5.955   5.662   7.932
 3125TIP3   OH233569   5.903   7.167   7.552
 3125TIP3    H133570   5.848   7.176   7.629
 3125TIP3    H233571   5.868   7.231   7.490
 3126TIP3   OH233572   5.828   7.403   8.661
 3126TIP3    H133573   5.889   7.386   8.733
 3126TIP3    H233574   5.769   7.328   8.661
 3127TIP3   OH233575   6.230   7.211   8.867
 3127TIP3    H133576   6.308   7.167   8.900
 3127TIP3    H233577   6.229   7.190   8.773
 3128TIP3   OH233578   6.875   7.097   8.842
 3128TIP3    H133579   6.879   7.013   8.888
 3128TIP3    H233580   6.959   7.139   8.861
 3129TIP3   OH233581   5.771   6.794   8.805
 3129TIP3    H133582   5.698   6.744   8.843
 3129TIP3    H233583   5.732   6.840   8.731
 3130TIP3   OH233584   6.435   6.795   8.769
 3130TIP3    H133585   6.418   6.841   8.687
 3130TIP3    H233586   6.462   6.707   8.743
 3131TIP3   OH233587   6.998   6.831   8.463
 3131TIP3    H133588   7.089   6.853   8.446
 3131TIP3    H233589   6.960   6.911   8.499
 3132TIP3   OH233590   5.855   6.388   8.755
 3132TIP3    H133591   5.926   6.421   8.701
 3132TIP3    H233592   5.866   6.432   8.839
 3133TIP3   OH233593   6.393   6.600   7.190
 3133TIP3    H133594   6.323   6.576   7.250
 3133TIP3    H233595   6.377   6.547   7.112
 3134TIP3   OH233596   6.288   6.424   8.509
 3134TIP3    H133597   6.197   6.455   8.508
 3134TIP3    H233598   6.335   6.486   8.453
 3135TIP3   OH233599   6.321   6.497   6.941
 3135TIP3    H133600   6.257   6.565   6.919
 3135TIP3    H233601   6.358   6.471   6.856
 3136TIP3   OH233602   6.785   6.699   8.746
 3136TIP3    H133603   6.863   6.662   8.706
 3136TIP3    H233604   6.755   6.632   8.808
 3137TIP3   OH233605   6.323   6.157   8.561
 3137TIP3    H133606   6.334   6.111   8.478
 3137TIP3    H233607   6.311   6.249   8.536
 3138TIP3   OH233608   6.368   6.028   8.313
 3138TIP3    H133609   6.426   6.069   8.250
 3138TIP3    H233610   6.285   6.020   8.267
 3139TIP3   OH233611   6.439   6.611   8.385
 3139TIP3    H133612   6.514   6.660   8.419
 3139TIP3    H233613   6.416   6.656   8.303
 3140TIP3   OH233614   6.918   6.339   8.764
 3140TIP3    H133615   6.895   6.246   8.756
 3140TIP3    H233616   7.013   6.340   8.756
 3141TIP3   OH233617   7.032   6.619   8.629
 3141TIP3    H133618   7.008   6.693   8.573
 3141TIP3    H233619   7.127   6.612   8.621
 3142TIP3   OH233620   6.182   6.145   8.806
 3142TIP3    H133621   6.108   6.086   8.797
 3142TIP3    H233622   6.221   6.149   8.718
 3143TIP3   OH233623   6.395   5.766   8.399
 3143TIP3    H133624   6.382   5.857   8.373
 3143TIP3    H233625   6.326   5.718   8.354
 3144TIP3   OH233626   6.549   6.135   8.719
 3144TIP3    H133627   6.515   6.092   8.798
 3144TIP3    H233628   6.474   6.138   8.660
 3145TIP3   OH233629   6.826   6.091   8.702
 3145TIP3    H133630   6.732   6.079   8.715
 3145TIP3    H233631   6.867   6.024   8.757
 3146TIP3   OH233632   6.981   5.931   8.862
 3146TIP3    H133633   6.973   5.836   8.849
 3146TIP3    H233634   6.959   5.944   8.955
 3147TIP3   OH233635   5.981   5.961   8.801
 3147TIP3    H133636   5.972   5.895   8.733
 3147TIP3    H233637   5.986   5.911   8.883
 3148TIP3   OH233638   6.437   5.647   8.638
 3148TIP3    H133639   6.487   5.568   8.619
 3148TIP3    H233640   6.416   5.684   8.552
 3149TIP3   OH233641   6.578   5.818   8.802
 3149TIP3    H133642   6.536   5.748   8.752
 3149TIP3    H233643   6.505   5.874   8.829
 3150TIP3   OH233644   5.721   7.422   7.655
 3150TIP3    H133645   5.643   7.415   7.600
 3150TIP3    H233646   5.719   7.343   7.710
 3151TIP3   OH233647   5.782   7.196   7.807
 3151TIP3    H133648   5.773   7.113   7.854
 3151TIP3    H233649   5.813   7.258   7.873
 3152TIP3   OH233650   7.537   7.334   8.153
 3152TIP3    H133651   7.528   7.310   8.246
 3152TIP3    H233652   7.558   7.428   8.155
 3153TIP3   OH233653   7.476   7.283   8.420
 3153TIP3    H133654   7.418   7.211   8.396
 3153TIP3    H233655   7.528   7.248   8.493
 3154TIP3   OH233656   7.409   6.914   8.912
 3154TIP3    H133657   7.324   6.936   8.950
 3154TIP3    H233658   7.470   6.977   8.950
 3155TIP3   OH233659   7.436   6.776   7.441
 3155TIP3    H133660   7.498   6.840   7.477
 3155TIP3    H233661   7.457   6.694   7.486
 3156TIP3   OH233662   7.501   6.553   7.590
 3156TIP3    H133663   7.433   6.508   7.639
 3156TIP3    H233664   7.579   6.546   7.645
 3157TIP3   OH233665   7.500   6.843   8.076
 3157TIP3    H133666   7.531   6.788   8.003
 3157TIP3    H233667   7.521   6.932   8.050
 3158TIP3   OH233668   7.288   7.097   8.346
 3158TIP3    H133669   7.214   7.137   8.391
 3158TIP3    H233670   7.258   7.086   8.255
 3159TIP3   OH233671   7.101   6.299   7.129
 3159TIP3    H133672   7.065   6.355   7.060
 3159TIP3    H233673   7.106   6.212   7.089
 3160TIP3   OH233674   7.290   6.395   7.684
 3160TIP3    H133675   7.274   6.314   7.636
 3160TIP3    H233676   7.242   6.385   7.766
 3161TIP3   OH233677   5.740   6.586   8.047
 3161TIP3    H133678   5.748   6.580   7.951
 3161TIP3    H233679   5.816   6.537   8.080
 3162TIP3   OH233680   7.303   6.618   8.590
 3162TIP3    H133681   7.365   6.551   8.561
 3162TIP3    H233682   7.309   6.687   8.524
 3163TIP3   OH233683   7.444   6.371   8.554
 3163TIP3    H133684   7.362   6.347   8.598
 3163TIP3    H233685   7.496   6.290   8.556
 3164TIP3   OH233686   7.100   6.085   6.966
 3164TIP3    H133687   7.188   6.051   6.979
 3164TIP3    H233688   7.092   6.095   6.871
 3165TIP3   OH233689   7.234   6.177   7.517
 3165TIP3    H133690   7.258   6.085   7.504
 3165TIP3    H233691   7.262   6.221   7.437
 3166TIP3   OH233692   7.277   6.194   8.038
 3166TIP3    H133693   7.372   6.200   8.039
 3166TIP3    H233694   7.250   6.217   8.127
 3167TIP3   OH233695   7.259   6.325   8.284
 3167TIP3    H133696   7.182   6.358   8.330
 3167TIP3    H233697   7.305   6.404   8.255
 3168TIP3   OH233698   5.769   6.131   8.550
 3168TIP3    H133699   5.785   6.171   8.636
 3168TIP3    H233700   5.706   6.062   8.567
 3169TIP3   OH233701   7.539   5.707   8.804
 3169TIP3    H133702   7.615   5.659   8.770
 3169TIP3    H233703   7.525   5.777   8.741
 3170TIP3   OH233704   7.283   5.907   7.472
 3170TIP3    H133705   7.264   5.819   7.505
 3170TIP3    H233706   7.303   5.894   7.379
 3171TIP3   OH233707   5.862   5.991   7.951
 3171TIP3    H133708   5.903   5.906   7.935
 3171TIP3    H233709   5.935   6.053   7.954
 3172TIP3   OH233710   5.654   6.270   8.015
 3172TIP3    H133711   5.733   6.292   7.964
 3172TIP3    H233712   5.686   6.260   8.104
 3173TIP3   OH233713   7.434   5.906   8.647
 3173TIP3    H133714   7.364   5.947   8.697
 3173TIP3    H233715   7.390   5.863   8.574
 3174TIP3   OH233716   5.614   5.807   7.253
 3174TIP3    H133717   5.591   5.862   7.328
 3174TIP3    H233718   5.631   5.869   7.182
 3175TIP3   OH233719   7.168   7.457   7.663
 3175TIP3    H133720   7.201   7.439   7.575
 3175TIP3    H233721   7.240   7.501   7.707
 3176TIP3   OH233722   5.714   5.730   8.262
 3176TIP3    H133723   5.649   5.732   8.333
 3176TIP3    H233724   5.703   5.814   8.217
 3177TIP3   OH233725   5.936   7.102   8.641
 3177TIP3    H133726   5.849   7.139   8.625
 3177TIP3    H233727   5.936   7.079   8.734
 3178TIP3   OH233728   6.283   7.234   8.351
 3178TIP3    H133729   6.240   7.317   8.330
 3178TIP3    H233730   6.373   7.246   8.320
 3179TIP3   OH233731   6.605   7.354   8.654
 3179TIP3    H133732   6.616   7.323   8.744
 3179TIP3    H233733   6.683   7.408   8.639
 3180TIP3   OH233734   6.835   7.494   8.594
 3180TIP3    H133735   6.881   7.452   8.522
 3180TIP3    H233736   6.904   7.513   8.659
 3181TIP3   OH233737   7.299   5.735   8.473
 3181TIP3    H133738   7.242   5.766   8.403
 3181TIP3    H233739   7.347   5.662   8.435
 3182TIP3   OH233740   5.917   7.433   8.395
 3182TIP3    H133741   5.848   7.491   8.361
 3182TIP3    H233742   5.898   7.426   8.488
 3183TIP3   OH233743   6.177   7.482   8.297
 3183TIP3    H133744   6.088   7.475   8.329
 3183TIP3    H233745   6.169   7.527   8.213
 3184TIP3   OH233746   6.736   7.432   8.179
 3184TIP3    H133747   6.757   7.438   8.085
 3184TIP3    H233748   6.716   7.522   8.204
 3185TIP3   OH233749   6.935   7.379   8.360
 3185TIP3    H133750   6.860   7.397   8.303
 3185TIP3    H233751   7.010   7.419   8.315
 3186TIP3   OH233752   7.162   7.468   8.237
 3186TIP3    H133753   7.154   7.534   8.168
 3186TIP3    H233754   7.197   7.390   8.192
 3187TIP3   OH233755   5.905   7.352   8.007
 3187TIP3    H133756   5.903   7.306   8.091
 3187TIP3    H233757   5.987   7.323   7.967
 3188TIP3   OH233758   6.133   7.232   7.909
 3188TIP3    H133759   6.119   7.138   7.921
 3188TIP3    H233760   6.218   7.249   7.950
 3189TIP3   OH233761   6.388   7.238   8.026
 3189TIP3    H133762   6.397   7.148   7.997
 3189TIP3    H233763   6.439   7.242   8.108
 3190TIP3   OH233764   6.730   5.752   7.943
 3190TIP3    H133765   6.642   5.727   7.972
 3190TIP3    H233766   6.717   5.784   7.853
 3191TIP3   OH233767   7.247   5.688   7.859
 3191TIP3    H133768   7.290   5.773   7.865
 3191TIP3    H233769   7.235   5.673   7.766
 3192TIP3   OH233770   7.406   5.922   7.829
 3192TIP3    H133771   7.444   5.851   7.778
 3192TIP3    H233772   7.445   6.002   7.792
 3193TIP3   OH233773   5.950   5.694   7.625
 3193TIP3    H133774   5.863   5.661   7.603
 3193TIP3    H233775   6.006   5.616   7.625
 3194TIP3   OH233776   5.717   5.561   7.168
 3194TIP3    H133777   5.701   5.561   7.074
 3194TIP3    H233778   5.698   5.651   7.196
 3195TIP3   OH233779   6.474   5.626   7.741
 3195TIP3    H133780   6.527   5.699   7.708
 3195TIP3    H233781   6.459   5.647   7.833
 3196TIP3   OH233782   5.805   7.334   7.357
 3196TIP3    H133783   5.722   7.290   7.334
 3196TIP3    H233784   5.800   7.418   7.312
 3197TIP3   OH233785   6.429   5.907   7.271
 3197TIP3    H133786   6.502   5.873   7.219
 3197TIP3    H233787   6.467   5.978   7.322
 3198TIP3   OH233788   7.346   7.401   7.454
 3198TIP3    H133789   7.320   7.310   7.436
 3198TIP3    H233790   7.342   7.445   7.369
 3199TIP3   OH233791   5.966   5.757   8.595
 3199TIP3    H133792   5.901   5.699   8.636
 3199TIP3    H233793   6.049   5.732   8.636
 3200TIP3   OH233794   6.182   5.678   8.737
 3200TIP3    H133795   6.272   5.670   8.704
 3200TIP3    H233796   6.187   5.648   8.828
 3201TIP3   OH233797   7.004   5.663   8.809
 3201TIP3    H133798   6.986   5.605   8.883
 3201TIP3    H233799   7.096   5.649   8.789
 3202TIP3   OH233800   7.298   7.225   8.695
 3202TIP3    H133801   7.233   7.216   8.626
 3202TIP3    H233802   7.309   7.320   8.705
 3203TIP3   OH233803   7.561   6.332   7.438
 3203TIP3    H133804   7.541   6.416   7.478
 3203TIP3    H233805   7.486   6.313   7.381
 3204TIP3   OH233806   7.618   6.779   8.321
 3204TIP3    H133807   7.585   6.800   8.234
 3204TIP3    H233808   7.614   6.683   8.325
 3205TIP3   OH233809   7.597   7.098   8.020
 3205TIP3    H133810   7.689   7.081   8.038
 3205TIP3    H233811   7.577   7.179   8.067
 3206TIP3   OH233812   7.526   6.124   7.682
 3206TIP3    H133813   7.515   6.216   7.659
 3206TIP3    H233814   7.540   6.080   7.598
 3207TIP3   OH233815   7.616   6.503   8.385
 3207TIP3    H133816   7.562   6.459   8.450
 3207TIP3    H233817   7.573   6.486   8.301
 3208TIP3   OH233818   7.627   6.694   8.719
 3208TIP3    H133819   7.551   6.662   8.769
 3208TIP3    H233820   7.591   6.764   8.664
 3209TIP3   OH233821   7.460   7.515   7.675
 3209TIP3    H133822   7.425   7.478   7.594
 3209TIP3    H233823   7.488   7.439   7.726
 3210TIP3   OH233824   7.570   7.287   7.791
 3210TIP3    H133825   7.532   7.216   7.843
 3210TIP3    H233826   7.664   7.274   7.797
 3211TIP3   OH233827   7.610   6.616   7.943
 3211TIP3    H133828   7.642   6.587   7.857
 3211TIP3    H233829   7.688   6.647   7.989
 3212TIP3   OH233830   7.576   6.123   8.546
 3212TIP3    H133831   7.668   6.104   8.560
 3212TIP3    H233832   7.529   6.049   8.585
 3213TIP3   OH233833   7.539   6.253   8.095
 3213TIP3    H133834   7.634   6.257   8.089
 3213TIP3    H233835   7.513   6.343   8.115
 3214TIP3   OH233836   7.561   6.018   7.430
 3214TIP3    H133837   7.490   5.954   7.420
 3214TIP3    H233838   7.555   6.074   7.353
 3215TIP3   OH233839   7.570   5.712   8.215
 3215TIP3    H133840   7.533   5.657   8.284
 3215TIP3    H233841   7.497   5.769   8.189
 3216TIP3   OH233842   0.833   7.574   7.971
 3216TIP3    H133843   0.827   7.534   7.885
 3216TIP3    H233844   0.744   7.568   8.006
 3217TIP3   OH233845   1.759   7.462   7.262
 3217TIP3    H133846   1.734   7.448   7.170
 3217TIP3    H233847   1.764   7.557   7.271
 3218TIP3   OH233848   0.573   7.629   8.060
 3218TIP3    H133849   0.488   7.622   8.016
 3218TIP3    H233850   0.581   7.722   8.081
 3219TIP3   OH233851   1.048   7.549   8.368
 3219TIP3    H133852   1.093   7.527   8.450
 3219TIP3    H233853   0.955   7.543   8.390
 3220TIP3   OH233854   0.313   7.632   7.971
 3220TIP3    H133855   0.295   7.615   7.878
 3220TIP3    H233856   0.274   7.558   8.017
 3221TIP3   OH233857   0.774   7.569   8.366
 3221TIP3    H133858   0.771   7.661   8.342
 3221TIP3    H233859   0.695   7.531   8.326
 3222TIP3   OH233860   0.712   7.479   8.617
 3222TIP3    H133861   0.786   7.429   8.651
 3222TIP3    H233862   0.728   7.488   8.523
 3223TIP3   OH233863   1.882   7.563   8.799
 3223TIP3    H133864   1.948   7.522   8.744
 3223TIP3    H233865   1.911   7.654   8.807
 3224TIP3   OH233866   0.095   7.648   8.366
 3224TIP3    H133867   0.076   7.740   8.382
 3224TIP3    H233868   0.023   7.617   8.312
 3225TIP3   OH233869   1.623   7.587   8.481
 3225TIP3    H133870   1.568   7.586   8.403
 3225TIP3    H233871   1.685   7.516   8.468
 3226TIP3   OH233872   1.516   7.543   7.831
 3226TIP3    H133873   1.530   7.638   7.822
 3226TIP3    H233874   1.422   7.533   7.846
 3227TIP3   OH233875   0.282   7.566   7.709
 3227TIP3    H133876   0.202   7.539   7.665
 3227TIP3    H233877   0.343   7.493   7.694
 3228TIP3   OH233878   0.238   7.513   7.396
 3228TIP3    H133879   0.232   7.596   7.348
 3228TIP3    H233880   0.165   7.516   7.458
 3229TIP3   OH233881   0.825   7.490   7.575
 3229TIP3    H133882   0.850   7.504   7.484
 3229TIP3    H233883   0.833   7.577   7.615
 3230TIP3   OH233884   1.245   7.529   7.875
 3230TIP3    H133885   1.227   7.613   7.834
 3230TIP3    H233886   1.187   7.525   7.951
 3231TIP3   OH233887   1.287   7.633   7.311
 3231TIP3    H133888   1.233   7.590   7.244
 3231TIP3    H233889   1.241   7.615   7.393
 3232TIP3   OH233890   0.438   7.510   8.654
 3232TIP3    H133891   0.530   7.487   8.645
 3232TIP3    H233892   0.412   7.472   8.738
 3233TIP3   OH233893   1.345   7.567   8.812
 3233TIP3    H133894   1.329   7.523   8.895
 3233TIP3    H233895   1.440   7.559   8.798
 3234TIP3   OH233896   2.686   7.522   8.006
 3234TIP3    H133897   2.675   7.458   7.936
 3234TIP3    H233898   2.597   7.543   8.034
 3235TIP3   OH233899   3.526   7.618   7.330
 3235TIP3    H133900   3.431   7.616   7.326
 3235TIP3    H233901   3.549   7.709   7.313
 3236TIP3   OH233902   2.429   7.625   8.050
 3236TIP3    H133903   2.354   7.617   7.990
 3236TIP3    H233904   2.452   7.718   8.047
 3237TIP3   OH233905   2.949   7.560   8.396
 3237TIP3    H133906   3.017   7.521   8.450
 3237TIP3    H233907   2.869   7.514   8.422
 3238TIP3   OH233908   2.209   7.584   7.886
 3238TIP3    H133909   2.185   7.569   7.795
 3238TIP3    H233910   2.178   7.506   7.933
 3239TIP3   OH233911   2.663   7.515   8.343
 3239TIP3    H133912   2.670   7.607   8.318
 3239TIP3    H233913   2.574   7.490   8.319
 3240TIP3   OH233914   2.645   7.523   8.619
 3240TIP3    H133915   2.710   7.456   8.641
 3240TIP3    H233916   2.640   7.522   8.524
 3241TIP3   OH233917   3.738   7.574   8.782
 3241TIP3    H133918   3.807   7.526   8.736
 3241TIP3    H233919   3.773   7.661   8.796
 3242TIP3   OH233920   1.960   7.576   8.309
 3242TIP3    H133921   1.892   7.535   8.362
 3242TIP3    H233922   1.946   7.670   8.321
 3243TIP3   OH233923   3.537   7.546   8.408
 3243TIP3    H133924   3.471   7.519   8.344
 3243TIP3    H233925   3.591   7.468   8.421
 3244TIP3   OH233926   3.322   7.596   7.994
 3244TIP3    H133927   3.361   7.682   7.984
 3244TIP3    H233928   3.262   7.587   7.921
 3245TIP3   OH233929   2.143   7.541   7.613
 3245TIP3    H133930   2.059   7.494   7.620
 3245TIP3    H233931   2.208   7.472   7.605
 3246TIP3   OH233932   2.617   7.470   7.724
 3246TIP3    H133933   2.689   7.529   7.701
 3246TIP3    H233934   2.539   7.525   7.717
 3247TIP3   OH233935   3.157   7.567   7.766
 3247TIP3    H133936   3.170   7.533   7.678
 3247TIP3    H233937   3.088   7.512   7.803
 3248TIP3   OH233938   3.246   7.604   7.324
 3248TIP3    H133939   3.211   7.581   7.238
 3248TIP3    H233940   3.211   7.536   7.382
 3249TIP3   OH233941   2.379   7.569   8.705
 3249TIP3    H133942   2.466   7.539   8.681
 3249TIP3    H233943   2.343   7.498   8.758
 3250TIP3   OH233944   3.229   7.562   8.793
 3250TIP3    H133945   3.219   7.516   8.877
 3250TIP3    H233946   3.323   7.555   8.774
 3251TIP3   OH233947   4.536   7.508   8.021
 3251TIP3    H133948   4.514   7.415   8.029
 3251TIP3    H233949   4.457   7.554   8.049
 3252TIP3   OH233950   5.425   7.570   7.306
 3252TIP3    H133951   5.341   7.590   7.346
 3252TIP3    H233952   5.466   7.655   7.292
 3253TIP3   OH233953   4.315  -0.018   8.096
 3253TIP3    H133954   4.231  -0.036   8.054
 3253TIP3    H233955   4.341   0.068   8.064
 3254TIP3   OH233956   4.803   7.565   8.448
 3254TIP3    H133957   4.876   7.534   8.502
 3254TIP3    H233958   4.727   7.519   8.482
 3255TIP3   OH233959   4.072   7.600   7.987
 3255TIP3    H133960   4.057   7.593   7.892
 3255TIP3    H233961   4.032   7.522   8.024
 3256TIP3   OH233962   4.515   7.528   8.395
 3256TIP3    H133963   4.515   7.623   8.386
 3256TIP3    H233964   4.431   7.500   8.358
 3257TIP3   OH233965   4.507   7.477   8.661
 3257TIP3    H133966   4.582   7.420   8.681
 3257TIP3    H233967   4.501   7.475   8.566
 3258TIP3   OH233968   5.641   7.570   8.779
 3258TIP3    H133969   5.711   7.526   8.731
 3258TIP3    H233970   5.673   7.659   8.793
 3259TIP3   OH233971   3.804   7.608   8.303
 3259TIP3    H133972   3.720   7.606   8.349
 3259TIP3    H233973   3.826   7.701   8.297
 3260TIP3   OH233974   5.436   7.561   8.417
 3260TIP3    H133975   5.358   7.543   8.364
 3260TIP3    H233976   5.484   7.478   8.417
 3261TIP3   OH233977   5.285   7.597   7.841
 3261TIP3    H133978   5.321   7.685   7.836
 3261TIP3    H233979   5.190   7.609   7.840
 3262TIP3   OH233980   4.017   7.563   7.719
 3262TIP3    H133981   3.926   7.543   7.696
 3262TIP3    H233982   4.066   7.484   7.696
 3263TIP3   OH233983   3.774   7.534   7.218
 3263TIP3    H133984   3.767   7.451   7.170
 3263TIP3    H233985   3.686   7.550   7.252
 3264TIP3   OH233986   4.609   7.440   7.744
 3264TIP3    H133987   4.663   7.515   7.719
 3264TIP3    H233988   4.593   7.452   7.838
 3265TIP3   OH233989   5.002   7.600   7.833
 3265TIP3    H133990   4.920   7.610   7.785
 3265TIP3    H233991   4.990   7.519   7.883
 3266TIP3   OH233992   5.180   7.580   7.450
 3266TIP3    H133993   5.110   7.534   7.403
 3266TIP3    H233994   5.201   7.523   7.524
 3267TIP3   OH233995   4.254   7.536   8.762
 3267TIP3    H133996   4.339   7.499   8.738
 3267TIP3    H233997   4.208   7.463   8.804
 3268TIP3   OH233998   5.140   7.567   8.819
 3268TIP3    H133999   5.133   7.523   8.904
 3268TIP3    H234000   5.230   7.552   8.792
 3269TIP3   OH234001   6.421   7.506   7.954
 3269TIP3    H134002   6.418   7.413   7.975
 3269TIP3    H234003   6.340   7.542   7.991
 3270TIP3   OH234004   7.301   7.514   7.208
 3270TIP3    H134005   7.209   7.525   7.230
 3270TIP3    H234006   7.324   7.595   7.162
 3271TIP3   OH234007   6.193   7.625   8.060
 3271TIP3    H134008   6.114   7.620   8.005
 3271TIP3    H234009   6.215   7.718   8.061
 3272TIP3   OH234010   6.696   7.630   8.386
 3272TIP3    H134011   6.737   7.596   8.466
 3272TIP3    H234012   6.603   7.608   8.396
 3273TIP3   OH234013   5.965   7.609   7.909
 3273TIP3    H134014   5.962   7.594   7.814
 3273TIP3    H234015   5.923   7.532   7.947
 3274TIP3   OH234016   6.417   7.594   8.384
 3274TIP3    H134017   6.419   7.681   8.344
 3274TIP3    H234018   6.338   7.553   8.348
 3275TIP3   OH234019   6.372   7.498   8.636
 3275TIP3    H134020   6.442   7.436   8.654
 3275TIP3    H234021   6.382   7.520   8.543
 3276TIP3   OH234022   7.574   7.564   8.806
 3276TIP3    H134023   7.656   7.520   8.785
 3276TIP3    H234024   7.597   7.656   8.812
 3277TIP3   OH234025   5.718   7.606   8.310
 3277TIP3    H134026   5.631   7.599   8.349
 3277TIP3    H234027   5.738   7.700   8.312
 3278TIP3   OH234028   7.344   7.526   8.435
 3278TIP3    H134029   7.271   7.507   8.375
 3278TIP3    H234030   7.394   7.444   8.438
 3279TIP3   OH234031   7.174   7.567   7.976
 3279TIP3    H134032   7.204   7.657   7.962
 3279TIP3    H234033   7.094   7.560   7.925
 3280TIP3   OH234034   5.959   7.558   7.639
 3280TIP3    H134035   5.872   7.517   7.632
 3280TIP3    H234036   6.020   7.487   7.620
 3281TIP3   OH234037   6.550   7.464   7.707
 3281TIP3    H134038   6.584   7.549   7.680
 3281TIP3    H234039   6.510   7.480   7.792
 3282TIP3   OH234040   6.959   7.578   7.804
 3282TIP3    H134041   7.009   7.537   7.734
 3282TIP3    H234042   6.893   7.512   7.828
 3283TIP3   OH234043   7.032   7.528   7.284
 3283TIP3    H134044   6.990   7.497   7.204
 3283TIP3    H234045   7.005   7.465   7.351
 3284TIP3   OH234046   6.124   7.566   8.739
 3284TIP3    H134047   6.203   7.527   8.702
 3284TIP3    H234048   6.079   7.494   8.783
 3285TIP3   OH234049   7.044   7.522   8.784
 3285TIP3    H134050   7.025   7.475   8.865
 3285TIP3    H234051   7.137   7.506   8.768
 3286TIP3   OH234052   7.530   7.603   8.236
 3286TIP3    H134053   7.475   7.584   8.312
 3286TIP3    H234054   7.480   7.668   8.186
 3287TIP3   OH234055   1.200   1.019   9.548
 3287TIP3    H134056   1.146   1.092   9.520
 3287TIP3    H234057   1.139   0.959   9.592
 3288TIP3   OH234058   1.124   1.106   9.872
 3288TIP3    H134059   1.217   1.098   9.853
 3288TIP3    H234060   1.085   1.026   9.835
 3289TIP3   OH234061   1.579   1.221   9.713
 3289TIP3    H134062   1.515   1.155   9.739
 3289TIP3    H234063   1.580   1.283   9.787
 3290TIP3   OH234064   0.422   1.299   9.871
 3290TIP3    H134065   0.438   1.220   9.818
 3290TIP3    H234066   0.510   1.329   9.894
 3291TIP3   OH234067   0.216   0.751   9.401
 3291TIP3    H134068   0.202   0.753   9.496
 3291TIP3    H234069   0.128   0.754   9.364
 3292TIP3   OH234070   0.248   0.918   9.755
 3292TIP3    H134071   0.276   0.827   9.744
 3292TIP3    H234072   0.327   0.969   9.735
 3293TIP3   OH234073   1.158   1.704   9.769
 3293TIP3    H134074   1.196   1.643   9.706
 3293TIP3    H234075   1.092   1.652   9.815
 3294TIP3   OH234076   0.930   1.280   9.955
 3294TIP3    H134077   0.999   1.231   9.911
 3294TIP3    H234078   0.906   1.226  10.030
 3295TIP3   OH234079   1.104   0.640   9.963
 3295TIP3    H134080   1.141   0.695  10.033
 3295TIP3    H234081   1.083   0.701   9.893
 3296TIP3   OH234082   0.656   0.374   9.674
 3296TIP3    H134083   0.653   0.460   9.633
 3296TIP3    H234084   0.600   0.319   9.619
 3297TIP3   OH234085   1.296   0.381   9.552
 3297TIP3    H134086   1.372   0.380   9.610
 3297TIP3    H234087   1.253   0.465   9.570
 3298TIP3   OH234088   0.318   0.653   9.732
 3298TIP3    H134089   0.398   0.634   9.781
 3298TIP3    H234090   0.317   0.587   9.662
 3299TIP3   OH234091   0.740   0.822   9.586
 3299TIP3    H134092   0.831   0.810   9.612
 3299TIP3    H234093   0.706   0.733   9.575
 3300TIP3   OH234094   1.048   1.232   9.455
 3300TIP3    H134095   1.058   1.229   9.360
 3300TIP3    H234096   1.048   1.326   9.475
 3301TIP3   OH234097   1.479   0.379   9.759
 3301TIP3    H134098   1.401   0.388   9.814
 3301TIP3    H234099   1.536   0.451   9.786
 3302TIP3   OH234100   0.552   0.574   9.852
 3302TIP3    H134101   0.633   0.616   9.880
 3302TIP3    H234102   0.580   0.490   9.815
 3303TIP3   OH234103   0.062   1.313   9.250
 3303TIP3    H134104   0.076   1.333   9.158
 3303TIP3    H234105   0.088   1.392   9.297
 3304TIP3   OH234106   1.617   1.415   9.911
 3304TIP3    H134107   1.582   1.405  10.000
 3304TIP3    H234108   1.620   1.510   9.898
 3305TIP3   OH234109   0.843   0.044   9.760
 3305TIP3    H134110   0.832  -0.051   9.765
 3305TIP3    H234111   0.767   0.078   9.808
 3306TIP3   OH234112   1.308   1.572   9.574
 3306TIP3    H134113   1.355   1.491   9.554
 3306TIP3    H234114   1.376   1.639   9.579
 3307TIP3   OH234115   1.467   1.365   9.506
 3307TIP3    H134116   1.495   1.324   9.424
 3307TIP3    H234117   1.510   1.314   9.574
 3308TIP3   OH234118   1.075   0.947   9.245
 3308TIP3    H134119   1.049   1.037   9.226
 3308TIP3    H234120   1.164   0.941   9.211
 3309TIP3   OH234121   1.136   0.837   8.940
 3309TIP3    H134122   1.188   0.859   9.017
 3309TIP3    H234123   1.185   0.767   8.897
 3310TIP3   OH234124   1.420   1.011   9.373
 3310TIP3    H134125   1.346   1.016   9.433
 3310TIP3    H234126   1.481   0.951   9.415
 3311TIP3   OH234127   0.579   1.013   9.484
 3311TIP3    H134128   0.524   0.980   9.413
 3311TIP3    H234129   0.634   0.938   9.508
 3312TIP3   OH234130   0.685   1.392   9.871
 3312TIP3    H134131   0.696   1.404   9.777
 3312TIP3    H234132   0.765   1.347   9.899
 3313TIP3   OH234133   0.725   0.985   9.808
 3313TIP3    H134134   0.720   0.927   9.733
 3313TIP3    H234135   0.815   0.979   9.838
 3314TIP3   OH234136   1.326   0.908   9.136
 3314TIP3    H134137   1.370   0.952   9.209
 3314TIP3    H234138   1.375   0.935   9.059
 3315TIP3   OH234139   1.057   1.510   9.478
 3315TIP3    H134140   1.144   1.527   9.514
 3315TIP3    H234141   1.035   1.590   9.430
 3316TIP3   OH234142   1.603   0.097   9.058
 3316TIP3    H134143   1.568   0.123   9.143
 3316TIP3    H234144   1.686   0.144   9.051
 3317TIP3   OH234145   0.409   0.917   9.289
 3317TIP3    H134146   0.348   0.980   9.252
 3317TIP3    H234147   0.352   0.847   9.324
 3318TIP3   OH234148   1.807   1.494   9.001
 3318TIP3    H134149   1.817   1.589   8.996
 3318TIP3    H234150   1.897   1.460   9.008
 3319TIP3   OH234151   0.231   1.491   9.936
 3319TIP3    H134152   0.284   1.415   9.916
 3319TIP3    H234153   0.292   1.554   9.976
 3320TIP3   OH234154   1.062   1.769   9.344
 3320TIP3    H134155   1.046   1.773   9.250
 3320TIP3    H234156   1.025   1.851   9.378
 3321TIP3   OH234157   0.389   1.658   9.456
 3321TIP3    H134158   0.393   1.601   9.532
 3321TIP3    H234159   0.322   1.619   9.400
 3322TIP3   OH234160   1.347   1.765   9.027
 3322TIP3    H134161   1.395   1.690   8.993
 3322TIP3    H234162   1.360   1.761   9.121
 3323TIP3   OH234163   1.335   1.750   9.305
 3323TIP3    H134164   1.242   1.748   9.326
 3323TIP3    H234165   1.376   1.696   9.372
 3324TIP3   OH234166   0.603   0.157   9.843
 3324TIP3    H134167   0.510   0.150   9.820
 3324TIP3    H234168   0.629   0.243   9.809
 3325TIP3   OH234169   1.447   0.967   8.901
 3325TIP3    H134170   1.420   0.979   8.810
 3325TIP3    H234171   1.541   0.981   8.900
 3326TIP3   OH234172   0.951   0.376   9.000
 3326TIP3    H134173   0.904   0.355   9.081
 3326TIP3    H234174   0.933   0.302   8.942
 3327TIP3   OH234175   0.597   0.594   9.526
 3327TIP3    H134176   0.503   0.575   9.534
 3327TIP3    H234177   0.614   0.590   9.432
 3328TIP3   OH234178   1.098   0.694   9.352
 3328TIP3    H134179   1.074   0.783   9.326
 3328TIP3    H234180   1.177   0.675   9.301
 3329TIP3   OH234181   1.201   0.638   9.602
 3329TIP3    H134182   1.170   0.658   9.514
 3329TIP3    H234183   1.145   0.690   9.660
 3330TIP3   OH234184   0.632   0.390   8.851
 3330TIP3    H134185   0.609   0.388   8.943
 3330TIP3    H234186   0.551   0.411   8.805
 3331TIP3   OH234187   0.118   0.370   9.655
 3331TIP3    H134188   0.131   0.369   9.750
 3331TIP3    H234189   0.203   0.396   9.620
 3332TIP3   OH234190   0.265   0.519   9.262
 3332TIP3    H134191   0.246   0.535   9.170
 3332TIP3    H234192   0.254   0.604   9.304
 3333TIP3   OH234193   0.920   0.332   9.586
 3333TIP3    H134194   0.835   0.346   9.627
 3333TIP3    H234195   0.979   0.313   9.660
 3334TIP3   OH234196   0.351   0.461   9.524
 3334TIP3    H134197   0.320   0.476   9.435
 3334TIP3    H234198   0.400   0.379   9.519
 3335TIP3   OH234199   0.648   0.568   9.262
 3335TIP3    H134200   0.742   0.562   9.282
 3335TIP3    H234201   0.645   0.619   9.181
 3336TIP3   OH234202   1.240   0.411   9.886
 3336TIP3    H134203   1.192   0.488   9.916
 3336TIP3    H234204   1.172   0.347   9.864
 3337TIP3   OH234205   0.642   0.698   9.023
 3337TIP3    H134206   0.577   0.694   8.954
 3337TIP3    H234207   0.720   0.734   8.981
 3338TIP3   OH234208   0.817   0.642   9.893
 3338TIP3    H134209   0.859   0.711   9.841
 3338TIP3    H234210   0.889   0.602   9.942
 3339TIP3   OH234211   0.495   0.224   9.509
 3339TIP3    H134212   0.417   0.168   9.507
 3339TIP3    H234213   0.567   0.163   9.491
 3340TIP3   OH234214   0.766   1.190   9.203
 3340TIP3    H134215   0.721   1.108   9.180
 3340TIP3    H234216   0.758   1.197   9.298
 3341TIP3   OH234217   1.208   0.414   9.109
 3341TIP3    H134218   1.117   0.431   9.083
 3341TIP3    H234219   1.240   0.499   9.138
 3342TIP3   OH234220   1.330   0.640   9.213
 3342TIP3    H134221   1.414   0.615   9.251
 3342TIP3    H234222   1.344   0.728   9.179
 3343TIP3   OH234223   0.478   1.072   9.731
 3343TIP3    H134224   0.501   1.067   9.638
 3343TIP3    H234225   0.557   1.043   9.777
 3344TIP3   OH234226   1.034   1.221   9.170
 3344TIP3    H134227   1.043   1.316   9.164
 3344TIP3    H234228   0.940   1.205   9.169
 3345TIP3   OH234229   1.785   0.664   9.146
 3345TIP3    H134230   1.732   0.643   9.069
 3345TIP3    H234231   1.805   0.757   9.137
 3346TIP3   OH234232   1.660   1.507   9.238
 3346TIP3    H134233   1.619   1.422   9.256
 3346TIP3    H234234   1.706   1.494   9.155
 3347TIP3   OH234235   1.379   1.030   9.756
 3347TIP3    H134236   1.320   1.036   9.681
 3347TIP3    H234237   1.407   0.938   9.758
 3348TIP3   OH234238   0.690   1.444   9.604
 3348TIP3    H134239   0.707   1.521   9.549
 3348TIP3    H234240   0.721   1.370   9.553
 3349TIP3   OH234241   0.119   0.885   9.044
 3349TIP3    H134242   0.157   0.956   9.096
 3349TIP3    H234243   0.024   0.896   9.055
 3350TIP3   OH234244   0.767   1.217   9.476
 3350TIP3    H134245   0.857   1.192   9.494
 3350TIP3    H234246   0.715   1.139   9.496
 3351TIP3   OH234247   0.667   1.675   9.454
 3351TIP3    H134248   0.572   1.683   9.447
 3351TIP3    H234249   0.695   1.760   9.489
 3352TIP3   OH234250   1.470   1.305   9.020
 3352TIP3    H134251   1.490   1.278   9.109
 3352TIP3    H234252   1.383   1.268   9.002
 3353TIP3   OH234253   1.827   1.768   9.013
 3353TIP3    H134254   1.844   1.831   8.943
 3353TIP3    H234255   1.761   1.811   9.068
 3354TIP3   OH234256   1.555   1.231   9.274
 3354TIP3    H134257   1.502   1.158   9.307
 3354TIP3    H234258   1.645   1.197   9.276
 3355TIP3   OH234259   0.759   1.446   8.871
 3355TIP3    H134260   0.773   1.359   8.832
 3355TIP3    H234261   0.717   1.428   8.955
 3356TIP3   OH234262   0.643   1.417   9.117
 3356TIP3    H134263   0.689   1.341   9.153
 3356TIP3    H234264   0.688   1.492   9.157
 3357TIP3   OH234265   0.236   1.103   9.181
 3357TIP3    H134266   0.173   1.160   9.225
 3357TIP3    H234267   0.297   1.162   9.138
 3358TIP3   OH234268   1.228   0.244   9.324
 3358TIP3    H134269   1.225   0.300   9.247
 3358TIP3    H234270   1.251   0.303   9.396
 3359TIP3   OH234271   1.020   1.490   9.151
 3359TIP3    H134272   0.936   1.526   9.181
 3359TIP3    H234273   1.072   1.567   9.129
 3360TIP3   OH234274   0.898   0.508   9.371
 3360TIP3    H134275   0.965   0.577   9.366
 3360TIP3    H234276   0.915   0.464   9.454
 3361TIP3   OH234277   0.986   0.137   9.398
 3361TIP3    H134278   0.971   0.199   9.469
 3361TIP3    H234279   1.074   0.156   9.367
 3362TIP3   OH234280   0.789   1.626   9.217
 3362TIP3    H134281   0.791   1.714   9.179
 3362TIP3    H234282   0.754   1.639   9.305
 3363TIP3   OH234283   0.579   0.337   9.115
 3363TIP3    H134284   0.560   0.414   9.169
 3363TIP3    H234285   0.660   0.301   9.151
 3364TIP3   OH234286   1.435   0.757   9.709
 3364TIP3    H134287   1.358   0.707   9.683
 3364TIP3    H234288   1.485   0.697   9.764
 3365TIP3   OH234289   0.404   1.292   9.061
 3365TIP3    H134290   0.470   1.353   9.094
 3365TIP3    H234291   0.452   1.236   9.000
 3366TIP3   OH234292   0.183   0.616   9.016
 3366TIP3    H134293   0.159   0.706   9.038
 3366TIP3    H234294   0.151   0.605   8.926
 3367TIP3   OH234295   1.656   1.687   9.893
 3367TIP3    H134296   1.614   1.764   9.854
 3367TIP3    H234297   1.743   1.718   9.920
 3368TIP3   OH234298   0.345   0.110   9.768
 3368TIP3    H134299   0.297   0.118   9.685
 3368TIP3    H234300   0.312   0.029   9.807
 3369TIP3   OH234301   0.151   1.575   9.327
 3369TIP3    H134302   0.114   1.640   9.386
 3369TIP3    H234303   0.148   1.616   9.240
 3370TIP3   OH234304   0.980   1.610   8.861
 3370TIP3    H134305   0.906   1.550   8.873
 3370TIP3    H234306   1.055   1.553   8.844
 3371TIP3   OH234307   1.464   1.553   8.902
 3371TIP3    H134308   1.483   1.471   8.948
 3371TIP3    H234309   1.534   1.560   8.836
 3372TIP3   OH234310   0.583   1.142   8.912
 3372TIP3    H134311   0.598   1.078   8.982
 3372TIP3    H234312   0.668   1.153   8.870
 3373TIP3   OH234313   1.213   1.226   8.955
 3373TIP3    H134314   1.151   1.213   9.027
 3373TIP3    H234315   1.187   1.162   8.888
 3374TIP3   OH234316   0.625   0.967   9.125
 3374TIP3    H134317   0.551   0.942   9.180
 3374TIP3    H234318   0.661   0.884   9.094
 3375TIP3   OH234319   0.854   0.841   8.934
 3375TIP3    H134320   0.847   0.889   8.852
 3375TIP3    H234321   0.947   0.839   8.953
 3376TIP3   OH234322   1.713   1.025   8.860
 3376TIP3    H134323   1.708   0.999   8.768
 3376TIP3    H234324   1.717   1.120   8.857
 3377TIP3   OH234325   0.829   1.879   9.110
 3377TIP3    H134326   0.918   1.851   9.088
 3377TIP3    H234327   0.799   1.926   9.033
 3378TIP3   OH234328   0.146   1.358   8.986
 3378TIP3    H134329   0.235   1.366   9.019
 3378TIP3    H234330   0.150   1.289   8.920
 3379TIP3   OH234331   0.073   1.772   9.511
 3379TIP3    H134332  -0.015   1.810   9.521
 3379TIP3    H234333   0.095   1.739   9.598
 3380TIP3   OH234334   0.126   1.697   9.774
 3380TIP3    H134335   0.156   1.614   9.812
 3380TIP3    H234336   0.190   1.762   9.803
 3381TIP3   OH234337   1.806   1.124   9.288
 3381TIP3    H134338   1.879   1.187   9.294
 3381TIP3    H234339   1.826   1.058   9.354
 3382TIP3   OH234340   1.846   0.920   9.470
 3382TIP3    H134341   1.757   0.895   9.497
 3382TIP3    H234342   1.889   0.946   9.552
 3383TIP3   OH234343   1.866   1.309   9.861
 3383TIP3    H134344   1.849   1.239   9.798
 3383TIP3    H234345   1.781   1.352   9.874
 3384TIP3   OH234346   1.825   0.930   9.092
 3384TIP3    H134347   1.786   0.958   9.010
 3384TIP3    H234348   1.807   1.002   9.153
 3385TIP3   OH234349   1.633   0.621   8.924
 3385TIP3    H134350   1.600   0.664   8.845
 3385TIP3    H234351   1.624   0.527   8.906
 3386TIP3   OH234352   1.584   0.816   9.485
 3386TIP3    H134353   1.583   0.732   9.438
 3386TIP3    H234354   1.538   0.797   9.567
 3387TIP3   OH234355   0.202   1.125   9.938
 3387TIP3    H134356   0.223   1.049   9.884
 3387TIP3    H234357   0.281   1.179   9.935
 3388TIP3   OH234358   1.618   0.357   8.859
 3388TIP3    H134359   1.681   0.313   8.917
 3388TIP3    H234360   1.546   0.294   8.850
 3389TIP3   OH234361   1.585   0.580   9.322
 3389TIP3    H134362   1.610   0.491   9.345
 3389TIP3    H234363   1.652   0.609   9.260
 3390TIP3   OH234364   1.614   0.601   9.855
 3390TIP3    H134365   1.697   0.638   9.826
 3390TIP3    H234366   1.623   0.595   9.950
 3391TIP3   OH234367   1.678   0.310   9.359
 3391TIP3    H134368   1.713   0.281   9.443
 3391TIP3    H234369   1.607   0.249   9.340
 3392TIP3   OH234370   0.158   0.401   9.924
 3392TIP3    H134371   0.219   0.382   9.995
 3392TIP3    H234372   0.128   0.490   9.941
 3393TIP3   OH234373   0.110   0.676   9.918
 3393TIP3    H134374   0.173   0.663   9.847
 3393TIP3    H234375   0.140   0.756   9.962
 3394TIP3   OH234376   1.826   0.246   9.001
 3394TIP3    H134377   1.885   0.202   8.940
 3394TIP3    H234378   1.879   0.315   9.040
 3395TIP3   OH234379   0.146   0.275   9.311
 3395TIP3    H134380   0.054   0.293   9.292
 3395TIP3    H234381   0.192   0.356   9.291
 3396TIP3   OH234382   1.498   1.767   9.554
 3396TIP3    H134383   1.571   1.759   9.492
 3396TIP3    H234384   1.537   1.807   9.632
 3397TIP3   OH234385   0.442   1.721   9.852
 3397TIP3    H134386   0.532   1.723   9.882
 3397TIP3    H234387   0.439   1.651   9.787
 3398TIP3   OH234388   0.436   1.507   9.681
 3398TIP3    H134389   0.409   1.429   9.730
 3398TIP3    H234390   0.524   1.485   9.649
 3399TIP3   OH234391   0.741   1.666   9.902
 3399TIP3    H134392   0.703   1.579   9.894
 3399TIP3    H234393   0.834   1.650   9.919
 3400TIP3   OH234394   1.066   0.212   9.788
 3400TIP3    H134395   0.995   0.148   9.792
 3400TIP3    H234396   1.140   0.164   9.752
 3401TIP3   OH234397   1.563   0.127   9.689
 3401TIP3    H134398   1.648   0.139   9.648
 3401TIP3    H234399   1.539   0.213   9.724
 3402TIP3   OH234400   1.808   0.195   9.578
 3402TIP3    H134401   1.888   0.143   9.569
 3402TIP3    H234402   1.838   0.283   9.598
 3403TIP3   OH234403   0.245   0.099   9.502
 3403TIP3    H134404   0.207   0.168   9.448
 3403TIP3    H234405   0.189   0.022   9.485
 3404TIP3   OH234406   0.228   0.057   9.161
 3404TIP3    H134407   0.274   0.105   9.092
 3404TIP3    H234408   0.193   0.125   9.218
 3405TIP3   OH234409   0.731   0.072   9.505
 3405TIP3    H134410   0.806   0.095   9.451
 3405TIP3    H234411   0.765   0.073   9.595
 3406TIP3   OH234412   1.284   0.112   9.644
 3406TIP3    H134413   1.275   0.197   9.600
 3406TIP3    H234414   1.378   0.103   9.659
 3407TIP3   OH234415   1.478   0.128   9.301
 3407TIP3    H134416   1.391   0.167   9.309
 3407TIP3    H234417   1.464   0.035   9.320
 3408TIP3   OH234418   0.125   1.721   9.092
 3408TIP3    H134419   0.035   1.723   9.058
 3408TIP3    H234420   0.139   1.808   9.129
 3409TIP3   OH234421   0.384   0.193   8.983
 3409TIP3    H134422   0.424   0.153   8.906
 3409TIP3    H234423   0.458   0.230   9.032
 3410TIP3   OH234424   0.826   0.288   9.227
 3410TIP3    H134425   0.876   0.220   9.272
 3410TIP3    H234426   0.841   0.367   9.280
 3411TIP3   OH234427   1.075   1.766   9.062
 3411TIP3    H134428   1.168   1.779   9.044
 3411TIP3    H234429   1.041   1.720   8.986
 3412TIP3   OH234430   1.699   1.749   9.363
 3412TIP3    H134431   1.689   1.661   9.328
 3412TIP3    H234432   1.688   1.806   9.287
 3413TIP3   OH234433   0.277   1.721   8.851
 3413TIP3    H134434   0.243   1.709   8.940
 3413TIP3    H234435   0.358   1.671   8.849
 3414TIP3   OH234436   3.077   1.014   9.511
 3414TIP3    H134437   3.048   1.105   9.512
 3414TIP3    H234438   3.027   0.973   9.441
 3415TIP3   OH234439   3.031   0.985   9.783
 3415TIP3    H134440   3.020   0.894   9.810
 3415TIP3    H234441   3.051   0.979   9.689
 3416TIP3   OH234442   3.513   1.204   9.736
 3416TIP3    H134443   3.436   1.154   9.765
 3416TIP3    H234444   3.513   1.281   9.792
 3417TIP3   OH234445   2.346   1.354   9.821
 3417TIP3    H134446   2.312   1.275   9.779
 3417TIP3    H234447   2.439   1.336   9.833
 3418TIP3   OH234448   1.918   0.658   9.402
 3418TIP3    H134449   1.899   0.749   9.424
 3418TIP3    H234450   1.874   0.644   9.318
 3419TIP3   OH234451   2.027   0.987   9.679
 3419TIP3    H134452   2.063   0.898   9.685
 3419TIP3    H234453   2.104   1.044   9.675
 3420TIP3   OH234454   3.032   1.648   9.757
 3420TIP3    H134455   3.113   1.602   9.737
 3420TIP3    H234456   2.967   1.607   9.700
 3421TIP3   OH234457   2.844   1.196   9.729
 3421TIP3    H134458   2.903   1.129   9.765
 3421TIP3    H234459   2.879   1.213   9.642
 3422TIP3   OH234460   3.018   0.704   9.829
 3422TIP3    H134461   3.050   0.633   9.885
 3422TIP3    H234462   3.056   0.685   9.743
 3423TIP3   OH234463   2.482   0.439   9.618
 3423TIP3    H134464   2.482   0.521   9.570
 3423TIP3    H234465   2.421   0.383   9.570
 3424TIP3   OH234466   3.289   0.434   9.509
 3424TIP3    H134467   3.322   0.406   9.594
 3424TIP3    H234468   3.366   0.463   9.461
 3425TIP3   OH234469   2.122   0.731   9.716
 3425TIP3    H134470   2.186   0.691   9.774
 3425TIP3    H234471   2.133   0.687   9.632
 3426TIP3   OH234472   2.526   0.812   9.702
 3426TIP3    H134473   2.613   0.775   9.718
 3426TIP3    H234474   2.493   0.763   9.627
 3427TIP3   OH234475   2.955   1.258   9.474
 3427TIP3    H134476   2.961   1.251   9.379
 3427TIP3    H234477   2.951   1.353   9.490
 3428TIP3   OH234478   3.349   0.394   9.775
 3428TIP3    H134479   3.267   0.410   9.821
 3428TIP3    H234480   3.410   0.459   9.811
 3429TIP3   OH234481   2.351   0.585   9.815
 3429TIP3    H134482   2.408   0.660   9.829
 3429TIP3    H234483   2.400   0.528   9.755
 3430TIP3   OH234484   2.016   1.303   9.282
 3430TIP3    H134485   2.017   1.334   9.191
 3430TIP3    H234486   2.038   1.381   9.333
 3431TIP3   OH234487   3.540   1.436   9.888
 3431TIP3    H134488   3.502   1.443   9.976
 3431TIP3    H234489   3.540   1.525   9.854
 3432TIP3   OH234490   2.734   0.095   9.823
 3432TIP3    H134491   2.737   0.006   9.859
 3432TIP3    H234492   2.644   0.123   9.834
 3433TIP3   OH234493   3.231   1.573   9.560
 3433TIP3    H134494   3.287   1.495   9.553
 3433TIP3    H234495   3.292   1.645   9.575
 3434TIP3   OH234496   3.393   1.357   9.528
 3434TIP3    H134497   3.412   1.318   9.442
 3434TIP3    H234498   3.440   1.301   9.590
 3435TIP3   OH234499   2.938   0.939   9.286
 3435TIP3    H134500   2.857   0.988   9.271
 3435TIP3    H234501   2.992   0.957   9.209
 3436TIP3   OH234502   2.990   0.823   8.989
 3436TIP3    H134503   3.065   0.852   9.041
 3436TIP3    H234504   3.028   0.763   8.924
 3437TIP3   OH234505   3.319   1.007   9.370
 3437TIP3    H134506   3.245   1.013   9.431
 3437TIP3    H234507   3.379   0.944   9.411
 3438TIP3   OH234508   2.457   1.024   9.518
 3438TIP3    H134509   2.438   0.979   9.436
 3438TIP3    H234510   2.498   0.958   9.573
 3439TIP3   OH234511   2.633   1.365   9.783
 3439TIP3    H134512   2.622   1.390   9.692
 3439TIP3    H234513   2.705   1.301   9.782
 3440TIP3   OH234514   2.438   0.994   9.885
 3440TIP3    H134515   2.472   0.928   9.824
 3440TIP3    H234516   2.510   1.009   9.946
 3441TIP3   OH234517   3.212   0.904   9.135
 3441TIP3    H134518   3.250   0.951   9.209
 3441TIP3    H234519   3.267   0.927   9.061
 3442TIP3   OH234520   2.963   1.531   9.510
 3442TIP3    H134521   3.058   1.540   9.521
 3442TIP3    H234522   2.940   1.602   9.450
 3443TIP3   OH234523   3.503   0.080   9.041
 3443TIP3    H134524   3.429   0.141   9.046
 3443TIP3    H234525   3.580   0.137   9.037
 3444TIP3   OH234526   2.379   0.914   9.273
 3444TIP3    H134527   2.311   0.979   9.255
 3444TIP3    H234528   2.336   0.829   9.256
 3445TIP3   OH234529   3.686   1.499   9.012
 3445TIP3    H134530   3.699   1.593   8.998
 3445TIP3    H234531   3.774   1.463   9.013
 3446TIP3   OH234532   2.088   1.476   9.874
 3446TIP3    H134533   2.167   1.422   9.869
 3446TIP3    H234534   2.016   1.413   9.880
 3447TIP3   OH234535   2.947   1.763   9.357
 3447TIP3    H134536   2.933   1.775   9.263
 3447TIP3    H234537   2.921   1.847   9.396
 3448TIP3   OH234538   2.277   1.704   9.507
 3448TIP3    H134539   2.302   1.667   9.592
 3448TIP3    H234540   2.219   1.639   9.469
 3449TIP3   OH234541   3.224   1.762   9.034
 3449TIP3    H134542   3.273   1.688   8.998
 3449TIP3    H234543   3.239   1.755   9.129
 3450TIP3   OH234544   3.219   1.732   9.309
 3450TIP3    H134545   3.128   1.741   9.336
 3450TIP3    H234546   3.256   1.667   9.369
 3451TIP3   OH234547   2.469   0.186   9.854
 3451TIP3    H134548   2.386   0.193   9.806
 3451TIP3    H234549   2.474   0.268   9.904
 3452TIP3   OH234550   3.366   0.957   8.917
 3452TIP3    H134551   3.330   0.973   8.830
 3452TIP3    H234552   3.460   0.972   8.907
 3453TIP3   OH234553   2.863   0.458   9.017
 3453TIP3    H134554   2.789   0.412   9.055
 3453TIP3    H234555   2.836   0.480   8.929
 3454TIP3   OH234556   2.432   0.676   9.489
 3454TIP3    H134557   2.337   0.660   9.486
 3454TIP3    H234558   2.460   0.669   9.397
 3455TIP3   OH234559   2.986   0.680   9.359
 3455TIP3    H134560   2.962   0.770   9.334
 3455TIP3    H234561   3.063   0.660   9.306
 3456TIP3   OH234562   3.129   0.639   9.592
 3456TIP3    H134563   3.072   0.662   9.518
 3456TIP3    H234564   3.178   0.563   9.562
 3457TIP3   OH234565   2.579   0.390   8.894
 3457TIP3    H134566   2.554   0.475   8.931
 3457TIP3    H234567   2.514   0.372   8.827
 3458TIP3   OH234568   1.905   0.444   9.604
 3458TIP3    H134569   1.975   0.455   9.668
 3458TIP3    H234570   1.907   0.525   9.552
 3459TIP3   OH234571   1.972   0.456   9.113
 3459TIP3    H134572   2.053   0.500   9.086
 3459TIP3    H234573   1.909   0.527   9.124
 3460TIP3   OH234574   2.762   0.432   9.605
 3460TIP3    H134575   2.670   0.415   9.626
 3460TIP3    H234576   2.811   0.387   9.674
 3461TIP3   OH234577   2.173   0.596   9.481
 3461TIP3    H134578   2.088   0.607   9.439
 3461TIP3    H234579   2.195   0.504   9.467
 3462TIP3   OH234580   2.503   0.622   9.230
 3462TIP3    H134581   2.592   0.606   9.259
 3462TIP3    H234582   2.510   0.637   9.136
 3463TIP3   OH234583   3.108   0.447   9.915
 3463TIP3    H134584   3.108   0.407  10.002
 3463TIP3    H234585   3.040   0.400   9.867
 3464TIP3   OH234586   2.516   0.653   8.957
 3464TIP3    H134587   2.449   0.685   8.896
 3464TIP3    H234588   2.590   0.713   8.945
 3465TIP3   OH234589   2.757   0.679   9.740
 3465TIP3    H134590   2.774   0.601   9.688
 3465TIP3    H234591   2.842   0.698   9.781
 3466TIP3   OH234592   2.289   0.344   9.440
 3466TIP3    H134593   2.232   0.268   9.451
 3466TIP3    H234594   2.322   0.336   9.350
 3467TIP3   OH234595   2.722   1.105   9.226
 3467TIP3    H134596   2.656   1.083   9.160
 3467TIP3    H234597   2.674   1.153   9.293
 3468TIP3   OH234598   3.104   0.408   9.140
 3468TIP3    H134599   3.022   0.427   9.095
 3468TIP3    H234600   3.140   0.494   9.160
 3469TIP3   OH234601   3.224   0.640   9.226
 3469TIP3    H134602   3.312   0.619   9.259
 3469TIP3    H234603   3.233   0.728   9.189
 3470TIP3   OH234604   2.274   1.113   9.704
 3470TIP3    H134605   2.327   1.094   9.627
 3470TIP3    H234606   2.319   1.069   9.777
 3471TIP3   OH234607   2.957   1.235   9.182
 3471TIP3    H134608   2.936   1.328   9.178
 3471TIP3    H234609   2.871   1.192   9.189
 3472TIP3   OH234610   3.662   0.668   9.142
 3472TIP3    H134611   3.608   0.648   9.066
 3472TIP3    H234612   3.693   0.757   9.128
 3473TIP3   OH234613   3.530   1.516   9.242
 3473TIP3    H134614   3.495   1.429   9.260
 3473TIP3    H234615   3.579   1.507   9.161
 3474TIP3   OH234616   3.308   1.039   9.810
 3474TIP3    H134617   3.213   1.040   9.818
 3474TIP3    H234618   3.329   0.949   9.783
 3475TIP3   OH234619   2.549   1.484   9.548
 3475TIP3    H134620   2.576   1.556   9.491
 3475TIP3    H234621   2.482   1.522   9.604
 3476TIP3   OH234622   2.094   0.888   9.080
 3476TIP3    H134623   2.130   0.966   9.122
 3476TIP3    H234624   1.999   0.897   9.089
 3477TIP3   OH234625   2.568   1.250   9.401
 3477TIP3    H134626   2.565   1.326   9.460
 3477TIP3    H234627   2.527   1.179   9.451
 3478TIP3   OH234628   2.534   1.733   9.417
 3478TIP3    H134629   2.440   1.731   9.435
 3478TIP3    H234630   2.563   1.819   9.448
 3479TIP3   OH234631   3.353   1.301   9.026
 3479TIP3    H134632   3.371   1.274   9.116
 3479TIP3    H234633   3.270   1.258   9.004
 3480TIP3   OH234634   3.727   1.771   9.002
 3480TIP3    H134635   3.751   1.831   8.932
 3480TIP3    H234636   3.665   1.819   9.056
 3481TIP3   OH234637   3.448   1.233   9.280
 3481TIP3    H134638   3.397   1.157   9.309
 3481TIP3    H234639   3.535   1.198   9.264
 3482TIP3   OH234640   2.683   1.418   8.922
 3482TIP3    H134641   2.692   1.342   8.865
 3482TIP3    H234642   2.644   1.383   9.002
 3483TIP3   OH234643   2.547   1.378   9.158
 3483TIP3    H134644   2.555   1.334   9.243
 3483TIP3    H234645   2.576   1.468   9.175
 3484TIP3   OH234646   2.198   1.109   9.204
 3484TIP3    H134647   2.136   1.165   9.251
 3484TIP3    H234648   2.245   1.170   9.146
 3485TIP3   OH234649   3.110   0.273   9.378
 3485TIP3    H134650   3.103   0.313   9.291
 3485TIP3    H234651   3.167   0.333   9.427
 3486TIP3   OH234652   2.886   1.496   9.186
 3486TIP3    H134653   2.798   1.534   9.190
 3486TIP3    H234654   2.943   1.570   9.165
 3487TIP3   OH234655   2.742   0.553   9.354
 3487TIP3    H134656   2.825   0.599   9.343
 3487TIP3    H234657   2.745   0.521   9.444
 3488TIP3   OH234658   2.839   0.236   9.414
 3488TIP3    H134659   2.820   0.310   9.472
 3488TIP3    H234660   2.933   0.242   9.398
 3489TIP3   OH234661   2.644   1.633   9.190
 3489TIP3    H134662   2.644   1.707   9.130
 3489TIP3    H234663   2.607   1.668   9.271
 3490TIP3   OH234664   2.401   0.362   9.184
 3490TIP3    H134665   2.408   0.457   9.194
 3490TIP3    H234666   2.492   0.332   9.179
 3491TIP3   OH234667   3.339   0.774   9.721
 3491TIP3    H134668   3.263   0.725   9.688
 3491TIP3    H234669   3.381   0.713   9.782
 3492TIP3   OH234670   2.314   1.301   9.039
 3492TIP3    H134671   2.391   1.338   9.083
 3492TIP3    H234672   2.349   1.259   8.960
 3493TIP3   OH234673   2.174   0.630   9.039
 3493TIP3    H134674   2.145   0.718   9.061
 3493TIP3    H234675   2.229   0.641   8.961
 3494TIP3   OH234676   3.564   1.700   9.813
 3494TIP3    H134677   3.535   1.791   9.810
 3494TIP3    H234678   3.649   1.700   9.771
 3495TIP3   OH234679   2.217   0.168   9.738
 3495TIP3    H134680   2.185   0.170   9.648
 3495TIP3    H234681   2.196   0.080   9.769
 3496TIP3   OH234682   2.072   1.552   9.396
 3496TIP3    H134683   2.014   1.589   9.462
 3496TIP3    H234684   2.059   1.607   9.318
 3497TIP3   OH234685   2.883   1.599   8.884
 3497TIP3    H134686   2.813   1.537   8.901
 3497TIP3    H234687   2.959   1.545   8.863
 3498TIP3   OH234688   3.351   1.551   8.918
 3498TIP3    H134689   3.367   1.469   8.964
 3498TIP3    H234690   3.420   1.556   8.853
 3499TIP3   OH234691   2.441   1.157   8.841
 3499TIP3    H134692   2.460   1.096   8.912
 3499TIP3    H234693   2.526   1.178   8.804
 3500TIP3   OH234694   3.106   1.210   8.947
 3500TIP3    H134695   3.048   1.201   9.023
 3500TIP3    H234696   3.069   1.150   8.881
 3501TIP3   OH234697   2.527   1.002   9.054
 3501TIP3    H134698   2.484   0.959   9.128
 3501TIP3    H234699   2.590   0.937   9.022
 3502TIP3   OH234700   2.717   0.838   8.941
 3502TIP3    H134701   2.724   0.877   8.854
 3502TIP3    H234702   2.808   0.828   8.970
 3503TIP3   OH234703   3.627   1.032   8.831
 3503TIP3    H134704   3.614   1.012   8.738
 3503TIP3    H234705   3.608   1.125   8.838
 3504TIP3   OH234706   2.700   1.881   9.066
 3504TIP3    H134707   2.788   1.848   9.081
 3504TIP3    H234708   2.707   1.934   8.987
 3505TIP3   OH234709   2.050   1.365   9.013
 3505TIP3    H134710   2.145   1.363   9.023
 3505TIP3    H234711   2.032   1.302   8.944
 3506TIP3   OH234712   1.890   1.876   9.519
 3506TIP3    H134713   1.828   1.841   9.455
 3506TIP3    H234714   1.919   1.800   9.569
 3507TIP3   OH234715   1.979   1.651   9.647
 3507TIP3    H134716   1.956   1.568   9.688
 3507TIP3    H234717   2.042   1.691   9.708
 3508TIP3   OH234718   3.696   1.118   9.252
 3508TIP3    H134719   3.766   1.183   9.266
 3508TIP3    H234720   3.711   1.052   9.319
 3509TIP3   OH234721   3.728   0.917   9.434
 3509TIP3    H134722   3.644   0.895   9.473
 3509TIP3    H234723   3.783   0.943   9.509
 3510TIP3   OH234724   3.815   1.411   9.825
 3510TIP3    H134725   3.842   1.320   9.809
 3510TIP3    H234726   3.722   1.405   9.847
 3511TIP3   OH234727   3.735   0.923   9.060
 3511TIP3    H134728   3.694   0.951   8.978
 3511TIP3    H234729   3.715   0.993   9.122
 3512TIP3   OH234730   3.520   0.619   8.915
 3512TIP3    H134731   3.494   0.660   8.832
 3512TIP3    H234732   3.515   0.525   8.898
 3513TIP3   OH234733   3.477   0.811   9.487
 3513TIP3    H134734   3.478   0.722   9.451
 3513TIP3    H234735   3.438   0.801   9.574
 3514TIP3   OH234736   1.919   0.979   9.930
 3514TIP3    H134737   1.946   0.994   9.840
 3514TIP3    H234738   1.997   0.996   9.982
 3515TIP3   OH234739   3.508   0.353   8.854
 3515TIP3    H134740   3.579   0.314   8.905
 3515TIP3    H234741   3.428   0.323   8.898
 3516TIP3   OH234742   3.483   0.564   9.333
 3516TIP3    H134743   3.516   0.474   9.338
 3516TIP3    H234744   3.541   0.607   9.269
 3517TIP3   OH234745   3.492   0.604   9.882
 3517TIP3    H134746   3.573   0.639   9.846
 3517TIP3    H234747   3.502   0.610   9.977
 3518TIP3   OH234748   3.554   0.298   9.363
 3518TIP3    H134749   3.583   0.263   9.447
 3518TIP3    H234750   3.484   0.239   9.335
 3519TIP3   OH234751   2.120   0.428   9.779
 3519TIP3    H134752   2.150   0.337   9.777
 3519TIP3    H234753   2.197   0.478   9.807
 3520TIP3   OH234754   1.854   0.729   9.821
 3520TIP3    H134755   1.941   0.713   9.787
 3520TIP3    H234756   1.861   0.812   9.868
 3521TIP3   OH234757   3.715   0.251   8.997
 3521TIP3    H134758   3.778   0.203   8.944
 3521TIP3    H234759   3.768   0.314   9.046
 3522TIP3   OH234760   1.956   0.238   9.282
 3522TIP3    H134761   1.864   0.251   9.306
 3522TIP3    H234762   1.979   0.317   9.231
 3523TIP3   OH234763   3.376   1.806   9.564
 3523TIP3    H134764   3.444   1.797   9.498
 3523TIP3    H234765   3.416   1.858   9.634
 3524TIP3   OH234766   2.160   1.740   9.841
 3524TIP3    H134767   2.125   1.661   9.882
 3524TIP3    H234768   2.249   1.715   9.813
 3525TIP3   OH234769   2.388   1.612   9.746
 3525TIP3    H134770   2.364   1.525   9.779
 3525TIP3    H234771   2.469   1.634   9.793
 3526TIP3   OH234772   2.639   1.629   9.870
 3526TIP3    H134773   2.648   1.538   9.842
 3526TIP3    H234774   2.691   1.635   9.950
 3527TIP3   OH234775   2.917   0.293   9.787
 3527TIP3    H134776   2.855   0.227   9.817
 3527TIP3    H234777   2.980   0.245   9.733
 3528TIP3   OH234778   3.458   0.134   9.749
 3528TIP3    H134779   3.534   0.153   9.694
 3528TIP3    H234780   3.415   0.218   9.762
 3529TIP3   OH234781   3.675   0.197   9.591
 3529TIP3    H134782   3.750   0.138   9.584
 3529TIP3    H234783   3.714   0.284   9.598
 3530TIP3   OH234784   2.115   0.132   9.482
 3530TIP3    H134785   2.059   0.156   9.408
 3530TIP3    H234786   2.138   0.041   9.466
 3531TIP3   OH234787   2.093   0.059   9.104
 3531TIP3    H134788   2.142   0.121   9.050
 3531TIP3    H234789   2.041   0.114   9.163
 3532TIP3   OH234790   2.785   0.004   9.550
 3532TIP3    H134791   2.801   0.078   9.492
 3532TIP3    H234792   2.798   0.039   9.638
 3533TIP3   OH234793   3.070   0.135   9.632
 3533TIP3    H134794   3.101   0.155   9.544
 3533TIP3    H234795   3.097   0.045   9.648
 3534TIP3   OH234796   3.343   0.132   9.318
 3534TIP3    H134797   3.257   0.172   9.332
 3534TIP3    H234798   3.325   0.039   9.307
 3535TIP3   OH234799   2.047   1.715   9.176
 3535TIP3    H134800   1.969   1.722   9.120
 3535TIP3    H234801   2.070   1.806   9.195
 3536TIP3   OH234802   2.253   0.260   8.969
 3536TIP3    H134803   2.321   0.216   8.918
 3536TIP3    H234804   2.300   0.296   9.045
 3537TIP3   OH234805   2.679   0.334   9.198
 3537TIP3    H134806   2.724   0.263   9.244
 3537TIP3    H234807   2.701   0.413   9.248
 3538TIP3   OH234808   2.952   1.770   9.081
 3538TIP3    H134809   3.045   1.785   9.064
 3538TIP3    H234810   2.923   1.716   9.007
 3539TIP3   OH234811   3.570   1.763   9.360
 3539TIP3    H134812   3.555   1.675   9.326
 3539TIP3    H234813   3.572   1.819   9.283
 3540TIP3   OH234814   2.215   1.703   8.939
 3540TIP3    H134815   2.177   1.686   9.025
 3540TIP3    H234816   2.294   1.648   8.937
 3541TIP3   OH234817   4.984   1.020   9.517
 3541TIP3    H134818   4.956   1.111   9.521
 3541TIP3    H234819   4.926   0.980   9.452
 3542TIP3   OH234820   4.974   0.988   9.793
 3542TIP3    H134821   4.952   0.898   9.819
 3542TIP3    H234822   4.979   0.985   9.698
 3543TIP3   OH234823   5.373   1.219   9.670
 3543TIP3    H134824   5.334   1.146   9.717
 3543TIP3    H234825   5.384   1.287   9.736
 3544TIP3   OH234826   4.265   1.343   9.873
 3544TIP3    H134827   4.237   1.255   9.848
 3544TIP3    H234828   4.360   1.339   9.872
 3545TIP3   OH234829   3.806   0.654   9.393
 3545TIP3    H134830   3.786   0.746   9.410
 3545TIP3    H234831   3.765   0.635   9.309
 3546TIP3   OH234832   3.944   0.972   9.600
 3546TIP3    H134833   3.958   0.892   9.651
 3546TIP3    H234834   4.026   0.986   9.554
 3547TIP3   OH234835   4.958   1.756   9.653
 3547TIP3    H134836   5.020   1.692   9.617
 3547TIP3    H234837   4.872   1.718   9.634
 3548TIP3   OH234838   4.765   1.202   9.756
 3548TIP3    H134839   4.829   1.137   9.787
 3548TIP3    H234840   4.790   1.219   9.665
 3549TIP3   OH234841   4.931   0.703   9.836
 3549TIP3    H134842   4.950   0.622   9.884
 3549TIP3    H234843   4.960   0.685   9.746
 3550TIP3   OH234844   4.365   0.465   9.653
 3550TIP3    H134845   4.358   0.548   9.606
 3550TIP3    H234846   4.311   0.404   9.603
 3551TIP3   OH234847   5.186   0.452   9.502
 3551TIP3    H134848   5.217   0.421   9.587
 3551TIP3    H234849   5.265   0.482   9.456
 3552TIP3   OH234850   3.990   0.736   9.729
 3552TIP3    H134851   4.049   0.699   9.795
 3552TIP3    H234852   4.006   0.683   9.650
 3553TIP3   OH234853   4.463   0.874   9.654
 3553TIP3    H134854   4.548   0.837   9.679
 3553TIP3    H234855   4.421   0.805   9.602
 3554TIP3   OH234856   4.847   1.260   9.489
 3554TIP3    H134857   4.849   1.249   9.394
 3554TIP3    H234858   4.839   1.355   9.502
 3555TIP3   OH234859   5.234   0.391   9.765
 3555TIP3    H134860   5.146   0.391   9.803
 3555TIP3    H234861   5.283   0.454   9.818
 3556TIP3   OH234862   4.207   0.599   9.849
 3556TIP3    H134863   4.248   0.682   9.873
 3556TIP3    H234864   4.274   0.553   9.798
 3557TIP3   OH234865   3.902   1.302   9.273
 3557TIP3    H134866   3.902   1.335   9.183
 3557TIP3    H234867   3.922   1.378   9.327
 3558TIP3   OH234868   5.383   1.409   9.873
 3558TIP3    H134869   5.298   1.398   9.917
 3558TIP3    H234870   5.397   1.503   9.871
 3559TIP3   OH234871   4.576   0.068   9.815
 3559TIP3    H134872   4.575  -0.028   9.814
 3559TIP3    H234873   4.490   0.093   9.849
 3560TIP3   OH234874   5.122   1.570   9.520
 3560TIP3    H134875   5.144   1.478   9.504
 3560TIP3    H234876   5.204   1.610   9.548
 3561TIP3   OH234877   5.215   1.322   9.473
 3561TIP3    H134878   5.255   1.293   9.391
 3561TIP3    H234879   5.270   1.284   9.541
 3562TIP3   OH234880   4.830   0.959   9.292
 3562TIP3    H134881   4.740   0.990   9.286
 3562TIP3    H234882   4.880   1.022   9.239
 3563TIP3   OH234883   4.910   0.827   8.945
 3563TIP3    H134884   4.968   0.845   9.019
 3563TIP3    H234885   4.955   0.759   8.895
 3564TIP3   OH234886   5.215   0.997   9.357
 3564TIP3    H134887   5.146   1.011   9.422
 3564TIP3    H234888   5.276   0.937   9.399
 3565TIP3   OH234889   4.281   1.033   9.524
 3565TIP3    H134890   4.275   0.991   9.439
 3565TIP3    H234891   4.354   0.989   9.568
 3566TIP3   OH234892   4.544   1.365   9.813
 3566TIP3    H134893   4.525   1.383   9.721
 3566TIP3    H234894   4.620   1.307   9.811
 3567TIP3   OH234895   4.322   0.854   9.886
 3567TIP3    H134896   4.376   0.864   9.808
 3567TIP3    H234897   4.381   0.874   9.959
 3568TIP3   OH234898   5.116   0.880   9.126
 3568TIP3    H134899   5.148   0.928   9.202
 3568TIP3    H234900   5.166   0.915   9.052
 3569TIP3   OH234901   4.848   1.535   9.490
 3569TIP3    H134902   4.944   1.541   9.495
 3569TIP3    H234903   4.823   1.606   9.430
 3570TIP3   OH234904   5.388   0.046   9.118
 3570TIP3    H134905   5.345   0.089   9.192
 3570TIP3    H234906   5.454   0.109   9.089
 3571TIP3   OH234907   4.260   0.922   9.269
 3571TIP3    H134908   4.194   0.985   9.238
 3571TIP3    H234909   4.224   0.836   9.244
 3572TIP3   OH234910   5.646   1.486   9.017
 3572TIP3    H134911   5.631   1.579   9.002
 3572TIP3    H234912   5.729   1.467   8.973
 3573TIP3   OH234913   4.041   1.498   9.966
 3573TIP3    H134914   4.109   1.431   9.953
 3573TIP3    H234915   3.962   1.460   9.927
 3574TIP3   OH234916   4.843   1.774   9.340
 3574TIP3    H134917   4.820   1.778   9.247
 3574TIP3    H234918   4.808   1.855   9.377
 3575TIP3   OH234919   4.159   1.693   9.509
 3575TIP3    H134920   4.185   1.650   9.590
 3575TIP3    H234921   4.096   1.634   9.469
 3576TIP3   OH234922   5.123   1.777   9.026
 3576TIP3    H134923   5.179   1.707   8.993
 3576TIP3    H234924   5.136   1.774   9.121
 3577TIP3   OH234925   5.115   1.754   9.306
 3577TIP3    H134926   5.021   1.766   9.319
 3577TIP3    H234927   5.140   1.684   9.367
 3578TIP3   OH234928   4.320   0.138   9.899
 3578TIP3    H134929   4.250   0.157   9.836
 3578TIP3    H234930   4.315   0.211   9.962
 3579TIP3   OH234931   5.248   0.977   8.909
 3579TIP3    H134932   5.211   0.990   8.821
 3579TIP3    H234933   5.342   0.989   8.897
 3580TIP3   OH234934   4.758   0.332   9.059
 3580TIP3    H134935   4.687   0.344   9.123
 3580TIP3    H234936   4.729   0.258   9.006
 3581TIP3   OH234937   4.313   0.695   9.515
 3581TIP3    H134938   4.219   0.680   9.515
 3581TIP3    H234939   4.340   0.680   9.424
 3582TIP3   OH234940   4.877   0.697   9.355
 3582TIP3    H134941   4.860   0.787   9.327
 3582TIP3    H234942   4.950   0.668   9.300
 3583TIP3   OH234943   5.017   0.648   9.587
 3583TIP3    H134944   4.960   0.674   9.514
 3583TIP3    H234945   5.067   0.574   9.553
 3584TIP3   OH234946   4.451   0.376   8.943
 3584TIP3    H134947   4.413   0.370   9.031
 3584TIP3    H234948   4.390   0.433   8.895
 3585TIP3   OH234949   3.786   0.442   9.589
 3585TIP3    H134950   3.857   0.452   9.652
 3585TIP3    H234951   3.791   0.521   9.535
 3586TIP3   OH234952   3.844   0.456   9.131
 3586TIP3    H134953   3.923   0.499   9.099
 3586TIP3    H234954   3.777   0.525   9.131
 3587TIP3   OH234955   4.643   0.462   9.652
 3587TIP3    H134956   4.549   0.448   9.661
 3587TIP3    H234957   4.682   0.400   9.714
 3588TIP3   OH234958   4.057   0.607   9.494
 3588TIP3    H134959   3.975   0.613   9.446
 3588TIP3    H234960   4.086   0.517   9.482
 3589TIP3   OH234961   4.391   0.627   9.264
 3589TIP3    H134962   4.481   0.622   9.298
 3589TIP3    H234963   4.402   0.662   9.175
 3590TIP3   OH234964   4.981   0.428   9.903
 3590TIP3    H134965   4.990   0.386   9.988
 3590TIP3    H234966   4.909   0.381   9.861
 3591TIP3   OH234967   4.415   0.706   9.007
 3591TIP3    H134968   4.382   0.654   8.933
 3591TIP3    H234969   4.495   0.746   8.974
 3592TIP3   OH234970   4.672   0.724   9.741
 3592TIP3    H134971   4.667   0.632   9.712
 3592TIP3    H234972   4.755   0.731   9.786
 3593TIP3   OH234973   4.189   0.363   9.454
 3593TIP3    H134974   4.132   0.287   9.466
 3593TIP3    H234975   4.225   0.352   9.366
 3594TIP3   OH234976   4.601   1.110   9.237
 3594TIP3    H134977   4.542   1.090   9.164
 3594TIP3    H234978   4.545   1.155   9.300
 3595TIP3   OH234979   5.016   0.374   9.129
 3595TIP3    H134980   4.923   0.371   9.106
 3595TIP3    H234981   5.032   0.466   9.151
 3596TIP3   OH234982   5.107   0.622   9.219
 3596TIP3    H134983   5.194   0.598   9.251
 3596TIP3    H234984   5.119   0.707   9.178
 3597TIP3   OH234985   4.192   1.089   9.788
 3597TIP3    H134986   4.217   1.080   9.696
 3597TIP3    H234987   4.218   1.007   9.829
 3598TIP3   OH234988   4.841   1.234   9.199
 3598TIP3    H134989   4.828   1.329   9.190
 3598TIP3    H234990   4.753   1.198   9.203
 3599TIP3   OH234991   5.542   0.656   9.123
 3599TIP3    H134992   5.492   0.631   9.045
 3599TIP3    H234993   5.561   0.749   9.110
 3600TIP3   OH234994   5.460   1.489   9.228
 3600TIP3    H134995   5.415   1.406   9.241
 3600TIP3    H234996   5.516   1.473   9.152
 3601TIP3   OH234997   5.259   1.012   9.810
 3601TIP3    H134998   5.166   1.027   9.826
 3601TIP3    H234999   5.262   0.924   9.771
 3602TIP3   OH235000   4.436   1.451   9.573
 3602TIP3    H135001   4.459   1.523   9.514
 3602TIP3    H235002   4.364   1.486   9.626
 3603TIP3   OH235003   4.007   0.891   9.031
 3603TIP3    H135004   4.037   0.969   9.077
 3603TIP3    H235005   3.911   0.894   9.038
 3604TIP3   OH235006   4.421   1.246   9.394
 3604TIP3    H135007   4.433   1.315   9.459
 3604TIP3    H235008   4.363   1.183   9.436
 3605TIP3   OH235009   4.425   1.683   9.429
 3605TIP3    H135010   4.334   1.708   9.445
 3605TIP3    H235011   4.477   1.751   9.471
 3606TIP3   OH235012   5.264   1.317   9.008
 3606TIP3    H135013   5.286   1.282   9.094
 3606TIP3    H235014   5.175   1.284   8.991
 3607TIP3   OH235015   5.607   1.760   8.988
 3607TIP3    H135016   5.619   1.823   8.918
 3607TIP3    H235017   5.538   1.797   9.043
 3608TIP3   OH235018   5.343   1.216   9.249
 3608TIP3    H135019   5.292   1.140   9.279
 3608TIP3    H235020   5.434   1.185   9.248
 3609TIP3   OH235021   4.561   1.403   8.895
 3609TIP3    H135022   4.563   1.324   8.842
 3609TIP3    H235023   4.523   1.375   8.979
 3610TIP3   OH235024   4.436   1.379   9.145
 3610TIP3    H135025   4.433   1.338   9.231
 3610TIP3    H235026   4.469   1.468   9.162
 3611TIP3   OH235027   4.082   1.110   9.180
 3611TIP3    H135028   4.017   1.160   9.231
 3611TIP3    H235029   4.128   1.177   9.129
 3612TIP3   OH235030   5.019   0.273   9.386
 3612TIP3    H135031   5.014   0.294   9.293
 3612TIP3    H235032   5.072   0.343   9.424
 3613TIP3   OH235033   4.785   1.497   9.169
 3613TIP3    H135034   4.695   1.530   9.182
 3613TIP3    H235035   4.834   1.574   9.140
 3614TIP3   OH235036   4.631   0.581   9.396
 3614TIP3    H135037   4.715   0.625   9.380
 3614TIP3    H235038   4.636   0.552   9.487
 3615TIP3   OH235039   4.749   0.267   9.459
 3615TIP3    H135040   4.749   0.338   9.523
 3615TIP3    H235041   4.841   0.257   9.435
 3616TIP3   OH235042   4.544   1.629   9.193
 3616TIP3    H135043   4.555   1.716   9.155
 3616TIP3    H235044   4.502   1.646   9.278
 3617TIP3   OH235045   4.310   0.371   9.194
 3617TIP3    H135046   4.312   0.465   9.213
 3617TIP3    H235047   4.395   0.339   9.224
 3618TIP3   OH235048   5.245   0.757   9.705
 3618TIP3    H135049   5.162   0.722   9.674
 3618TIP3    H235050   5.272   0.697   9.775
 3619TIP3   OH235051   4.193   1.315   9.032
 3619TIP3    H135052   4.269   1.355   9.076
 3619TIP3    H235053   4.230   1.273   8.955
 3620TIP3   OH235054   4.032   0.615   9.017
 3620TIP3    H135055   4.029   0.710   9.029
 3620TIP3    H235056   4.043   0.603   8.922
 3621TIP3   OH235057   5.415   1.687   9.913
 3621TIP3    H135058   5.392   1.752   9.847
 3621TIP3    H235059   5.381   1.722   9.995
 3622TIP3   OH235060   4.094   0.167   9.743
 3622TIP3    H135061   4.076   0.176   9.649
 3622TIP3    H235062   4.059   0.081   9.765
 3623TIP3   OH235063   3.947   1.555   9.388
 3623TIP3    H135064   3.872   1.590   9.437
 3623TIP3    H235065   3.951   1.608   9.309
 3624TIP3   OH235066   4.759   1.591   8.864
 3624TIP3    H135067   4.692   1.524   8.881
 3624TIP3    H235068   4.839   1.541   8.847
 3625TIP3   OH235069   5.260   1.572   8.908
 3625TIP3    H135070   5.276   1.487   8.950
 3625TIP3    H235071   5.324   1.577   8.838
 3626TIP3   OH235072   4.313   1.162   8.841
 3626TIP3    H135073   4.340   1.105   8.912
 3626TIP3    H235074   4.392   1.174   8.788
 3627TIP3   OH235075   5.003   1.243   8.972
 3627TIP3    H135076   4.948   1.232   9.050
 3627TIP3    H235077   4.970   1.177   8.911
 3628TIP3   OH235078   4.422   1.011   9.047
 3628TIP3    H135079   4.378   0.962   9.116
 3628TIP3    H235080   4.488   0.951   9.012
 3629TIP3   OH235081   4.629   0.859   8.932
 3629TIP3    H135082   4.626   0.892   8.842
 3629TIP3    H235083   4.722   0.845   8.949
 3630TIP3   OH235084   5.521   1.039   8.844
 3630TIP3    H135085   5.494   1.013   8.756
 3630TIP3    H235086   5.507   1.134   8.846
 3631TIP3   OH235087   4.621   1.890   9.116
 3631TIP3    H135088   4.706   1.853   9.092
 3631TIP3    H235089   4.593   1.939   9.039
 3632TIP3   OH235090   3.925   1.365   9.003
 3632TIP3    H135091   4.020   1.366   9.009
 3632TIP3    H235092   3.905   1.306   8.930
 3633TIP3   OH235093   3.801   1.840   9.495
 3633TIP3    H135094   3.724   1.814   9.444
 3633TIP3    H235095   3.804   1.777   9.567
 3634TIP3   OH235096   3.820   1.660   9.701
 3634TIP3    H135097   3.818   1.569   9.731
 3634TIP3    H235098   3.895   1.699   9.746
 3635TIP3   OH235099   5.600   1.131   9.251
 3635TIP3    H135100   5.662   1.203   9.264
 3635TIP3    H235101   5.617   1.071   9.324
 3636TIP3   OH235102   5.626   0.931   9.435
 3636TIP3    H135103   5.540   0.897   9.461
 3636TIP3    H235104   5.675   0.936   9.516
 3637TIP3   OH235105   5.659   1.361   9.898
 3637TIP3    H135106   5.693   1.277   9.869
 3637TIP3    H235107   5.564   1.353   9.888
 3638TIP3   OH235108   5.603   0.919   9.076
 3638TIP3    H135109   5.573   0.952   8.992
 3638TIP3    H235110   5.593   0.993   9.136
 3639TIP3   OH235111   5.405   0.596   8.896
 3639TIP3    H135112   5.371   0.634   8.815
 3639TIP3    H235113   5.394   0.502   8.885
 3640TIP3   OH235114   5.381   0.805   9.472
 3640TIP3    H135115   5.382   0.718   9.431
 3640TIP3    H235116   5.342   0.791   9.558
 3641TIP3   OH235117   3.918   1.157   9.800
 3641TIP3    H135118   3.906   1.103   9.722
 3641TIP3    H235119   4.010   1.147   9.823
 3642TIP3   OH235120   5.386   0.327   8.850
 3642TIP3    H135121   5.440   0.283   8.916
 3642TIP3    H235122   5.315   0.266   8.832
 3643TIP3   OH235123   5.384   0.557   9.329
 3643TIP3    H135124   5.420   0.470   9.342
 3643TIP3    H235125   5.435   0.594   9.257
 3644TIP3   OH235126   5.353   0.597   9.905
 3644TIP3    H135127   5.442   0.621   9.880
 3644TIP3    H235128   5.350   0.609  10.000
 3645TIP3   OH235129   5.463   0.299   9.389
 3645TIP3    H135130   5.504   0.277   9.473
 3645TIP3    H235131   5.393   0.234   9.380
 3646TIP3   OH235132   4.000   0.430   9.764
 3646TIP3    H135133   4.032   0.340   9.770
 3646TIP3    H235134   4.068   0.482   9.806
 3647TIP3   OH235135   3.720   0.736   9.818
 3647TIP3    H135136   3.812   0.730   9.791
 3647TIP3    H235137   3.707   0.829   9.836
 3648TIP3   OH235138   5.577   0.219   9.015
 3648TIP3    H135139   5.637   0.179   8.952
 3648TIP3    H235140   5.627   0.290   9.055
 3649TIP3   OH235141   3.828   0.238   9.296
 3649TIP3    H135142   3.734   0.244   9.316
 3649TIP3    H235143   3.847   0.319   9.248
 3650TIP3   OH235144   5.351   1.699   9.573
 3650TIP3    H135145   5.409   1.719   9.500
 3650TIP3    H235146   5.355   1.776   9.630
 3651TIP3   OH235147   4.047   1.741   9.838
 3651TIP3    H135148   4.032   1.679   9.910
 3651TIP3    H235149   4.126   1.708   9.795
 3652TIP3   OH235150   4.263   1.589   9.746
 3652TIP3    H135151   4.242   1.509   9.795
 3652TIP3    H235152   4.340   1.625   9.792
 3653TIP3   OH235153   4.495   1.629   9.898
 3653TIP3    H135154   4.529   1.544   9.868
 3653TIP3    H235155   4.493   1.622   9.993
 3654TIP3   OH235156   4.771   0.269   9.800
 3654TIP3    H135157   4.710   0.197   9.818
 3654TIP3    H235158   4.841   0.228   9.750
 3655TIP3   OH235159   5.367   0.144   9.722
 3655TIP3    H135160   5.452   0.173   9.688
 3655TIP3    H235161   5.320   0.226   9.740
 3656TIP3   OH235162   5.608   0.235   9.613
 3656TIP3    H135163   5.694   0.197   9.597
 3656TIP3    H235164   5.621   0.300   9.682
 3657TIP3   OH235165   4.017   0.151   9.477
 3657TIP3    H135166   3.949   0.178   9.415
 3657TIP3    H235167   4.027   0.057   9.462
 3658TIP3   OH235168   3.955   0.061   9.118
 3658TIP3    H135169   4.012   0.126   9.077
 3658TIP3    H235170   3.904   0.110   9.181
 3659TIP3   OH235171   4.555   0.091   9.539
 3659TIP3    H135172   4.624   0.148   9.506
 3659TIP3    H235173   4.563   0.096   9.634
 3660TIP3   OH235174   4.979   0.176   9.655
 3660TIP3    H135175   5.007   0.194   9.565
 3660TIP3    H235176   5.006   0.085   9.670
 3661TIP3   OH235177   5.253   0.124   9.350
 3661TIP3    H135178   5.171   0.172   9.357
 3661TIP3    H235179   5.231   0.034   9.374
 3662TIP3   OH235180   3.949   1.716   9.165
 3662TIP3    H135181   3.872   1.718   9.108
 3662TIP3    H235182   3.974   1.807   9.175
 3663TIP3   OH235183   4.126   0.262   9.009
 3663TIP3    H135184   4.185   0.208   8.956
 3663TIP3    H235185   4.182   0.297   9.079
 3664TIP3   OH235186   4.571   0.347   9.264
 3664TIP3    H135187   4.619   0.287   9.321
 3664TIP3    H235188   4.588   0.434   9.302
 3665TIP3   OH235189   4.851   1.756   9.059
 3665TIP3    H135190   4.943   1.772   9.039
 3665TIP3    H235191   4.818   1.708   8.983
 3666TIP3   OH235192   5.498   1.736   9.339
 3666TIP3    H135193   5.484   1.647   9.307
 3666TIP3    H235194   5.472   1.792   9.266
 3667TIP3   OH235195   4.155   1.754   8.940
 3667TIP3    H135196   4.120   1.725   9.024
 3667TIP3    H235197   4.222   1.690   8.918
 3668TIP3   OH235198   6.891   0.966   9.496
 3668TIP3    H135199   6.867   1.058   9.511
 3668TIP3    H235200   6.827   0.935   9.433
 3669TIP3   OH235201   6.741   0.957   9.825
 3669TIP3    H135202   6.778   0.880   9.870
 3669TIP3    H235203   6.675   0.921   9.766
 3670TIP3   OH235204   7.026   1.361   9.616
 3670TIP3    H135205   6.968   1.289   9.590
 3670TIP3    H235206   7.075   1.326   9.690
 3671TIP3   OH235207   6.192   1.349   9.801
 3671TIP3    H135208   6.141   1.268   9.805
 3671TIP3    H235209   6.274   1.328   9.845
 3672TIP3   OH235210   5.746   0.706   9.323
 3672TIP3    H135211   5.708   0.787   9.356
 3672TIP3    H235212   5.683   0.675   9.258
 3673TIP3   OH235213   5.824   0.928   9.627
 3673TIP3    H135214   5.831   0.846   9.676
 3673TIP3    H235215   5.902   0.930   9.572
 3674TIP3   OH235216   6.885   1.717   9.854
 3674TIP3    H135217   6.853   1.669   9.778
 3674TIP3    H235218   6.820   1.701   9.922
 3675TIP3   OH235219   6.705   1.229   9.869
 3675TIP3    H135220   6.702   1.134   9.859
 3675TIP3    H235221   6.798   1.249   9.873
 3676TIP3   OH235222   6.819   0.692   9.876
 3676TIP3    H135223   6.844   0.612   9.923
 3676TIP3    H235224   6.854   0.680   9.788
 3677TIP3   OH235225   6.233   0.448   9.659
 3677TIP3    H135226   6.233   0.529   9.608
 3677TIP3    H235227   6.176   0.389   9.610
 3678TIP3   OH235228   7.057   0.456   9.501
 3678TIP3    H135229   7.090   0.430   9.587
 3678TIP3    H235230   7.133   0.494   9.457
 3679TIP3   OH235231   5.860   0.683   9.743
 3679TIP3    H135232   5.928   0.647   9.800
 3679TIP3    H235233   5.878   0.643   9.657
 3680TIP3   OH235234   6.352   0.855   9.653
 3680TIP3    H135235   6.438   0.819   9.675
 3680TIP3    H235236   6.311   0.785   9.601
 3681TIP3   OH235237   6.829   1.230   9.461
 3681TIP3    H135238   6.813   1.220   9.367
 3681TIP3    H235239   6.788   1.313   9.484
 3682TIP3   OH235240   7.119   0.427   9.771
 3682TIP3    H135241   7.043   0.431   9.828
 3682TIP3    H235242   7.177   0.496   9.803
 3683TIP3   OH235243   6.092   0.582   9.860
 3683TIP3    H135244   6.129   0.670   9.872
 3683TIP3    H235245   6.153   0.538   9.802
 3684TIP3   OH235246   5.775   1.346   9.245
 3684TIP3    H135247   5.734   1.397   9.176
 3684TIP3    H235248   5.815   1.411   9.302
 3685TIP3   OH235249   7.160   1.277   9.843
 3685TIP3    H135250   7.097   1.206   9.832
 3685TIP3    H235251   7.237   1.236   9.882
 3686TIP3   OH235252   6.498   0.114   9.824
 3686TIP3    H135253   6.516   0.025   9.854
 3686TIP3    H235254   6.408   0.132   9.852
 3687TIP3   OH235255   6.966   1.627   9.597
 3687TIP3    H135256   6.971   1.531   9.603
 3687TIP3    H235257   7.022   1.649   9.523
 3688TIP3   OH235258   7.104   1.453   9.370
 3688TIP3    H135259   7.161   1.389   9.328
 3688TIP3    H235260   7.079   1.413   9.453
 3689TIP3   OH235261   6.730   0.922   9.276
 3689TIP3    H135262   6.652   0.972   9.253
 3689TIP3    H235263   6.793   0.942   9.207
 3690TIP3   OH235264   6.808   0.823   8.934
 3690TIP3    H135265   6.865   0.846   9.007
 3690TIP3    H235266   6.854   0.753   8.888
 3691TIP3   OH235267   7.122   1.009   9.355
 3691TIP3    H135268   7.045   1.000   9.411
 3691TIP3    H235269   7.187   0.951   9.393
 3692TIP3   OH235270   6.182   1.038   9.539
 3692TIP3    H135271   6.145   0.992   9.464
 3692TIP3    H235272   6.248   0.978   9.574
 3693TIP3   OH235273   6.486   1.394   9.835
 3693TIP3    H135274   6.474   1.388   9.740
 3693TIP3    H235275   6.560   1.337   9.853
 3694TIP3   OH235276   6.195   0.847   9.876
 3694TIP3    H135277   6.252   0.854   9.799
 3694TIP3    H235278   6.253   0.864   9.950
 3695TIP3   OH235279   6.984   0.918   9.131
 3695TIP3    H135280   7.032   0.962   9.201
 3695TIP3    H235281   7.033   0.939   9.052
 3696TIP3   OH235282   6.728   1.482   9.478
 3696TIP3    H135283   6.755   1.573   9.492
 3696TIP3    H235284   6.691   1.481   9.390
 3697TIP3   OH235285   7.312   0.133   9.001
 3697TIP3    H135286   7.260   0.144   9.080
 3697TIP3    H235287   7.390   0.186   9.016
 3698TIP3   OH235288   6.064   0.926   9.317
 3698TIP3    H135289   6.017   1.001   9.279
 3698TIP3    H235290   6.014   0.850   9.288
 3699TIP3   OH235291   7.566   1.460   8.998
 3699TIP3    H135292   7.568   1.555   8.987
 3699TIP3    H235293   7.657   1.433   8.987
 3700TIP3   OH235294   5.691   1.630   9.911
 3700TIP3    H135295   5.691   1.534   9.917
 3700TIP3    H235296   5.599   1.654   9.916
 3701TIP3   OH235297   6.752   1.759   9.385
 3701TIP3    H135298   6.732   1.764   9.292
 3701TIP3    H235299   6.669   1.780   9.428
 3702TIP3   OH235300   6.061   1.722   9.527
 3702TIP3    H135301   6.068   1.685   9.614
 3702TIP3    H235302   6.008   1.659   9.478
 3703TIP3   OH235303   7.011   1.742   9.023
 3703TIP3    H135304   7.056   1.669   8.980
 3703TIP3    H235305   7.027   1.729   9.116
 3704TIP3   OH235306   7.011   1.696   9.295
 3704TIP3    H135307   6.923   1.695   9.332
 3704TIP3    H235308   7.045   1.608   9.312
 3705TIP3   OH235309   6.235   0.152   9.904
 3705TIP3    H135310   6.162   0.169   9.845
 3705TIP3    H235311   6.212   0.196   9.985
 3706TIP3   OH235312   7.112   0.957   8.896
 3706TIP3    H135313   7.082   0.962   8.805
 3706TIP3    H235314   7.206   0.975   8.890
 3707TIP3   OH235315   6.660   0.369   9.103
 3707TIP3    H135316   6.591   0.356   9.167
 3707TIP3    H235317   6.639   0.308   9.032
 3708TIP3   OH235318   6.196   0.679   9.516
 3708TIP3    H135319   6.101   0.667   9.514
 3708TIP3    H235320   6.225   0.659   9.427
 3709TIP3   OH235321   6.767   0.676   9.384
 3709TIP3    H135322   6.740   0.760   9.347
 3709TIP3    H235323   6.845   0.652   9.335
 3710TIP3   OH235324   6.907   0.652   9.623
 3710TIP3    H135325   6.846   0.681   9.555
 3710TIP3    H235326   6.949   0.575   9.585
 3711TIP3   OH235327   6.347   0.384   8.964
 3711TIP3    H135328   6.304   0.362   9.047
 3711TIP3    H235329   6.283   0.439   8.919
 3712TIP3   OH235330   5.653   0.414   9.810
 3712TIP3    H135331   5.735   0.402   9.857
 3712TIP3    H235332   5.629   0.505   9.826
 3713TIP3   OH235333   5.715   0.433   9.121
 3713TIP3    H135334   5.798   0.475   9.101
 3713TIP3    H235335   5.651   0.505   9.120
 3714TIP3   OH235336   6.512   0.476   9.675
 3714TIP3    H135337   6.424   0.440   9.686
 3714TIP3    H235338   6.569   0.412   9.718
 3715TIP3   OH235339   5.935   0.601   9.492
 3715TIP3    H135340   5.869   0.625   9.427
 3715TIP3    H235341   5.959   0.511   9.469
 3716TIP3   OH235342   6.287   0.602   9.273
 3716TIP3    H135343   6.378   0.598   9.304
 3716TIP3    H235344   6.294   0.641   9.186
 3717TIP3   OH235345   6.893   0.429   9.940
 3717TIP3    H135346   6.897   0.377  10.019
 3717TIP3    H235347   6.820   0.392   9.890
 3718TIP3   OH235348   6.300   0.708   9.023
 3718TIP3    H135349   6.254   0.662   8.953
 3718TIP3    H235350   6.383   0.734   8.984
 3719TIP3   OH235351   6.578   0.730   9.744
 3719TIP3    H135352   6.553   0.643   9.715
 3719TIP3    H235353   6.653   0.716   9.802
 3720TIP3   OH235354   6.056   0.350   9.458
 3720TIP3    H135355   5.997   0.276   9.473
 3720TIP3    H235356   6.099   0.329   9.375
 3721TIP3   OH235357   6.511   1.083   9.219
 3721TIP3    H135358   6.443   1.035   9.170
 3721TIP3    H235359   6.463   1.129   9.287
 3722TIP3   OH235360   6.919   0.442   9.085
 3722TIP3    H135361   6.824   0.430   9.091
 3722TIP3    H235362   6.936   0.525   9.129
 3723TIP3   OH235363   6.998   0.658   9.235
 3723TIP3    H135364   7.086   0.639   9.266
 3723TIP3    H235365   7.004   0.746   9.199
 3724TIP3   OH235366   6.074   1.096   9.791
 3724TIP3    H135367   6.100   1.086   9.700
 3724TIP3    H235368   6.091   1.011   9.831
 3725TIP3   OH235369   6.739   1.232   9.189
 3725TIP3    H135370   6.711   1.324   9.192
 3725TIP3    H235371   6.658   1.182   9.193
 3726TIP3   OH235372   7.412   0.696   9.138
 3726TIP3    H135373   7.376   0.656   9.059
 3726TIP3    H235374   7.450   0.779   9.108
 3727TIP3   OH235375   7.403   1.475   9.224
 3727TIP3    H135376   7.361   1.389   9.237
 3727TIP3    H235377   7.464   1.461   9.151
 3728TIP3   OH235378   6.993   1.069   9.776
 3728TIP3    H135379   6.904   1.036   9.784
 3728TIP3    H235380   7.044   0.995   9.743
 3729TIP3   OH235381   6.360   1.413   9.585
 3729TIP3    H135382   6.352   1.501   9.549
 3729TIP3    H235383   6.285   1.403   9.643
 3730TIP3   OH235384   5.875   0.877   9.080
 3730TIP3    H135385   5.900   0.966   9.105
 3730TIP3    H235386   5.779   0.879   9.082
 3731TIP3   OH235387   6.348   1.217   9.397
 3731TIP3    H135388   6.368   1.285   9.461
 3731TIP3    H235389   6.286   1.159   9.441
 3732TIP3   OH235390   6.328   1.666   9.484
 3732TIP3    H135391   6.241   1.705   9.495
 3732TIP3    H235392   6.389   1.738   9.500
 3733TIP3   OH235393   7.159   1.297   9.016
 3733TIP3    H135394   7.182   1.271   9.105
 3733TIP3    H235395   7.073   1.257   9.000
 3734TIP3   OH235396   7.545   1.739   8.993
 3734TIP3    H135397   7.541   1.797   8.917
 3734TIP3    H235398   7.474   1.768   9.050
 3735TIP3   OH235399   7.257   1.232   9.266
 3735TIP3    H135400   7.204   1.161   9.302
 3735TIP3    H235401   7.346   1.197   9.265
 3736TIP3   OH235402   6.461   1.387   8.921
 3736TIP3    H135403   6.457   1.308   8.867
 3736TIP3    H235404   6.421   1.361   9.004
 3737TIP3   OH235405   6.324   1.359   9.158
 3737TIP3    H135406   6.330   1.308   9.239
 3737TIP3    H235407   6.343   1.449   9.186
 3738TIP3   OH235408   5.936   1.129   9.182
 3738TIP3    H135409   5.873   1.193   9.216
 3738TIP3    H235410   5.996   1.180   9.128
 3739TIP3   OH235411   6.938   0.287   9.314
 3739TIP3    H135412   6.933   0.340   9.234
 3739TIP3    H235413   6.972   0.347   9.381
 3740TIP3   OH235414   6.653   1.494   9.213
 3740TIP3    H135415   6.561   1.520   9.214
 3740TIP3    H235416   6.697   1.564   9.164
 3741TIP3   OH235417   6.521   0.561   9.414
 3741TIP3    H135418   6.608   0.599   9.400
 3741TIP3    H235419   6.520   0.536   9.506
 3742TIP3   OH235420   6.701   0.211   9.437
 3742TIP3    H135421   6.751   0.200   9.517
 3742TIP3    H235422   6.766   0.230   9.370
 3743TIP3   OH235423   6.407   1.611   9.229
 3743TIP3    H135424   6.420   1.699   9.193
 3743TIP3    H235425   6.373   1.626   9.317
 3744TIP3   OH235426   6.215   0.343   9.219
 3744TIP3    H135427   6.220   0.437   9.236
 3744TIP3    H235428   6.298   0.308   9.251
 3745TIP3   OH235429   7.114   0.817   9.708
 3745TIP3    H135430   7.036   0.769   9.679
 3745TIP3    H235431   7.155   0.758   9.772
 3746TIP3   OH235432   6.092   1.291   9.028
 3746TIP3    H135433   6.166   1.331   9.075
 3746TIP3    H235434   6.132   1.226   8.971
 3747TIP3   OH235435   5.925   0.594   9.059
 3747TIP3    H135436   5.917   0.681   9.099
 3747TIP3    H235437   5.937   0.612   8.966
 3748TIP3   OH235438   7.244   1.591   9.808
 3748TIP3    H135439   7.339   1.599   9.801
 3748TIP3    H235440   7.229   1.498   9.822
 3749TIP3   OH235441   5.997   0.165   9.764
 3749TIP3    H135442   5.959   0.175   9.677
 3749TIP3    H235443   5.981   0.073   9.787
 3750TIP3   OH235444   5.870   1.573   9.380
 3750TIP3    H135445   5.812   1.603   9.450
 3750TIP3    H235446   5.853   1.632   9.307
 3751TIP3   OH235447   6.654   1.578   8.893
 3751TIP3    H135448   6.586   1.513   8.905
 3751TIP3    H235449   6.730   1.528   8.862
 3752TIP3   OH235450   7.130   1.538   8.892
 3752TIP3    H135451   7.153   1.458   8.939
 3752TIP3    H235452   7.198   1.547   8.825
 3753TIP3   OH235453   6.212   1.088   8.895
 3753TIP3    H135454   6.242   1.040   8.972
 3753TIP3    H235455   6.293   1.111   8.849
 3754TIP3   OH235456   6.899   1.215   8.963
 3754TIP3    H135457   6.844   1.210   9.041
 3754TIP3    H235458   6.861   1.152   8.902
 3755TIP3   OH235459   6.277   0.958   9.131
 3755TIP3    H135460   6.212   0.950   9.201
 3755TIP3    H235461   6.286   0.870   9.096
 3756TIP3   OH235462   6.528   0.822   8.931
 3756TIP3    H135463   6.516   0.864   8.846
 3756TIP3    H235464   6.623   0.816   8.942
 3757TIP3   OH235465   7.380   1.037   8.847
 3757TIP3    H135466   7.355   1.014   8.758
 3757TIP3    H235467   7.375   1.132   8.849
 3758TIP3   OH235468   6.499   1.860   9.146
 3758TIP3    H135469   6.587   1.832   9.125
 3758TIP3    H235470   6.473   1.915   9.072
 3759TIP3   OH235471   5.876   1.393   8.898
 3759TIP3    H135472   5.953   1.372   8.951
 3759TIP3    H235473   5.844   1.309   8.868
 3760TIP3   OH235474   5.675   1.881   9.489
 3760TIP3    H135475   5.617   1.844   9.422
 3760TIP3    H235476   5.702   1.805   9.542
 3761TIP3   OH235477   5.759   1.661   9.624
 3761TIP3    H135478   5.703   1.602   9.674
 3761TIP3    H235479   5.812   1.707   9.690
 3762TIP3   OH235480   7.518   1.143   9.261
 3762TIP3    H135481   7.593   1.202   9.265
 3762TIP3    H235482   7.529   1.084   9.336
 3763TIP3   OH235483   7.521   0.956   9.463
 3763TIP3    H135484   7.435   0.916   9.478
 3763TIP3    H235485   7.564   0.953   9.548
 3764TIP3   OH235486   7.622   1.169   9.875
 3764TIP3    H135487   7.710   1.151   9.907
 3764TIP3    H235488   7.614   1.265   9.880
 3765TIP3   OH235489   7.522   0.942   9.066
 3765TIP3    H135490   7.473   0.972   8.990
 3765TIP3    H235491   7.516   1.015   9.128
 3766TIP3   OH235492   7.296   0.589   8.907
 3766TIP3    H135493   7.254   0.629   8.831
 3766TIP3    H235494   7.311   0.498   8.881
 3767TIP3   OH235495   7.279   0.827   9.488
 3767TIP3    H135496   7.273   0.738   9.451
 3767TIP3    H235497   7.227   0.824   9.568
 3768TIP3   OH235498   5.772   1.121   9.816
 3768TIP3    H135499   5.775   1.059   9.743
 3768TIP3    H235500   5.864   1.136   9.838
 3769TIP3   OH235501   7.284   0.326   8.793
 3769TIP3    H135502   7.297   0.261   8.862
 3769TIP3    H235503   7.194   0.312   8.763
 3770TIP3   OH235504   7.257   0.586   9.338
 3770TIP3    H135505   7.284   0.494   9.338
 3770TIP3    H235506   7.312   0.627   9.272
 3771TIP3   OH235507   7.262   0.645   9.874
 3771TIP3    H135508   7.351   0.670   9.851
 3771TIP3    H235509   7.263   0.641   9.970
 3772TIP3   OH235510   7.308   0.314   9.348
 3772TIP3    H135511   7.331   0.264   9.426
 3772TIP3    H235512   7.249   0.256   9.299
 3773TIP3   OH235513   5.905   0.383   9.912
 3773TIP3    H135514   5.941   0.308   9.864
 3773TIP3    H235515   5.973   0.450   9.906
 3774TIP3   OH235516   5.605   0.687   9.845
 3774TIP3    H135517   5.695   0.689   9.813
 3774TIP3    H235518   5.580   0.779   9.853
 3775TIP3   OH235519   7.530   0.312   8.978
 3775TIP3    H135520   7.584   0.251   8.928
 3775TIP3    H235521   7.526   0.391   8.924
 3776TIP3   OH235522   5.722   0.221   9.297
 3776TIP3    H135523   5.631   0.230   9.323
 3776TIP3    H235524   5.738   0.295   9.238
 3777TIP3   OH235525   7.191   1.800   9.543
 3777TIP3    H135526   7.238   1.748   9.478
 3777TIP3    H235527   7.233   1.886   9.540
 3778TIP3   OH235528   5.908   1.776   9.835
 3778TIP3    H135529   5.839   1.731   9.882
 3778TIP3    H235530   5.981   1.713   9.833
 3779TIP3   OH235531   6.127   1.615   9.778
 3779TIP3    H135532   6.129   1.519   9.787
 3779TIP3    H235533   6.213   1.643   9.810
 3780TIP3   OH235534   6.386   1.644   9.894
 3780TIP3    H135535   6.425   1.561   9.869
 3780TIP3    H235536   6.368   1.635   9.988
 3781TIP3   OH235537   6.692   0.301   9.802
 3781TIP3    H135538   6.624   0.238   9.824
 3781TIP3    H235539   6.754   0.252   9.748
 3782TIP3   OH235540   7.133   0.160   9.687
 3782TIP3    H135541   7.215   0.149   9.639
 3782TIP3    H235542   7.139   0.248   9.726
 3783TIP3   OH235543   7.368   0.125   9.553
 3783TIP3    H135544   7.407   0.038   9.543
 3783TIP3    H235545   7.444   0.183   9.561
 3784TIP3   OH235546   5.874   0.145   9.511
 3784TIP3    H135547   5.822   0.165   9.434
 3784TIP3    H235548   5.893   0.052   9.506
 3785TIP3   OH235549   5.863   0.027   9.141
 3785TIP3    H135550   5.916   0.093   9.097
 3785TIP3    H235551   5.803   0.078   9.195
 3786TIP3   OH235552   6.533   0.026   9.558
 3786TIP3    H135553   6.584   0.088   9.506
 3786TIP3    H235554   6.525   0.067   9.644
 3787TIP3   OH235555   6.858   0.146   9.653
 3787TIP3    H135556   6.953   0.156   9.661
 3787TIP3    H235557   6.846   0.052   9.635
 3788TIP3   OH235558   7.145   0.135   9.219
 3788TIP3    H135559   7.064   0.177   9.249
 3788TIP3    H235560   7.126   0.041   9.222
 3789TIP3   OH235561   5.831   1.734   9.155
 3789TIP3    H135562   5.751   1.735   9.102
 3789TIP3    H235563   5.845   1.825   9.180
 3790TIP3   OH235564   6.025   0.240   9.036
 3790TIP3    H135565   6.089   0.192   8.984
 3790TIP3    H235566   6.076   0.281   9.106
 3791TIP3   OH235567   6.475   0.313   9.308
 3791TIP3    H135568   6.541   0.260   9.352
 3791TIP3    H235569   6.486   0.400   9.346
 3792TIP3   OH235570   6.743   1.738   9.094
 3792TIP3    H135571   6.834   1.754   9.069
 3792TIP3    H235572   6.704   1.695   9.018
 3793TIP3   OH235573   7.373   1.709   9.359
 3793TIP3    H135574   7.383   1.620   9.325
 3793TIP3    H235575   7.374   1.765   9.282
 3794TIP3   OH235576   6.000   1.714   8.919
 3794TIP3    H135577   5.960   1.703   9.006
 3794TIP3    H235578   6.074   1.653   8.919
 3795TIP3   OH235579   7.640   0.754   9.313
 3795TIP3    H135580   7.593   0.826   9.356
 3795TIP3    H235581   7.575   0.712   9.258
 3796TIP3   OH235582   7.639   1.437   9.952
 3796TIP3    H135583   7.733   1.453   9.948
 3796TIP3    H235584   7.621   1.428  10.046
 3797TIP3   OH235585   7.568   0.302   9.532
 3797TIP3    H135586   7.646   0.326   9.583
 3797TIP3    H235587   7.588   0.330   9.443
 3798TIP3   OH235588   7.487   1.822   9.582
 3798TIP3    H135589   7.455   1.776   9.505
 3798TIP3    H235590   7.487   1.756   9.651
 3799TIP3   OH235591   7.530   1.631   9.787
 3799TIP3    H135592   7.548   1.553   9.839
 3799TIP3    H235593   7.615   1.674   9.780
 3800TIP3   OH235594   7.650   0.947   9.710
 3800TIP3    H135595   7.744   0.936   9.717
 3800TIP3    H235596   7.631   1.027   9.759
 3801TIP3   OH235597   7.521   0.736   9.846
 3801TIP3    H135598   7.600   0.693   9.876
 3801TIP3    H235599   7.552   0.806   9.788
 3802TIP3   OH235600   7.567   0.339   9.251
 3802TIP3    H135601   7.475   0.338   9.280
 3802TIP3    H235602   7.562   0.339   9.156
 3803TIP3   OH235603   1.195   2.845   9.497
 3803TIP3    H135604   1.170   2.935   9.516
 3803TIP3    H235605   1.140   2.821   9.421
 3804TIP3   OH235606   1.143   2.833   9.782
 3804TIP3    H135607   1.122   2.746   9.817
 3804TIP3    H235608   1.156   2.818   9.688
 3805TIP3   OH235609   1.550   3.109   9.714
 3805TIP3    H135610   1.509   3.039   9.766
 3805TIP3    H235611   1.573   3.176   9.778
 3806TIP3   OH235612   0.471   3.218   9.822
 3806TIP3    H135613   0.447   3.134   9.783
 3806TIP3    H235614   0.565   3.214   9.834
 3807TIP3   OH235615   0.086   2.546   9.415
 3807TIP3    H135616   0.094   2.619   9.476
 3807TIP3    H235617  -0.009   2.528   9.411
 3808TIP3   OH235618   0.137   2.762   9.608
 3808TIP3    H135619   0.174   2.693   9.664
 3808TIP3    H235620   0.212   2.813   9.579
 3809TIP3   OH235621   1.118   3.547   9.693
 3809TIP3    H135622   1.195   3.500   9.661
 3809TIP3    H235623   1.046   3.515   9.639
 3810TIP3   OH235624   0.940   3.033   9.737
 3810TIP3    H135625   1.005   2.975   9.777
 3810TIP3    H235626   0.974   3.052   9.650
 3811TIP3   OH235627   1.120   2.549   9.819
 3811TIP3    H135628   1.138   2.466   9.862
 3811TIP3    H235629   1.185   2.554   9.748
 3812TIP3   OH235630   0.610   2.276   9.650
 3812TIP3    H135631   0.614   2.364   9.610
 3812TIP3    H235632   0.556   2.225   9.589
 3813TIP3   OH235633   1.366   2.363   9.469
 3813TIP3    H135634   1.392   2.351   9.560
 3813TIP3    H235635   1.446   2.389   9.424
 3814TIP3   OH235636   0.250   2.550   9.746
 3814TIP3    H135637   0.311   2.516   9.812
 3814TIP3    H235638   0.267   2.496   9.669
 3815TIP3   OH235639   0.704   2.722   9.596
 3815TIP3    H135640   0.794   2.690   9.596
 3815TIP3    H235641   0.651   2.644   9.579
 3816TIP3   OH235642   1.068   3.090   9.491
 3816TIP3    H135643   1.075   3.082   9.396
 3816TIP3    H235644   1.068   3.184   9.508
 3817TIP3   OH235645   1.430   2.358   9.737
 3817TIP3    H135646   1.358   2.333   9.795
 3817TIP3    H235647   1.497   2.393   9.795
 3818TIP3   OH235648   0.443   2.373   9.860
 3818TIP3    H135649   0.493   2.354   9.939
 3818TIP3    H235650   0.501   2.349   9.788
 3819TIP3   OH235651   0.080   3.161   9.271
 3819TIP3    H135652   0.084   3.194   9.181
 3819TIP3    H235653   0.107   3.235   9.325
 3820TIP3   OH235654   1.609   3.318   9.894
 3820TIP3    H135655   1.543   3.324   9.963
 3820TIP3    H235656   1.632   3.409   9.874
 3821TIP3   OH235657   0.831   1.925   9.819
 3821TIP3    H135658   0.804   1.838   9.849
 3821TIP3    H235659   0.760   1.982   9.846
 3822TIP3   OH235660   1.325   3.444   9.533
 3822TIP3    H135661   1.374   3.364   9.517
 3822TIP3    H235662   1.391   3.508   9.560
 3823TIP3   OH235663   1.468   3.223   9.481
 3823TIP3    H135664   1.512   3.177   9.410
 3823TIP3    H235665   1.500   3.179   9.560
 3824TIP3   OH235666   1.055   2.799   9.265
 3824TIP3    H135667   0.979   2.853   9.244
 3824TIP3    H235668   1.119   2.818   9.196
 3825TIP3   OH235669   1.090   2.716   8.934
 3825TIP3    H135670   1.156   2.728   9.003
 3825TIP3    H235671   1.136   2.671   8.864
 3826TIP3   OH235672   1.438   2.861   9.343
 3826TIP3    H135673   1.371   2.867   9.411
 3826TIP3    H235674   1.507   2.807   9.382
 3827TIP3   OH235675   0.522   2.886   9.468
 3827TIP3    H135676   0.495   2.842   9.387
 3827TIP3    H235677   0.589   2.829   9.506
 3828TIP3   OH235678   0.754   3.243   9.789
 3828TIP3    H135679   0.728   3.257   9.698
 3828TIP3    H235680   0.822   3.176   9.786
 3829TIP3   OH235681   0.688   2.918   9.787
 3829TIP3    H135682   0.698   2.842   9.729
 3829TIP3    H235683   0.774   2.961   9.785
 3830TIP3   OH235684   1.300   2.776   9.116
 3830TIP3    H135685   1.345   2.812   9.193
 3830TIP3    H235686   1.355   2.801   9.042
 3831TIP3   OH235687   1.066   3.363   9.477
 3831TIP3    H135688   1.156   3.393   9.487
 3831TIP3    H235689   1.042   3.384   9.387
 3832TIP3   OH235690   1.659   1.932   9.158
 3832TIP3    H135691   1.580   1.960   9.203
 3832TIP3    H235692   1.692   2.012   9.115
 3833TIP3   OH235693   0.433   2.768   9.230
 3833TIP3    H135694   0.366   2.830   9.201
 3833TIP3    H235695   0.400   2.683   9.200
 3834TIP3   OH235696   1.795   3.382   8.985
 3834TIP3    H135697   1.801   3.478   8.983
 3834TIP3    H235698   1.884   3.352   9.001
 3835TIP3   OH235699   0.212   3.316   9.906
 3835TIP3    H135700   0.282   3.272   9.859
 3835TIP3    H235701   0.243   3.323   9.997
 3836TIP3   OH235702   1.059   3.673   9.348
 3836TIP3    H135703   1.040   3.668   9.255
 3836TIP3    H235704   1.019   3.755   9.377
 3837TIP3   OH235705   0.387   3.519   9.521
 3837TIP3    H135706   0.372   3.501   9.614
 3837TIP3    H235707   0.314   3.475   9.476
 3838TIP3   OH235708   1.342   3.653   9.035
 3838TIP3    H135709   1.392   3.578   9.004
 3838TIP3    H235710   1.350   3.649   9.131
 3839TIP3   OH235711   1.322   3.624   9.310
 3839TIP3    H135712   1.229   3.639   9.329
 3839TIP3    H235713   1.348   3.554   9.371
 3840TIP3   OH235714   0.612   2.089   9.851
 3840TIP3    H135715   0.526   2.049   9.836
 3840TIP3    H235716   0.621   2.155   9.782
 3841TIP3   OH235717   1.467   2.833   8.913
 3841TIP3    H135718   1.447   2.848   8.820
 3841TIP3    H235719   1.557   2.800   8.913
 3842TIP3   OH235720   0.942   2.214   8.970
 3842TIP3    H135721   0.893   2.212   9.053
 3842TIP3    H235722   0.910   2.138   8.922
 3843TIP3   OH235723   0.554   2.511   9.518
 3843TIP3    H135724   0.462   2.485   9.520
 3843TIP3    H235725   0.579   2.501   9.426
 3844TIP3   OH235726   1.093   2.546   9.359
 3844TIP3    H135727   1.069   2.631   9.322
 3844TIP3    H235728   1.165   2.515   9.304
 3845TIP3   OH235729   1.263   2.591   9.594
 3845TIP3    H135730   1.239   2.667   9.540
 3845TIP3    H235731   1.271   2.519   9.532
 3846TIP3   OH235732   0.618   2.235   8.934
 3846TIP3    H135733   0.596   2.239   9.027
 3846TIP3    H235734   0.589   2.319   8.899
 3847TIP3   OH235735   0.018   2.257   9.623
 3847TIP3    H135736   0.084   2.235   9.689
 3847TIP3    H235737   0.055   2.226   9.541
 3848TIP3   OH235738   0.210   2.392   9.227
 3848TIP3    H135739   0.223   2.432   9.141
 3848TIP3    H235740   0.164   2.458   9.278
 3849TIP3   OH235741   0.893   2.225   9.602
 3849TIP3    H135742   0.806   2.233   9.641
 3849TIP3    H235743   0.948   2.192   9.673
 3850TIP3   OH235744   0.305   2.402   9.525
 3850TIP3    H135745   0.231   2.421   9.466
 3850TIP3    H235746   0.331   2.312   9.503
 3851TIP3   OH235747   0.637   2.463   9.264
 3851TIP3    H135748   0.729   2.446   9.285
 3851TIP3    H235749   0.639   2.502   9.176
 3852TIP3   OH235750   1.203   2.291   9.893
 3852TIP3    H135751   1.214   2.256   9.982
 3852TIP3    H235752   1.152   2.225   9.847
 3853TIP3   OH235753   0.624   2.552   9.005
 3853TIP3    H135754   0.562   2.532   8.935
 3853TIP3    H235755   0.696   2.598   8.961
 3854TIP3   OH235756   0.950   2.606   9.602
 3854TIP3    H135757   1.008   2.579   9.531
 3854TIP3    H235758   0.996   2.580   9.682
 3855TIP3   OH235759   0.437   2.163   9.466
 3855TIP3    H135760   0.391   2.080   9.477
 3855TIP3    H235761   0.465   2.163   9.374
 3856TIP3   OH235762   0.844   2.969   9.206
 3856TIP3    H135763   0.777   2.939   9.144
 3856TIP3    H235764   0.793   3.013   9.275
 3857TIP3   OH235765   1.189   2.253   9.096
 3857TIP3    H135766   1.105   2.256   9.050
 3857TIP3    H235767   1.215   2.344   9.105
 3858TIP3   OH235768   1.301   2.501   9.179
 3858TIP3    H135769   1.390   2.475   9.202
 3858TIP3    H235770   1.309   2.591   9.147
 3859TIP3   OH235771   0.431   2.965   9.719
 3859TIP3    H135772   0.443   2.946   9.625
 3859TIP3    H235773   0.515   2.943   9.758
 3860TIP3   OH235774   1.074   3.113   9.206
 3860TIP3    H135775   1.056   3.207   9.204
 3860TIP3    H235776   0.988   3.071   9.196
 3861TIP3   OH235777   1.758   2.554   9.117
 3861TIP3    H135778   1.705   2.553   9.037
 3861TIP3    H235779   1.800   2.640   9.116
 3862TIP3   OH235780   1.674   3.370   9.238
 3862TIP3    H135781   1.639   3.283   9.256
 3862TIP3    H235782   1.705   3.365   9.147
 3863TIP3   OH235783   1.419   2.893   9.836
 3863TIP3    H135784   1.323   2.888   9.834
 3863TIP3    H235785   1.448   2.822   9.779
 3864TIP3   OH235786   0.636   3.311   9.551
 3864TIP3    H135787   0.671   3.394   9.517
 3864TIP3    H235788   0.541   3.324   9.551
 3865TIP3   OH235789   0.181   2.805   8.934
 3865TIP3    H135790   0.193   2.860   9.011
 3865TIP3    H235791   0.101   2.838   8.894
 3866TIP3   OH235792   0.681   3.099   9.383
 3866TIP3    H135793   0.678   3.167   9.450
 3866TIP3    H235794   0.622   3.031   9.415
 3867TIP3   OH235795   0.652   3.567   9.456
 3867TIP3    H135796   0.558   3.570   9.474
 3867TIP3    H235797   0.685   3.652   9.483
 3868TIP3   OH235798   1.484   3.192   9.035
 3868TIP3    H135799   1.510   3.153   9.119
 3868TIP3    H235800   1.397   3.156   9.018
 3869TIP3   OH235801   1.805   3.659   9.004
 3869TIP3    H135802   1.825   3.730   8.943
 3869TIP3    H235803   1.734   3.693   9.059
 3870TIP3   OH235804   1.589   3.084   9.269
 3870TIP3    H135805   1.536   3.008   9.288
 3870TIP3    H235806   1.679   3.051   9.268
 3871TIP3   OH235807   0.761   3.292   8.901
 3871TIP3    H135808   0.780   3.212   8.852
 3871TIP3    H235809   0.727   3.262   8.985
 3872TIP3   OH235810   0.657   3.261   9.156
 3872TIP3    H135811   0.673   3.208   9.234
 3872TIP3    H235812   0.693   3.347   9.178
 3873TIP3   OH235813   0.252   2.969   9.150
 3873TIP3    H135814   0.188   3.014   9.206
 3873TIP3    H235815   0.313   3.037   9.122
 3874TIP3   OH235816   1.222   2.158   9.351
 3874TIP3    H135817   1.211   2.189   9.261
 3874TIP3    H235818   1.262   2.232   9.397
 3875TIP3   OH235819   1.010   3.381   9.203
 3875TIP3    H135820   0.923   3.421   9.205
 3875TIP3    H235821   1.061   3.439   9.146
 3876TIP3   OH235822   0.881   2.375   9.371
 3876TIP3    H135823   0.956   2.435   9.367
 3876TIP3    H235824   0.886   2.336   9.458
 3877TIP3   OH235825   0.986   2.036   9.422
 3877TIP3    H135826   0.956   2.103   9.483
 3877TIP3    H235827   1.074   2.065   9.396
 3878TIP3   OH235828   0.766   3.508   9.215
 3878TIP3    H135829   0.772   3.593   9.171
 3878TIP3    H235830   0.730   3.529   9.302
 3879TIP3   OH235831   0.548   2.209   9.209
 3879TIP3    H135832   0.556   2.301   9.235
 3879TIP3    H235833   0.637   2.175   9.213
 3880TIP3   OH235834   1.501   2.668   9.697
 3880TIP3    H135835   1.419   2.625   9.674
 3880TIP3    H235836   1.541   2.610   9.762
 3881TIP3   OH235837   0.411   3.179   9.063
 3881TIP3    H135838   0.485   3.221   9.107
 3881TIP3    H235839   0.447   3.144   8.982
 3882TIP3   OH235840   0.228   2.539   8.997
 3882TIP3    H135841   0.202   2.630   8.983
 3882TIP3    H235842   0.238   2.503   8.909
 3883TIP3   OH235843   1.681   3.583   9.870
 3883TIP3    H135844   1.641   3.663   9.837
 3883TIP3    H235845   1.770   3.608   9.894
 3884TIP3   OH235846   0.371   1.975   9.771
 3884TIP3    H135847   0.356   1.961   9.677
 3884TIP3    H235848   0.394   1.888   9.804
 3885TIP3   OH235849   0.168   3.421   9.363
 3885TIP3    H135850   0.118   3.478   9.421
 3885TIP3    H235851   0.173   3.469   9.280
 3886TIP3   OH235852   0.957   3.485   8.883
 3886TIP3    H135853   0.887   3.420   8.887
 3886TIP3    H235854   1.038   3.434   8.878
 3887TIP3   OH235855   1.470   3.443   8.923
 3887TIP3    H135856   1.490   3.360   8.966
 3887TIP3    H235857   1.536   3.451   8.854
 3888TIP3   OH235858   0.552   3.042   8.869
 3888TIP3    H135859   0.570   2.980   8.940
 3888TIP3    H235860   0.634   3.047   8.820
 3889TIP3   OH235861   1.232   3.108   8.977
 3889TIP3    H135862   1.175   3.093   9.053
 3889TIP3    H235863   1.197   3.051   8.909
 3890TIP3   OH235864   0.639   2.863   9.057
 3890TIP3    H135865   0.582   2.809   9.113
 3890TIP3    H235866   0.690   2.799   9.006
 3891TIP3   OH235867   0.814   2.715   8.894
 3891TIP3    H135868   0.815   2.746   8.804
 3891TIP3    H235869   0.906   2.712   8.920
 3892TIP3   OH235870   1.750   2.915   8.834
 3892TIP3    H135871   1.730   2.891   8.744
 3892TIP3    H235872   1.715   3.003   8.844
 3893TIP3   OH235873   0.824   3.765   9.116
 3893TIP3    H135874   0.912   3.731   9.099
 3893TIP3    H235875   0.803   3.819   9.040
 3894TIP3   OH235876   0.146   3.260   9.019
 3894TIP3    H135877   0.238   3.266   9.045
 3894TIP3    H235878   0.147   3.209   8.937
 3895TIP3   OH235879   0.063   3.601   9.538
 3895TIP3    H135880  -0.016   3.655   9.534
 3895TIP3    H235881   0.080   3.591   9.632
 3896TIP3   OH235882   0.108   3.557   9.809
 3896TIP3    H135883   0.139   3.470   9.834
 3896TIP3    H235884   0.170   3.618   9.850
 3897TIP3   OH235885   1.848   2.981   9.271
 3897TIP3    H135886   1.920   3.043   9.275
 3897TIP3    H235887   1.864   2.920   9.342
 3898TIP3   OH235888   1.882   2.795   9.473
 3898TIP3    H135889   1.791   2.764   9.477
 3898TIP3    H235890   1.899   2.829   9.561
 3899TIP3   OH235891   1.867   3.211   9.884
 3899TIP3    H135892   1.854   3.118   9.899
 3899TIP3    H235893   1.778   3.249   9.886
 3900TIP3   OH235894   1.865   2.804   9.059
 3900TIP3    H135895   1.820   2.838   8.982
 3900TIP3    H235896   1.850   2.871   9.127
 3901TIP3   OH235897   1.616   2.559   8.882
 3901TIP3    H135898   1.617   2.566   8.787
 3901TIP3    H235899   1.585   2.470   8.899
 3902TIP3   OH235900   1.625   2.691   9.457
 3902TIP3    H135901   1.615   2.604   9.418
 3902TIP3    H235902   1.589   2.682   9.545
 3903TIP3   OH235903   0.232   2.954   9.912
 3903TIP3    H135904   0.295   2.958   9.840
 3903TIP3    H235905   0.280   2.918   9.986
 3904TIP3   OH235906   1.548   2.301   8.930
 3904TIP3    H135907   1.613   2.238   8.960
 3904TIP3    H235908   1.473   2.248   8.904
 3905TIP3   OH235909   1.590   2.445   9.316
 3905TIP3    H135910   1.622   2.356   9.333
 3905TIP3    H235911   1.647   2.478   9.247
 3906TIP3   OH235912   1.619   2.503   9.884
 3906TIP3    H135913   1.709   2.477   9.864
 3906TIP3    H235914   1.628   2.582   9.937
 3907TIP3   OH235915   1.654   2.182   9.389
 3907TIP3    H135916   1.676   2.157   9.478
 3907TIP3    H235917   1.584   2.121   9.363
 3908TIP3   OH235918   0.224   2.209   9.796
 3908TIP3    H135919   0.268   2.125   9.795
 3908TIP3    H235920   0.290   2.272   9.824
 3909TIP3   OH235921  -0.026   2.507   9.736
 3909TIP3    H135922  -0.026   2.420   9.698
 3909TIP3    H235923   0.065   2.524   9.761
 3910TIP3   OH235924   1.765   2.144   9.013
 3910TIP3    H135925   1.807   2.087   8.948
 3910TIP3    H235926   1.830   2.211   9.032
 3911TIP3   OH235927   0.109   2.184   9.370
 3911TIP3    H135928   0.019   2.181   9.338
 3911TIP3    H235929   0.152   2.249   9.316
 3912TIP3   OH235930   1.494   3.653   9.573
 3912TIP3    H135931   1.560   3.641   9.504
 3912TIP3    H235932   1.539   3.704   9.641
 3913TIP3   OH235933   0.329   3.680   9.917
 3913TIP3    H135934   0.374   3.707   9.997
 3913TIP3    H235935   0.388   3.616   9.877
 3914TIP3   OH235936   0.489   3.493   9.803
 3914TIP3    H135937   0.482   3.398   9.811
 3914TIP3    H235938   0.582   3.512   9.815
 3915TIP3   OH235939   0.765   3.508   9.869
 3915TIP3    H135940   0.768   3.418   9.839
 3915TIP3    H235941   0.834   3.514   9.935
 3916TIP3   OH235942   1.060   2.084   9.776
 3916TIP3    H135943   0.995   2.018   9.799
 3916TIP3    H235944   1.136   2.034   9.746
 3917TIP3   OH235945   1.569   1.923   9.771
 3917TIP3    H135946   1.622   1.993   9.733
 3917TIP3    H235947   1.480   1.958   9.774
 3918TIP3   OH235948   1.753   2.086   9.632
 3918TIP3    H135949   1.806   2.016   9.595
 3918TIP3    H235950   1.816   2.140   9.680
 3919TIP3   OH235951   0.315   1.918   9.505
 3919TIP3    H135952   0.222   1.901   9.491
 3919TIP3    H235953   0.358   1.836   9.480
 3920TIP3   OH235954   0.155   1.973   9.188
 3920TIP3    H135955   0.220   2.019   9.135
 3920TIP3    H235956   0.141   2.031   9.263
 3921TIP3   OH235957   0.767   1.910   9.548
 3921TIP3    H135958   0.841   1.945   9.498
 3921TIP3    H235959   0.796   1.914   9.639
 3922TIP3   OH235960   1.287   1.932   9.701
 3922TIP3    H135961   1.328   1.902   9.621
 3922TIP3    H235962   1.242   1.855   9.736
 3923TIP3   OH235963   1.448   2.003   9.319
 3923TIP3    H135964   1.369   2.056   9.332
 3923TIP3    H235965   1.417   1.913   9.322
 3924TIP3   OH235966   0.152   3.613   9.153
 3924TIP3    H135967   0.063   3.621   9.118
 3924TIP3    H235968   0.166   3.695   9.200
 3925TIP3   OH235969   0.360   2.091   9.047
 3925TIP3    H135970   0.418   2.024   9.009
 3925TIP3    H235971   0.415   2.137   9.110
 3926TIP3   OH235972   0.816   2.165   9.212
 3926TIP3    H135973   0.853   2.083   9.246
 3926TIP3    H235974   0.848   2.232   9.272
 3927TIP3   OH235975   1.067   3.647   9.070
 3927TIP3    H135976   1.160   3.656   9.049
 3927TIP3    H235977   1.030   3.599   8.996
 3928TIP3   OH235978   1.680   3.611   9.370
 3928TIP3    H135979   1.677   3.523   9.332
 3928TIP3    H235980   1.664   3.669   9.296
 3929TIP3   OH235981   0.342   3.657   8.942
 3929TIP3    H135982   0.291   3.626   9.017
 3929TIP3    H235983   0.407   3.587   8.928
 3930TIP3   OH235984   3.028   2.839   9.506
 3930TIP3    H135985   3.019   2.934   9.514
 3930TIP3    H235986   2.982   2.817   9.425
 3931TIP3   OH235987   3.010   2.892   9.842
 3931TIP3    H135988   3.025   2.852   9.928
 3931TIP3    H235989   2.954   2.830   9.796
 3932TIP3   OH235990   3.467   3.126   9.707
 3932TIP3    H135991   3.405   3.056   9.726
 3932TIP3    H235992   3.440   3.198   9.763
 3933TIP3   OH235993   2.341   3.190   9.825
 3933TIP3    H135994   2.315   3.103   9.797
 3933TIP3    H235995   2.437   3.187   9.827
 3934TIP3   OH235996   2.092   2.622   9.425
 3934TIP3    H135997   2.013   2.675   9.429
 3934TIP3    H235998   2.061   2.531   9.430
 3935TIP3   OH235999   2.007   2.864   9.724
 3935TIP3    H136000   2.030   2.771   9.726
 3935TIP3    H236001   2.091   2.909   9.722
 3936TIP3   OH236002   3.218   3.514   9.814
 3936TIP3    H136003   3.212   3.472   9.729
 3936TIP3    H236004   3.288   3.467   9.859
 3937TIP3   OH236005   2.850   3.091   9.723
 3937TIP3    H136006   2.912   3.036   9.771
 3937TIP3    H236007   2.888   3.099   9.635
 3938TIP3   OH236008   3.009   2.492   9.814
 3938TIP3    H136009   3.027   2.408   9.856
 3938TIP3    H236010   3.063   2.492   9.735
 3939TIP3   OH236011   2.483   2.287   9.688
 3939TIP3    H136012   2.511   2.364   9.639
 3939TIP3    H236013   2.445   2.229   9.623
 3940TIP3   OH236014   3.292   2.279   9.518
 3940TIP3    H136015   3.316   2.242   9.603
 3940TIP3    H236016   3.376   2.304   9.479
 3941TIP3   OH236017   2.087   2.605   9.705
 3941TIP3    H136018   2.156   2.551   9.744
 3941TIP3    H236019   2.107   2.605   9.611
 3942TIP3   OH236020   2.600   2.705   9.657
 3942TIP3    H136021   2.694   2.712   9.671
 3942TIP3    H236022   2.588   2.625   9.607
 3943TIP3   OH236023   2.965   3.110   9.462
 3943TIP3    H136024   2.966   3.098   9.367
 3943TIP3    H236025   2.975   3.204   9.475
 3944TIP3   OH236026   3.345   2.217   9.782
 3944TIP3    H136027   3.259   2.226   9.822
 3944TIP3    H236028   3.394   2.294   9.810
 3945TIP3   OH236029   2.290   2.451   9.807
 3945TIP3    H136030   2.332   2.531   9.838
 3945TIP3    H236031   2.363   2.393   9.782
 3946TIP3   OH236032   2.066   3.154   9.262
 3946TIP3    H136033   2.049   3.192   9.176
 3946TIP3    H236034   2.073   3.229   9.321
 3947TIP3   OH236035   3.476   3.358   9.865
 3947TIP3    H136036   3.554   3.310   9.891
 3947TIP3    H236037   3.508   3.447   9.846
 3948TIP3   OH236038   2.686   1.895   9.776
 3948TIP3    H136039   2.675   1.803   9.802
 3948TIP3    H236040   2.610   1.940   9.813
 3949TIP3   OH236041   3.258   3.447   9.542
 3949TIP3    H136042   3.318   3.377   9.515
 3949TIP3    H236043   3.315   3.520   9.564
 3950TIP3   OH236044   3.426   3.244   9.460
 3950TIP3    H136045   3.402   3.177   9.396
 3950TIP3    H236046   3.447   3.195   9.540
 3951TIP3   OH236047   2.912   2.787   9.263
 3951TIP3    H136048   2.836   2.840   9.240
 3951TIP3    H236049   2.980   2.815   9.201
 3952TIP3   OH236050   2.977   2.723   8.910
 3952TIP3    H136051   3.026   2.748   8.989
 3952TIP3    H236052   3.036   2.665   8.862
 3953TIP3   OH236053   3.275   2.820   9.363
 3953TIP3    H136054   3.205   2.824   9.429
 3953TIP3    H236055   3.347   2.776   9.408
 3954TIP3   OH236056   2.430   2.864   9.507
 3954TIP3    H136057   2.403   2.801   9.440
 3954TIP3    H236058   2.498   2.818   9.557
 3955TIP3   OH236059   2.621   3.231   9.774
 3955TIP3    H136060   2.603   3.248   9.682
 3955TIP3    H236061   2.701   3.180   9.774
 3956TIP3   OH236062   2.413   2.701   9.855
 3956TIP3    H136063   2.481   2.704   9.788
 3956TIP3    H236064   2.459   2.722   9.937
 3957TIP3   OH236065   3.149   2.799   9.114
 3957TIP3    H136066   3.197   2.806   9.197
 3957TIP3    H236067   3.216   2.803   9.047
 3958TIP3   OH236068   2.995   3.383   9.478
 3958TIP3    H136069   3.083   3.404   9.508
 3958TIP3    H236070   2.957   3.467   9.453
 3959TIP3   OH236071   3.560   1.941   9.137
 3959TIP3    H136072   3.476   1.963   9.176
 3959TIP3    H236073   3.592   2.024   9.101
 3960TIP3   OH236074   2.313   2.706   9.295
 3960TIP3    H136075   2.290   2.791   9.257
 3960TIP3    H236076   2.237   2.680   9.345
 3961TIP3   OH236077   3.745   3.403   8.894
 3961TIP3    H136078   3.725   3.490   8.930
 3961TIP3    H236079   3.817   3.371   8.949
 3962TIP3   OH236080   2.107   3.342   9.900
 3962TIP3    H136081   2.176   3.276   9.887
 3962TIP3    H236082   2.026   3.291   9.902
 3963TIP3   OH236083   2.930   3.637   9.367
 3963TIP3    H136084   2.914   3.642   9.273
 3963TIP3    H236085   2.899   3.721   9.401
 3964TIP3   OH236086   2.263   3.565   9.502
 3964TIP3    H136087   2.292   3.524   9.583
 3964TIP3    H236088   2.205   3.501   9.462
 3965TIP3   OH236089   3.210   3.649   9.059
 3965TIP3    H136090   3.258   3.574   9.024
 3965TIP3    H236091   3.226   3.646   9.153
 3966TIP3   OH236092   3.201   3.627   9.332
 3966TIP3    H136093   3.107   3.631   9.351
 3966TIP3    H236094   3.236   3.566   9.396
 3967TIP3   OH236095   2.466   2.046   9.834
 3967TIP3    H136096   2.371   2.031   9.833
 3967TIP3    H236097   2.476   2.136   9.805
 3968TIP3   OH236098   3.327   2.792   8.903
 3968TIP3    H136099   3.295   2.805   8.813
 3968TIP3    H236100   3.408   2.842   8.907
 3969TIP3   OH236101   2.877   2.221   9.027
 3969TIP3    H136102   2.831   2.198   9.108
 3969TIP3    H236103   2.841   2.161   8.961
 3970TIP3   OH236104   2.535   2.485   9.506
 3970TIP3    H136105   2.464   2.458   9.448
 3970TIP3    H236106   2.615   2.463   9.458
 3971TIP3   OH236107   3.009   2.544   9.348
 3971TIP3    H136108   2.976   2.627   9.313
 3971TIP3    H236109   3.088   2.526   9.297
 3972TIP3   OH236110   3.149   2.502   9.582
 3972TIP3    H136111   3.098   2.527   9.505
 3972TIP3    H236112   3.195   2.423   9.556
 3973TIP3   OH236113   2.570   2.286   8.937
 3973TIP3    H136114   2.546   2.218   9.000
 3973TIP3    H236115   2.487   2.315   8.900
 3974TIP3   OH236116   2.075   2.350   9.479
 3974TIP3    H136117   2.072   2.317   9.569
 3974TIP3    H236118   2.024   2.286   9.429
 3975TIP3   OH236119   1.941   2.349   9.092
 3975TIP3    H136120   2.026   2.389   9.073
 3975TIP3    H236121   1.880   2.422   9.098
 3976TIP3   OH236122   2.770   2.268   9.636
 3976TIP3    H136123   2.687   2.261   9.683
 3976TIP3    H236124   2.828   2.205   9.678
 3977TIP3   OH236125   2.324   2.374   9.356
 3977TIP3    H136126   2.237   2.380   9.394
 3977TIP3    H236127   2.355   2.286   9.379
 3978TIP3   OH236128   2.596   2.436   9.190
 3978TIP3    H136129   2.671   2.434   9.250
 3978TIP3    H236130   2.629   2.398   9.109
 3979TIP3   OH236131   3.081   2.229   9.885
 3979TIP3    H136132   3.076   2.188   9.972
 3979TIP3    H236133   3.025   2.174   9.830
 3980TIP3   OH236134   2.460   2.600   8.971
 3980TIP3    H136135   2.431   2.548   8.896
 3980TIP3    H236136   2.546   2.633   8.946
 3981TIP3   OH236137   2.872   2.700   9.694
 3981TIP3    H136138   2.934   2.729   9.627
 3981TIP3    H236139   2.914   2.624   9.735
 3982TIP3   OH236140   2.389   2.132   9.480
 3982TIP3    H136141   2.312   2.075   9.485
 3982TIP3    H236142   2.464   2.072   9.479
 3983TIP3   OH236143   2.695   2.955   9.205
 3983TIP3    H136144   2.630   2.937   9.137
 3983TIP3    H236145   2.647   3.000   9.274
 3984TIP3   OH236146   3.135   2.243   9.117
 3984TIP3    H136147   3.047   2.255   9.080
 3984TIP3    H236148   3.164   2.332   9.139
 3985TIP3   OH236149   3.246   2.476   9.230
 3985TIP3    H136150   3.315   2.455   9.293
 3985TIP3    H236151   3.293   2.516   9.156
 3986TIP3   OH236152   2.284   2.927   9.736
 3986TIP3    H136153   2.326   2.919   9.651
 3986TIP3    H236154   2.314   2.851   9.786
 3987TIP3   OH236155   2.932   3.091   9.171
 3987TIP3    H136156   2.911   3.185   9.168
 3987TIP3    H236157   2.848   3.047   9.177
 3988TIP3   OH236158   3.645   2.562   9.171
 3988TIP3    H136159   3.563   2.556   9.121
 3988TIP3    H236160   3.677   2.650   9.153
 3989TIP3   OH236161   3.616   3.381   9.315
 3989TIP3    H136162   3.549   3.335   9.365
 3989TIP3    H236163   3.686   3.317   9.304
 3990TIP3   OH236164   3.280   2.929   9.758
 3990TIP3    H136165   3.186   2.930   9.779
 3990TIP3    H236166   3.302   2.837   9.751
 3991TIP3   OH236167   2.515   3.313   9.531
 3991TIP3    H136168   2.544   3.389   9.480
 3991TIP3    H236169   2.450   3.347   9.591
 3992TIP3   OH236170   2.131   2.759   9.006
 3992TIP3    H136171   2.169   2.827   9.063
 3992TIP3    H236172   2.037   2.768   9.018
 3993TIP3   OH236173   2.518   3.089   9.369
 3993TIP3    H136174   2.521   3.164   9.429
 3993TIP3    H236175   2.482   3.018   9.422
 3994TIP3   OH236176   2.525   3.563   9.416
 3994TIP3    H136177   2.434   3.583   9.437
 3994TIP3    H236178   2.576   3.633   9.458
 3995TIP3   OH236179   3.355   3.174   9.020
 3995TIP3    H136180   3.369   3.137   9.107
 3995TIP3    H236181   3.268   3.143   8.995
 3996TIP3   OH236182   3.690   3.645   9.004
 3996TIP3    H136183   3.719   3.716   8.946
 3996TIP3    H236184   3.617   3.683   9.053
 3997TIP3   OH236185   3.398   3.048   9.263
 3997TIP3    H136186   3.352   2.970   9.295
 3997TIP3    H236187   3.490   3.025   9.268
 3998TIP3   OH236188   2.690   3.287   8.891
 3998TIP3    H136189   2.710   3.211   8.837
 3998TIP3    H236190   2.648   3.250   8.969
 3999TIP3   OH236191   2.534   3.229   9.128
 3999TIP3    H136192   2.534   3.180   9.210
 3999TIP3    H236193   2.566   3.316   9.151
 4000TIP3   OH236194   2.241   2.949   9.183
 4000TIP3    H136195   2.181   3.013   9.219
 4000TIP3    H236196   2.321   2.998   9.164
 4001TIP3   OH236197   3.116   2.134   9.365
 4001TIP3    H136198   3.123   2.173   9.277
 4001TIP3    H236199   3.171   2.189   9.420
 4002TIP3   OH236200   2.855   3.352   9.168
 4002TIP3    H136201   2.771   3.397   9.169
 4002TIP3    H236202   2.919   3.420   9.186
 4003TIP3   OH236203   2.779   2.408   9.402
 4003TIP3    H136204   2.861   2.455   9.388
 4003TIP3    H236205   2.790   2.366   9.488
 4004TIP3   OH236206   2.890   2.019   9.457
 4004TIP3    H136207   2.903   2.025   9.552
 4004TIP3    H236208   2.972   2.053   9.420
 4005TIP3   OH236209   2.612   3.487   9.173
 4005TIP3    H136210   2.626   3.569   9.126
 4005TIP3    H236211   2.583   3.513   9.260
 4006TIP3   OH236212   2.527   2.090   9.130
 4006TIP3    H136213   2.589   2.127   9.193
 4006TIP3    H236214   2.562   2.003   9.110
 4007TIP3   OH236215   3.324   2.654   9.733
 4007TIP3    H136216   3.256   2.605   9.688
 4007TIP3    H236217   3.369   2.588   9.787
 4008TIP3   OH236218   2.309   3.314   8.999
 4008TIP3    H136219   2.314   3.406   9.025
 4008TIP3    H236220   2.384   3.273   9.042
 4009TIP3   OH236221   2.189   2.490   9.034
 4009TIP3    H136222   2.163   2.581   9.019
 4009TIP3    H236223   2.223   2.461   8.949
 4010TIP3   OH236224   3.596   3.596   9.807
 4010TIP3    H136225   3.567   3.687   9.801
 4010TIP3    H236226   3.679   3.593   9.759
 4011TIP3   OH236227   2.191   2.012   9.786
 4011TIP3    H136228   2.186   1.996   9.692
 4011TIP3    H236229   2.169   1.927   9.825
 4012TIP3   OH236230   2.063   3.404   9.391
 4012TIP3    H136231   2.012   3.426   9.469
 4012TIP3    H236232   2.033   3.466   9.324
 4013TIP3   OH236233   2.883   3.478   8.871
 4013TIP3    H136234   2.818   3.411   8.891
 4013TIP3    H236235   2.963   3.428   8.849
 4014TIP3   OH236236   3.330   3.437   8.940
 4014TIP3    H136237   3.357   3.352   8.974
 4014TIP3    H236238   3.386   3.452   8.864
 4015TIP3   OH236239   2.469   3.099   8.833
 4015TIP3    H136240   2.465   3.033   8.902
 4015TIP3    H236241   2.550   3.081   8.786
 4016TIP3   OH236242   3.099   3.102   8.944
 4016TIP3    H136243   3.045   3.085   9.021
 4016TIP3    H236244   3.067   3.042   8.877
 4017TIP3   OH236245   2.504   2.888   9.012
 4017TIP3    H136246   2.431   2.826   9.005
 4017TIP3    H236247   2.577   2.843   8.970
 4018TIP3   OH236248   2.695   2.730   8.893
 4018TIP3    H136249   2.698   2.756   8.801
 4018TIP3    H236250   2.787   2.719   8.918
 4019TIP3   OH236251   3.566   2.922   8.871
 4019TIP3    H136252   3.570   2.893   8.780
 4019TIP3    H236253   3.578   3.017   8.867
 4020TIP3   OH236254   2.685   3.729   9.068
 4020TIP3    H136255   2.776   3.704   9.083
 4020TIP3    H236256   2.689   3.801   9.006
 4021TIP3   OH236257   2.039   3.254   9.007
 4021TIP3    H136258   2.132   3.274   8.996
 4021TIP3    H236259   2.019   3.196   8.934
 4022TIP3   OH236260   1.894   3.712   9.509
 4022TIP3    H136261   1.824   3.681   9.452
 4022TIP3    H236262   1.918   3.636   9.562
 4023TIP3   OH236263   1.971   3.485   9.647
 4023TIP3    H136264   1.935   3.411   9.695
 4023TIP3    H236265   2.033   3.525   9.707
 4024TIP3   OH236266   3.665   2.995   9.287
 4024TIP3    H136267   3.728   3.066   9.297
 4024TIP3    H236268   3.695   2.928   9.350
 4025TIP3   OH236269   3.732   2.784   9.449
 4025TIP3    H136270   3.648   2.757   9.487
 4025TIP3    H236271   3.789   2.801   9.524
 4026TIP3   OH236272   3.718   3.187   9.833
 4026TIP3    H136273   3.779   3.113   9.839
 4026TIP3    H236274   3.648   3.156   9.776
 4027TIP3   OH236275   3.700   2.816   9.083
 4027TIP3    H136276   3.648   2.847   9.009
 4027TIP3    H236277   3.683   2.879   9.153
 4028TIP3   OH236278   3.411   2.556   9.027
 4028TIP3    H136279   3.382   2.627   8.970
 4028TIP3    H236280   3.417   2.480   8.971
 4029TIP3   OH236281   3.475   2.685   9.504
 4029TIP3    H136282   3.481   2.594   9.476
 4029TIP3    H236283   3.438   2.681   9.592
 4030TIP3   OH236284   1.851   2.936   9.936
 4030TIP3    H136285   1.894   2.912   9.854
 4030TIP3    H236286   1.912   2.910  10.004
 4031TIP3   OH236287   3.436   2.313   8.898
 4031TIP3    H136288   3.509   2.260   8.930
 4031TIP3    H236289   3.365   2.250   8.886
 4032TIP3   OH236290   3.491   2.436   9.368
 4032TIP3    H136291   3.523   2.346   9.366
 4032TIP3    H236292   3.549   2.484   9.310
 4033TIP3   OH236293   3.474   2.453   9.861
 4033TIP3    H136294   3.555   2.484   9.821
 4033TIP3    H236295   3.493   2.451   9.955
 4034TIP3   OH236296   3.540   2.168   9.371
 4034TIP3    H136297   3.581   2.131   9.449
 4034TIP3    H236298   3.476   2.102   9.345
 4035TIP3   OH236299   2.085   2.266   9.749
 4035TIP3    H136300   2.115   2.179   9.772
 4035TIP3    H236301   2.153   2.325   9.782
 4036TIP3   OH236302   1.878   2.447   9.806
 4036TIP3    H136303   1.934   2.370   9.798
 4036TIP3    H236304   1.933   2.519   9.776
 4037TIP3   OH236305   3.657   2.166   8.986
 4037TIP3    H136306   3.703   2.104   8.930
 4037TIP3    H236307   3.725   2.226   9.017
 4038TIP3   OH236308   1.927   2.187   9.313
 4038TIP3    H136309   1.834   2.174   9.333
 4038TIP3    H236310   1.927   2.241   9.234
 4039TIP3   OH236311   3.388   3.685   9.567
 4039TIP3    H136312   3.456   3.679   9.500
 4039TIP3    H236313   3.429   3.735   9.638
 4040TIP3   OH236314   2.154   3.600   9.829
 4040TIP3    H136315   2.128   3.525   9.882
 4040TIP3    H236316   2.240   3.576   9.793
 4041TIP3   OH236317   2.372   3.452   9.732
 4041TIP3    H136318   2.347   3.370   9.775
 4041TIP3    H236319   2.450   3.481   9.779
 4042TIP3   OH236320   2.610   3.493   9.874
 4042TIP3    H136321   2.633   3.407   9.840
 4042TIP3    H236322   2.639   3.492   9.965
 4043TIP3   OH236323   2.914   2.052   9.741
 4043TIP3    H136324   2.845   1.991   9.767
 4043TIP3    H236325   2.989   1.996   9.723
 4044TIP3   OH236326   3.487   1.970   9.755
 4044TIP3    H136327   3.559   2.007   9.705
 4044TIP3    H236328   3.433   2.045   9.779
 4045TIP3   OH236329   3.675   2.070   9.587
 4045TIP3    H136330   3.738   2.004   9.556
 4045TIP3    H236331   3.726   2.151   9.592
 4046TIP3   OH236332   2.172   1.959   9.518
 4046TIP3    H136333   2.082   1.952   9.487
 4046TIP3    H236334   2.209   1.872   9.502
 4047TIP3   OH236335   2.089   1.982   9.206
 4047TIP3    H136336   2.146   2.026   9.143
 4047TIP3    H236337   2.039   2.053   9.247
 4048TIP3   OH236338   2.617   1.975   9.519
 4048TIP3    H136339   2.704   1.996   9.483
 4048TIP3    H236340   2.635   1.948   9.609
 4049TIP3   OH236341   3.115   1.892   9.661
 4049TIP3    H136342   3.200   1.875   9.620
 4049TIP3    H236343   3.089   1.808   9.699
 4050TIP3   OH236344   3.341   1.983   9.298
 4050TIP3    H136345   3.261   2.032   9.320
 4050TIP3    H236346   3.316   1.891   9.310
 4051TIP3   OH236347   1.998   3.593   9.197
 4051TIP3    H136348   1.917   3.606   9.147
 4051TIP3    H236349   2.035   3.681   9.205
 4052TIP3   OH236350   2.276   2.077   9.014
 4052TIP3    H136351   2.303   2.010   8.950
 4052TIP3    H236352   2.353   2.087   9.071
 4053TIP3   OH236353   2.751   2.169   9.269
 4053TIP3    H136354   2.798   2.105   9.323
 4053TIP3    H236355   2.759   2.252   9.318
 4054TIP3   OH236356   2.939   3.630   9.090
 4054TIP3    H136357   3.032   3.651   9.079
 4054TIP3    H236358   2.916   3.581   9.012
 4055TIP3   OH236359   3.578   3.646   9.368
 4055TIP3    H136360   3.593   3.555   9.344
 4055TIP3    H236361   3.557   3.689   9.285
 4056TIP3   OH236362   2.157   3.590   8.969
 4056TIP3    H136363   2.105   3.573   9.048
 4056TIP3    H236364   2.205   3.670   8.990
 4057TIP3   OH236365   4.974   2.967   9.484
 4057TIP3    H136366   4.935   3.052   9.463
 4057TIP3    H236367   4.910   2.924   9.540
 4058TIP3   OH236368   4.982   2.826   9.877
 4058TIP3    H136369   4.952   2.739   9.903
 4058TIP3    H236370   4.915   2.856   9.815
 4059TIP3   OH236371   5.356   3.102   9.689
 4059TIP3    H136372   5.311   3.024   9.723
 4059TIP3    H236373   5.351   3.165   9.760
 4060TIP3   OH236374   4.204   3.227   9.850
 4060TIP3    H136375   4.194   3.133   9.833
 4060TIP3    H236376   4.296   3.237   9.874
 4061TIP3   OH236377   3.832   2.526   9.393
 4061TIP3    H136378   3.812   2.616   9.418
 4061TIP3    H236379   3.786   2.513   9.310
 4062TIP3   OH236380   3.935   2.816   9.629
 4062TIP3    H136381   3.945   2.729   9.667
 4062TIP3    H236382   4.021   2.836   9.592
 4063TIP3   OH236383   4.971   3.547   9.760
 4063TIP3    H136384   5.027   3.500   9.698
 4063TIP3    H236385   4.882   3.524   9.734
 4064TIP3   OH236386   4.618   3.029   9.896
 4064TIP3    H136387   4.659   2.997   9.816
 4064TIP3    H236388   4.615   2.953   9.954
 4065TIP3   OH236389   4.877   2.561   9.888
 4065TIP3    H136390   4.894   2.469   9.907
 4065TIP3    H236391   4.886   2.568   9.793
 4066TIP3   OH236392   4.373   2.283   9.633
 4066TIP3    H136393   4.387   2.368   9.593
 4066TIP3    H236394   4.308   2.240   9.577
 4067TIP3   OH236395   5.134   2.320   9.457
 4067TIP3    H136396   5.132   2.321   9.553
 4067TIP3    H236397   5.206   2.379   9.434
 4068TIP3   OH236398   3.983   2.563   9.712
 4068TIP3    H136399   4.045   2.534   9.779
 4068TIP3    H236400   4.017   2.527   9.631
 4069TIP3   OH236401   4.444   2.751   9.618
 4069TIP3    H136402   4.537   2.775   9.618
 4069TIP3    H236403   4.441   2.668   9.570
 4070TIP3   OH236404   4.838   3.206   9.428
 4070TIP3    H136405   4.839   3.237   9.337
 4070TIP3    H236406   4.833   3.286   9.480
 4071TIP3   OH236407   5.138   2.314   9.730
 4071TIP3    H136408   5.067   2.303   9.793
 4071TIP3    H236409   5.210   2.352   9.780
 4072TIP3   OH236410   4.217   2.458   9.830
 4072TIP3    H136411   4.259   2.539   9.858
 4072TIP3    H236412   4.286   2.411   9.783
 4073TIP3   OH236413   3.846   3.206   9.285
 4073TIP3    H136414   3.867   3.230   9.194
 4073TIP3    H236415   3.889   3.273   9.338
 4074TIP3   OH236416   5.362   3.330   9.860
 4074TIP3    H136417   5.271   3.324   9.890
 4074TIP3    H236418   5.385   3.422   9.874
 4075TIP3   OH236419   4.593   1.891   9.829
 4075TIP3    H136420   4.560   1.804   9.854
 4075TIP3    H236421   4.515   1.947   9.832
 4076TIP3   OH236422   5.122   3.454   9.538
 4076TIP3    H136423   5.178   3.379   9.518
 4076TIP3    H236424   5.184   3.526   9.555
 4077TIP3   OH236425   5.291   3.248   9.465
 4077TIP3    H136426   5.277   3.186   9.394
 4077TIP3    H236427   5.315   3.194   9.540
 4078TIP3   OH236428   4.828   2.770   9.176
 4078TIP3    H136429   4.808   2.864   9.179
 4078TIP3    H236430   4.918   2.766   9.145
 4079TIP3   OH236431   4.964   2.679   8.853
 4079TIP3    H136432   4.992   2.715   8.937
 4079TIP3    H236433   5.019   2.601   8.841
 4080TIP3   OH236434   5.179   2.866   9.335
 4080TIP3    H136435   5.107   2.897   9.391
 4080TIP3    H236436   5.230   2.808   9.391
 4081TIP3   OH236437   4.197   2.843   9.545
 4081TIP3    H136438   4.188   2.816   9.453
 4081TIP3    H236439   4.286   2.818   9.568
 4082TIP3   OH236440   4.482   3.267   9.863
 4082TIP3    H136441   4.483   3.270   9.767
 4082TIP3    H236442   4.531   3.189   9.886
 4083TIP3   OH236443   4.355   2.707   9.872
 4083TIP3    H136444   4.380   2.724   9.781
 4083TIP3    H236445   4.438   2.707   9.920
 4084TIP3   OH236446   5.096   2.758   9.097
 4084TIP3    H136447   5.123   2.801   9.178
 4084TIP3    H236448   5.165   2.779   9.035
 4085TIP3   OH236449   4.849   3.468   9.511
 4085TIP3    H136450   4.944   3.462   9.512
 4085TIP3    H236451   4.830   3.541   9.452
 4086TIP3   OH236452   5.435   1.915   9.139
 4086TIP3    H136453   5.359   1.948   9.187
 4086TIP3    H236454   5.478   1.993   9.106
 4087TIP3   OH236455   4.159   2.766   9.277
 4087TIP3    H136456   4.112   2.845   9.251
 4087TIP3    H236457   4.113   2.695   9.231
 4088TIP3   OH236458   5.644   3.330   9.088
 4088TIP3    H136459   5.633   3.425   9.090
 4088TIP3    H236460   5.713   3.315   9.023
 4089TIP3   OH236461   3.946   3.360   9.856
 4089TIP3    H136462   4.025   3.307   9.859
 4089TIP3    H236463   3.874   3.297   9.864
 4090TIP3   OH236464   4.865   3.686   9.337
 4090TIP3    H136465   4.850   3.680   9.243
 4090TIP3    H236466   4.815   3.763   9.365
 4091TIP3   OH236467   4.175   3.569   9.489
 4091TIP3    H136468   4.200   3.538   9.576
 4091TIP3    H236469   4.109   3.506   9.459
 4092TIP3   OH236470   5.145   3.639   9.019
 4092TIP3    H136471   5.177   3.557   8.981
 4092TIP3    H236472   5.153   3.627   9.113
 4093TIP3   OH236473   5.126   3.613   9.293
 4093TIP3    H136474   5.036   3.639   9.311
 4093TIP3    H236475   5.143   3.540   9.353
 4094TIP3   OH236476   4.377   2.058   9.803
 4094TIP3    H136477   4.285   2.034   9.802
 4094TIP3    H236478   4.382   2.140   9.754
 4095TIP3   OH236479   5.293   2.816   8.921
 4095TIP3    H136480   5.257   2.819   8.832
 4095TIP3    H236481   5.384   2.843   8.911
 4096TIP3   OH236482   4.720   2.252   8.990
 4096TIP3    H136483   4.646   2.284   9.042
 4096TIP3    H236484   4.691   2.167   8.959
 4097TIP3   OH236485   4.361   2.519   9.491
 4097TIP3    H136486   4.265   2.516   9.486
 4097TIP3    H236487   4.390   2.509   9.401
 4098TIP3   OH236488   4.868   2.546   9.346
 4098TIP3    H136489   4.839   2.625   9.301
 4098TIP3    H236490   4.946   2.518   9.298
 4099TIP3   OH236491   4.922   2.601   9.616
 4099TIP3    H136492   4.868   2.679   9.624
 4099TIP3    H236493   4.905   2.569   9.528
 4100TIP3   OH236494   4.425   2.259   8.927
 4100TIP3    H136495   4.383   2.268   9.012
 4100TIP3    H236496   4.373   2.314   8.868
 4101TIP3   OH236497   3.806   2.306   9.581
 4101TIP3    H136498   3.879   2.303   9.642
 4101TIP3    H236499   3.820   2.386   9.530
 4102TIP3   OH236500   3.832   2.376   9.089
 4102TIP3    H136501   3.913   2.425   9.076
 4102TIP3    H236502   3.765   2.443   9.104
 4103TIP3   OH236503   4.656   2.215   9.606
 4103TIP3    H136504   4.564   2.229   9.629
 4103TIP3    H236505   4.696   2.183   9.686
 4104TIP3   OH236506   4.089   2.457   9.478
 4104TIP3    H136507   4.009   2.472   9.429
 4104TIP3    H236508   4.106   2.363   9.470
 4105TIP3   OH236509   4.461   2.467   9.240
 4105TIP3    H136510   4.538   2.422   9.274
 4105TIP3    H236511   4.496   2.535   9.182
 4106TIP3   OH236512   4.934   2.289   9.921
 4106TIP3    H136513   4.942   2.255  10.010
 4106TIP3    H236514   4.878   2.225   9.876
 4107TIP3   OH236515   4.255   2.623   8.910
 4107TIP3    H136516   4.257   2.544   8.856
 4107TIP3    H236517   4.336   2.669   8.889
 4108TIP3   OH236518   4.634   2.716   9.925
 4108TIP3    H136519   4.658   2.757   9.842
 4108TIP3    H236520   4.705   2.654   9.942
 4109TIP3   OH236521   4.183   2.195   9.443
 4109TIP3    H136522   4.136   2.114   9.458
 4109TIP3    H236523   4.206   2.192   9.350
 4110TIP3   OH236524   4.518   3.074   9.221
 4110TIP3    H136525   4.460   3.003   9.194
 4110TIP3    H236526   4.532   3.058   9.315
 4111TIP3   OH236527   4.982   2.263   9.071
 4111TIP3    H136528   4.890   2.273   9.046
 4111TIP3    H236529   5.009   2.350   9.100
 4112TIP3   OH236530   5.091   2.493   9.186
 4112TIP3    H136531   5.177   2.475   9.222
 4112TIP3    H236532   5.100   2.578   9.143
 4113TIP3   OH236533   4.188   2.948   9.811
 4113TIP3    H136534   4.193   2.926   9.718
 4113TIP3    H236535   4.238   2.879   9.855
 4114TIP3   OH236536   4.781   3.048   9.141
 4114TIP3    H136537   4.804   3.139   9.159
 4114TIP3    H236538   4.686   3.043   9.155
 4115TIP3   OH236539   5.553   2.556   9.131
 4115TIP3    H136540   5.517   2.527   9.047
 4115TIP3    H236541   5.571   2.650   9.119
 4116TIP3   OH236542   5.448   3.402   9.296
 4116TIP3    H136543   5.394   3.346   9.351
 4116TIP3    H236544   5.482   3.344   9.228
 4117TIP3   OH236545   5.243   2.869   9.801
 4117TIP3    H136546   5.156   2.877   9.841
 4117TIP3    H236547   5.236   2.792   9.744
 4118TIP3   OH236548   4.475   3.289   9.594
 4118TIP3    H136549   4.473   3.360   9.529
 4118TIP3    H236550   4.511   3.214   9.546
 4119TIP3   OH236551   3.949   2.862   8.982
 4119TIP3    H136552   3.991   2.910   9.053
 4119TIP3    H236553   3.862   2.840   9.016
 4120TIP3   OH236554   4.606   3.068   9.482
 4120TIP3    H136555   4.689   3.111   9.463
 4120TIP3    H236556   4.630   2.995   9.539
 4121TIP3   OH236557   4.449   3.521   9.433
 4121TIP3    H136558   4.355   3.541   9.436
 4121TIP3    H236559   4.491   3.598   9.471
 4122TIP3   OH236560   5.224   3.156   8.992
 4122TIP3    H136561   5.241   3.131   9.082
 4122TIP3    H236562   5.144   3.110   8.968
 4123TIP3   OH236563   5.641   3.604   9.077
 4123TIP3    H136564   5.672   3.615   8.987
 4123TIP3    H236565   5.569   3.667   9.085
 4124TIP3   OH236566   5.315   3.082   9.243
 4124TIP3    H136567   5.265   3.005   9.269
 4124TIP3    H236568   5.406   3.053   9.246
 4125TIP3   OH236569   4.518   3.362   8.877
 4125TIP3    H136570   4.533   3.276   8.838
 4125TIP3    H236571   4.485   3.343   8.965
 4126TIP3   OH236572   4.441   3.322   9.137
 4126TIP3    H136573   4.473   3.238   9.170
 4126TIP3    H236574   4.502   3.386   9.173
 4127TIP3   OH236575   4.038   3.005   9.202
 4127TIP3    H136576   3.973   3.052   9.254
 4127TIP3    H236577   4.104   3.071   9.179
 4128TIP3   OH236578   4.993   2.139   9.317
 4128TIP3    H136579   4.983   2.175   9.229
 4128TIP3    H236580   5.033   2.210   9.368
 4129TIP3   OH236581   4.819   3.321   9.178
 4129TIP3    H136582   4.756   3.392   9.188
 4129TIP3    H236583   4.867   3.343   9.098
 4130TIP3   OH236584   4.681   2.342   9.360
 4130TIP3    H136585   4.748   2.409   9.359
 4130TIP3    H236586   4.678   2.312   9.451
 4131TIP3   OH236587   4.773   2.027   9.437
 4131TIP3    H136588   4.736   2.100   9.488
 4131TIP3    H236589   4.849   2.065   9.394
 4132TIP3   OH236590   4.621   3.517   9.218
 4132TIP3    H136591   4.613   3.606   9.184
 4132TIP3    H236592   4.571   3.518   9.300
 4133TIP3   OH236593   4.297   2.251   9.177
 4133TIP3    H136594   4.324   2.339   9.202
 4133TIP3    H236595   4.373   2.196   9.197
 4134TIP3   OH236596   5.193   2.626   9.676
 4134TIP3    H136597   5.099   2.613   9.660
 4134TIP3    H236598   5.216   2.561   9.742
 4135TIP3   OH236599   4.182   3.225   9.105
 4135TIP3    H136600   4.250   3.282   9.143
 4135TIP3    H236601   4.227   3.178   9.035
 4136TIP3   OH236602   4.030   2.602   9.069
 4136TIP3    H136603   4.115   2.590   9.025
 4136TIP3    H236604   3.992   2.679   9.027
 4137TIP3   OH236605   5.422   3.600   9.923
 4137TIP3    H136606   5.403   3.674   9.866
 4137TIP3    H236607   5.383   3.624  10.007
 4138TIP3   OH236608   4.108   2.003   9.765
 4138TIP3    H136609   4.091   1.992   9.672
 4138TIP3    H236610   4.076   1.923   9.806
 4139TIP3   OH236611   3.938   3.432   9.418
 4139TIP3    H136612   3.890   3.469   9.492
 4139TIP3    H236613   3.916   3.488   9.344
 4140TIP3   OH236614   4.751   3.509   8.877
 4140TIP3    H136615   4.667   3.463   8.879
 4140TIP3    H236616   4.817   3.440   8.886
 4141TIP3   OH236617   5.227   3.412   8.897
 4141TIP3    H136618   5.237   3.321   8.922
 4141TIP3    H236619   5.297   3.427   8.832
 4142TIP3   OH236620   4.316   3.084   8.921
 4142TIP3    H136621   4.328   3.007   8.977
 4142TIP3    H236622   4.398   3.091   8.872
 4143TIP3   OH236623   4.963   3.060   8.934
 4143TIP3    H136624   4.905   3.046   9.008
 4143TIP3    H236625   4.923   3.010   8.862
 4144TIP3   OH236626   4.360   2.880   9.107
 4144TIP3    H136627   4.310   2.820   9.162
 4144TIP3    H236628   4.411   2.822   9.050
 4145TIP3   OH236629   4.588   2.655   9.083
 4145TIP3    H136630   4.577   2.687   8.994
 4145TIP3    H236631   4.670   2.692   9.113
 4146TIP3   OH236632   5.547   2.919   8.838
 4146TIP3    H136633   5.529   2.906   8.745
 4146TIP3    H236634   5.520   3.009   8.855
 4147TIP3   OH236635   4.636   3.785   9.119
 4147TIP3    H136636   4.724   3.755   9.097
 4147TIP3    H236637   4.605   3.828   9.039
 4148TIP3   OH236638   3.924   3.241   9.020
 4148TIP3    H136639   4.017   3.247   9.045
 4148TIP3    H236640   3.922   3.174   8.952
 4149TIP3   OH236641   3.795   3.752   9.496
 4149TIP3    H136642   3.729   3.718   9.436
 4149TIP3    H236643   3.810   3.682   9.559
 4150TIP3   OH236644   3.848   3.549   9.672
 4150TIP3    H136645   3.851   3.463   9.714
 4150TIP3    H236646   3.916   3.600   9.717
 4151TIP3   OH236647   5.578   3.001   9.272
 4151TIP3    H136648   5.646   3.066   9.291
 4151TIP3    H236649   5.586   2.937   9.343
 4152TIP3   OH236650   5.596   2.799   9.458
 4152TIP3    H136651   5.507   2.764   9.464
 4152TIP3    H236652   5.627   2.805   9.548
 4153TIP3   OH236653   5.628   3.289   9.766
 4153TIP3    H136654   5.650   3.196   9.761
 4153TIP3    H236655   5.533   3.290   9.781
 4154TIP3   OH236656   5.629   2.813   9.075
 4154TIP3    H136657   5.600   2.846   8.990
 4154TIP3    H236658   5.606   2.883   9.137
 4155TIP3   OH236659   5.474   2.474   8.888
 4155TIP3    H136660   5.439   2.525   8.815
 4155TIP3    H236661   5.443   2.385   8.872
 4156TIP3   OH236662   5.349   2.683   9.462
 4156TIP3    H136663   5.348   2.602   9.412
 4156TIP3    H236664   5.297   2.663   9.541
 4157TIP3   OH236665   3.910   2.987   9.839
 4157TIP3    H136666   3.905   2.936   9.758
 4157TIP3    H236667   4.003   2.991   9.859
 4158TIP3   OH236668   5.371   2.224   8.841
 4158TIP3    H136669   5.410   2.181   8.917
 4158TIP3    H236670   5.278   2.201   8.846
 4159TIP3   OH236671   5.356   2.448   9.309
 4159TIP3    H136672   5.386   2.360   9.331
 4159TIP3    H236673   5.422   2.482   9.248
 4160TIP3   OH236674   5.323   2.463   9.869
 4160TIP3    H136675   5.408   2.498   9.842
 4160TIP3    H236676   5.330   2.453   9.964
 4161TIP3   OH236677   5.433   2.187   9.384
 4161TIP3    H136678   5.448   2.157   9.474
 4161TIP3    H236679   5.365   2.129   9.350
 4162TIP3   OH236680   4.019   2.267   9.753
 4162TIP3    H136681   4.049   2.178   9.769
 4162TIP3    H236682   4.085   2.323   9.794
 4163TIP3   OH236683   3.709   2.575   9.796
 4163TIP3    H136684   3.798   2.554   9.766
 4163TIP3    H236685   3.720   2.652   9.852
 4164TIP3   OH236686   5.560   2.126   9.020
 4164TIP3    H136687   5.607   2.082   8.949
 4164TIP3    H236688   5.621   2.194   9.050
 4165TIP3   OH236689   3.808   2.159   9.261
 4165TIP3    H136690   3.721   2.169   9.300
 4165TIP3    H236691   3.822   2.240   9.212
 4166TIP3   OH236692   5.276   3.676   9.570
 4166TIP3    H136693   5.342   3.680   9.501
 4166TIP3    H236694   5.314   3.725   9.643
 4167TIP3   OH236695   4.047   3.629   9.845
 4167TIP3    H136696   4.005   3.557   9.891
 4167TIP3    H236697   4.127   3.592   9.809
 4168TIP3   OH236698   4.254   3.487   9.740
 4168TIP3    H136699   4.241   3.395   9.760
 4168TIP3    H236700   4.343   3.506   9.770
 4169TIP3   OH236701   4.495   3.542   9.893
 4169TIP3    H136702   4.510   3.448   9.879
 4169TIP3    H236703   4.475   3.549   9.986
 4170TIP3   OH236704   4.798   2.077   9.809
 4170TIP3    H136705   4.733   2.008   9.825
 4170TIP3    H236706   4.880   2.029   9.793
 4171TIP3   OH236707   5.337   1.905   9.758
 4171TIP3    H136708   5.392   1.975   9.722
 4171TIP3    H236709   5.250   1.944   9.763
 4172TIP3   OH236710   5.518   2.066   9.621
 4172TIP3    H136711   5.571   1.999   9.578
 4172TIP3    H236712   5.581   2.133   9.649
 4173TIP3   OH236713   4.059   1.951   9.499
 4173TIP3    H136714   3.968   1.930   9.478
 4173TIP3    H236715   4.105   1.868   9.490
 4174TIP3   OH236716   3.988   1.983   9.154
 4174TIP3    H136717   4.029   2.042   9.090
 4174TIP3    H236718   3.926   2.039   9.202
 4175TIP3   OH236719   4.583   1.862   9.553
 4175TIP3    H136720   4.647   1.920   9.511
 4175TIP3    H236721   4.594   1.877   9.647
 4176TIP3   OH236722   5.066   1.990   9.734
 4176TIP3    H136723   5.064   2.047   9.656
 4176TIP3    H236724   5.031   1.907   9.704
 4177TIP3   OH236725   5.233   2.003   9.304
 4177TIP3    H136726   5.154   2.056   9.308
 4177TIP3    H236727   5.203   1.913   9.315
 4178TIP3   OH236728   3.880   3.590   9.204
 4178TIP3    H136729   3.809   3.592   9.140
 4178TIP3    H236730   3.927   3.671   9.191
 4179TIP3   OH236731   4.122   2.155   8.976
 4179TIP3    H136732   4.181   2.100   8.925
 4179TIP3    H236733   4.176   2.191   9.046
 4180TIP3   OH236734   4.539   2.140   9.222
 4180TIP3    H136735   4.576   2.053   9.215
 4180TIP3    H236736   4.603   2.189   9.274
 4181TIP3   OH236737   4.874   3.675   9.057
 4181TIP3    H136738   4.968   3.669   9.037
 4181TIP3    H236739   4.831   3.621   8.991
 4182TIP3   OH236740   5.464   3.663   9.364
 4182TIP3    H136741   5.458   3.570   9.341
 4182TIP3    H236742   5.460   3.709   9.280
 4183TIP3   OH236743   4.074   3.598   8.916
 4183TIP3    H136744   4.079   3.606   9.012
 4183TIP3    H236745   4.158   3.561   8.891
 4184TIP3   OH236746   6.896   2.892   9.526
 4184TIP3    H136747   6.866   2.983   9.524
 4184TIP3    H236748   6.840   2.846   9.464
 4185TIP3   OH236749   6.647   2.745   9.853
 4185TIP3    H136750   6.687   2.661   9.876
 4185TIP3    H236751   6.574   2.721   9.795
 4186TIP3   OH236752   6.999   3.118   9.697
 4186TIP3    H136753   6.954   3.156   9.622
 4186TIP3    H236754   7.060   3.186   9.726
 4187TIP3   OH236755   6.121   3.269   9.873
 4187TIP3    H136756   6.044   3.213   9.863
 4187TIP3    H236757   6.139   3.268   9.967
 4188TIP3   OH236758   5.758   2.621   9.323
 4188TIP3    H136759   5.699   2.683   9.367
 4188TIP3    H236760   5.706   2.585   9.251
 4189TIP3   OH236761   5.815   2.804   9.656
 4189TIP3    H136762   5.823   2.714   9.687
 4189TIP3    H236763   5.863   2.806   9.573
 4190TIP3   OH236764   6.951   3.563   9.790
 4190TIP3    H136765   6.942   3.504   9.716
 4190TIP3    H236766   7.042   3.552   9.818
 4191TIP3   OH236767   6.597   3.022   9.825
 4191TIP3    H136768   6.606   2.928   9.837
 4191TIP3    H236769   6.687   3.056   9.834
 4192TIP3   OH236770   6.725   2.479   9.863
 4192TIP3    H136771   6.765   2.404   9.906
 4192TIP3    H236772   6.763   2.479   9.775
 4193TIP3   OH236773   6.250   2.307   9.582
 4193TIP3    H136774   6.231   2.397   9.556
 4193TIP3    H236775   6.186   2.254   9.535
 4194TIP3   OH236776   7.044   2.312   9.532
 4194TIP3    H136777   7.085   2.306   9.618
 4194TIP3    H236778   7.109   2.356   9.477
 4195TIP3   OH236779   5.829   2.536   9.725
 4195TIP3    H136780   5.861   2.465   9.781
 4195TIP3    H236781   5.849   2.508   9.636
 4196TIP3   OH236782   6.289   2.714   9.699
 4196TIP3    H136783   6.351   2.651   9.736
 4196TIP3    H236784   6.237   2.663   9.636
 4197TIP3   OH236785   6.810   3.147   9.484
 4197TIP3    H136786   6.807   3.145   9.389
 4197TIP3    H236787   6.759   3.224   9.508
 4198TIP3   OH236788   7.103   2.275   9.804
 4198TIP3    H136789   7.017   2.283   9.846
 4198TIP3    H236790   7.126   2.183   9.814
 4199TIP3   OH236791   6.236   2.341   9.852
 4199TIP3    H136792   6.298   2.413   9.865
 4199TIP3    H236793   6.235   2.327   9.757
 4200TIP3   OH236794   5.779   3.194   9.288
 4200TIP3    H136795   5.729   3.242   9.222
 4200TIP3    H236796   5.829   3.262   9.334
 4201TIP3   OH236797   7.198   3.291   9.766
 4201TIP3    H136798   7.274   3.248   9.805
 4201TIP3    H236799   7.208   3.383   9.790
 4202TIP3   OH236800   6.477   1.889   9.794
 4202TIP3    H136801   6.449   1.805   9.828
 4202TIP3    H236802   6.405   1.948   9.813
 4203TIP3   OH236803   6.949   3.453   9.524
 4203TIP3    H136804   7.006   3.380   9.498
 4203TIP3    H236805   7.009   3.528   9.531
 4204TIP3   OH236806   7.127   3.256   9.463
 4204TIP3    H136807   7.175   3.214   9.391
 4204TIP3    H236808   7.179   3.237   9.541
 4205TIP3   OH236809   6.743   2.820   9.305
 4205TIP3    H136810   6.667   2.875   9.288
 4205TIP3    H236811   6.801   2.835   9.230
 4206TIP3   OH236812   6.809   2.706   8.943
 4206TIP3    H136813   6.869   2.723   9.016
 4206TIP3    H236814   6.856   2.644   8.888
 4207TIP3   OH236815   7.123   2.877   9.364
 4207TIP3    H136816   7.047   2.892   9.421
 4207TIP3    H236817   7.168   2.802   9.402
 4208TIP3   OH236818   6.169   2.930   9.542
 4208TIP3    H136819   6.094   2.890   9.498
 4208TIP3    H236820   6.216   2.857   9.582
 4209TIP3   OH236821   6.414   3.169   9.679
 4209TIP3    H136822   6.474   3.215   9.621
 4209TIP3    H236823   6.471   3.117   9.735
 4210TIP3   OH236824   6.240   2.948   9.837
 4210TIP3    H136825   6.253   2.863   9.795
 4210TIP3    H236826   6.292   2.943   9.918
 4211TIP3   OH236827   6.996   2.771   9.139
 4211TIP3    H136828   7.046   2.811   9.210
 4211TIP3    H236829   7.043   2.796   9.060
 4212TIP3   OH236830   6.677   3.386   9.518
 4212TIP3    H136831   6.762   3.428   9.533
 4212TIP3    H236832   6.658   3.404   9.426
 4213TIP3   OH236833   7.348   1.878   9.140
 4213TIP3    H136834   7.259   1.902   9.167
 4213TIP3    H236835   7.386   1.959   9.106
 4214TIP3   OH236836   5.952   2.808   9.410
 4214TIP3    H136837   5.952   2.871   9.338
 4214TIP3    H236838   5.905   2.732   9.377
 4215TIP3   OH236839   7.570   3.368   9.040
 4215TIP3    H136840   7.575   3.463   9.036
 4215TIP3    H236841   7.661   3.339   9.030
 4216TIP3   OH236842   5.691   3.516   9.913
 4216TIP3    H136843   5.676   3.428   9.880
 4216TIP3    H236844   5.603   3.552   9.926
 4217TIP3   OH236845   6.688   3.709   9.343
 4217TIP3    H136846   6.620   3.709   9.275
 4217TIP3    H236847   6.677   3.793   9.388
 4218TIP3   OH236848   6.038   3.646   9.542
 4218TIP3    H136849   6.040   3.632   9.637
 4218TIP3    H236850   5.984   3.574   9.509
 4219TIP3   OH236851   6.994   3.621   9.009
 4219TIP3    H136852   7.051   3.548   8.984
 4219TIP3    H236853   6.991   3.618   9.105
 4220TIP3   OH236854   6.937   3.614   9.279
 4220TIP3    H136855   6.849   3.648   9.294
 4220TIP3    H236856   6.950   3.548   9.347
 4221TIP3   OH236857   6.272   2.063   9.838
 4221TIP3    H136858   6.182   2.038   9.815
 4221TIP3    H236859   6.264   2.154   9.868
 4222TIP3   OH236860   7.110   2.835   8.901
 4222TIP3    H136861   7.077   2.851   8.813
 4222TIP3    H236862   7.202   2.860   8.898
 4223TIP3   OH236863   6.645   2.181   9.030
 4223TIP3    H136864   6.577   2.197   9.095
 4223TIP3    H236865   6.607   2.115   8.972
 4224TIP3   OH236866   6.166   2.562   9.512
 4224TIP3    H136867   6.073   2.538   9.508
 4224TIP3    H236868   6.198   2.548   9.424
 4225TIP3   OH236869   6.752   2.554   9.367
 4225TIP3    H136870   6.738   2.647   9.349
 4225TIP3    H236871   6.819   2.526   9.305
 4226TIP3   OH236872   6.839   2.477   9.614
 4226TIP3    H136873   6.801   2.509   9.533
 4226TIP3    H236874   6.903   2.412   9.587
 4227TIP3   OH236875   6.334   2.248   8.924
 4227TIP3    H136876   6.290   2.240   9.009
 4227TIP3    H236877   6.285   2.317   8.879
 4228TIP3   OH236878   5.734   2.230   9.637
 4228TIP3    H136879   5.814   2.263   9.679
 4228TIP3    H236880   5.755   2.230   9.543
 4229TIP3   OH236881   5.721   2.335   9.111
 4229TIP3    H136882   5.802   2.373   9.078
 4229TIP3    H236883   5.658   2.407   9.109
 4230TIP3   OH236884   6.523   2.272   9.636
 4230TIP3    H136885   6.430   2.251   9.628
 4230TIP3    H236886   6.557   2.207   9.697
 4231TIP3   OH236887   5.917   2.454   9.478
 4231TIP3    H136888   5.859   2.490   9.411
 4231TIP3    H236889   5.942   2.368   9.444
 4232TIP3   OH236890   6.283   2.478   9.282
 4232TIP3    H136891   6.369   2.456   9.316
 4232TIP3    H236892   6.300   2.515   9.195
 4233TIP3   OH236893   6.845   2.232   9.915
 4233TIP3    H136894   6.847   2.183   9.998
 4233TIP3    H236895   6.790   2.179   9.857
 4234TIP3   OH236896   6.344   2.571   9.035
 4234TIP3    H136897   6.293   2.533   8.963
 4234TIP3    H236898   6.420   2.610   8.993
 4235TIP3   OH236899   6.465   2.511   9.778
 4235TIP3    H136900   6.472   2.442   9.712
 4235TIP3    H236901   6.544   2.502   9.831
 4236TIP3   OH236902   6.048   2.209   9.418
 4236TIP3    H136903   6.004   2.128   9.445
 4236TIP3    H236904   6.076   2.192   9.328
 4237TIP3   OH236905   6.520   2.985   9.252
 4237TIP3    H136906   6.463   2.942   9.188
 4237TIP3    H236907   6.459   3.032   9.310
 4238TIP3   OH236908   6.885   2.236   9.142
 4238TIP3    H136909   6.800   2.228   9.099
 4238TIP3    H236910   6.904   2.329   9.142
 4239TIP3   OH236911   6.963   2.499   9.201
 4239TIP3    H136912   7.046   2.472   9.241
 4239TIP3    H236913   6.981   2.588   9.170
 4240TIP3   OH236914   5.966   3.066   9.776
 4240TIP3    H136915   5.871   3.073   9.772
 4240TIP3    H236916   5.983   2.973   9.793
 4241TIP3   OH236917   6.743   3.142   9.211
 4241TIP3    H136918   6.713   3.233   9.213
 4241TIP3    H236919   6.662   3.090   9.217
 4242TIP3   OH236920   7.362   2.556   9.151
 4242TIP3    H136921   7.342   2.525   9.063
 4242TIP3    H236922   7.378   2.650   9.141
 4243TIP3   OH236923   7.387   3.361   9.252
 4243TIP3    H136924   7.353   3.271   9.257
 4243TIP3    H236925   7.452   3.358   9.181
 4244TIP3   OH236926   6.866   2.904   9.907
 4244TIP3    H136927   6.795   2.842   9.893
 4244TIP3    H236928   6.873   2.911  10.002
 4245TIP3   OH236929   6.154   3.301   9.523
 4245TIP3    H136930   6.204   3.382   9.527
 4245TIP3    H236931   6.071   3.325   9.483
 4246TIP3   OH236932   5.898   2.770   9.026
 4246TIP3    H136933   5.931   2.841   9.082
 4246TIP3    H236934   5.803   2.774   9.036
 4247TIP3   OH236935   6.307   3.112   9.383
 4247TIP3    H136936   6.262   3.186   9.424
 4247TIP3    H236937   6.264   3.035   9.420
 4248TIP3   OH236938   6.296   3.590   9.482
 4248TIP3    H136939   6.204   3.612   9.494
 4248TIP3    H236940   6.341   3.675   9.477
 4249TIP3   OH236941   7.181   3.182   9.039
 4249TIP3    H136942   7.205   3.149   9.126
 4249TIP3    H236943   7.092   3.151   9.025
 4250TIP3   OH236944   7.571   3.648   9.048
 4250TIP3    H136945   7.568   3.699   8.967
 4250TIP3    H236946   7.495   3.679   9.098
 4251TIP3   OH236947   7.277   3.093   9.285
 4251TIP3    H136948   7.223   3.018   9.308
 4251TIP3    H236949   7.367   3.061   9.290
 4252TIP3   OH236950   6.474   3.245   8.911
 4252TIP3    H136951   6.459   3.167   8.856
 4252TIP3    H236952   6.427   3.226   8.992
 4253TIP3   OH236953   6.325   3.243   9.140
 4253TIP3    H136954   6.323   3.191   9.221
 4253TIP3    H236955   6.341   3.332   9.170
 4254TIP3   OH236956   5.945   2.990   9.202
 4254TIP3    H136957   5.879   3.050   9.235
 4254TIP3    H236958   6.001   3.044   9.146
 4255TIP3   OH236959   6.906   2.124   9.386
 4255TIP3    H136960   6.898   2.162   9.299
 4255TIP3    H236961   6.954   2.191   9.436
 4256TIP3   OH236962   6.647   3.398   9.238
 4256TIP3    H136963   6.554   3.421   9.237
 4256TIP3    H236964   6.688   3.461   9.179
 4257TIP3   OH236965   6.525   2.404   9.391
 4257TIP3    H136966   6.603   2.459   9.380
 4257TIP3    H236967   6.530   2.373   9.481
 4258TIP3   OH236968   6.632   2.092   9.443
 4258TIP3    H136969   6.616   2.164   9.504
 4258TIP3    H236970   6.723   2.103   9.417
 4259TIP3   OH236971   6.387   3.490   9.242
 4259TIP3    H136972   6.409   3.571   9.194
 4259TIP3    H236973   6.353   3.521   9.326
 4260TIP3   OH236974   6.200   2.232   9.173
 4260TIP3    H136975   6.200   2.322   9.207
 4260TIP3    H236976   6.285   2.197   9.200
 4261TIP3   OH236977   6.995   2.664   9.746
 4261TIP3    H136978   6.935   2.605   9.701
 4261TIP3    H236979   7.077   2.614   9.751
 4262TIP3   OH236980   6.080   3.162   9.035
 4262TIP3    H136981   6.157   3.211   9.066
 4262TIP3    H236982   6.116   3.102   8.970
 4263TIP3   OH236983   5.929   2.490   9.025
 4263TIP3    H136984   5.925   2.584   9.044
 4263TIP3    H236985   5.957   2.485   8.934
 4264TIP3   OH236986   7.238   3.562   9.826
 4264TIP3    H136987   7.219   3.655   9.812
 4264TIP3    H236988   7.333   3.556   9.826
 4265TIP3   OH236989   6.005   2.026   9.772
 4265TIP3    H136990   5.983   2.020   9.679
 4265TIP3    H236991   5.966   1.947   9.811
 4266TIP3   OH236992   5.917   3.418   9.411
 4266TIP3    H136993   5.847   3.437   9.474
 4266TIP3    H236994   5.904   3.481   9.340
 4267TIP3   OH236995   6.666   3.418   8.829
 4267TIP3    H136996   6.602   3.352   8.856
 4267TIP3    H236997   6.746   3.368   8.812
 4268TIP3   OH236998   7.144   3.418   8.905
 4268TIP3    H136999   7.167   3.342   8.959
 4268TIP3    H237000   7.210   3.420   8.836
 4269TIP3   OH237001   6.203   2.979   8.877
 4269TIP3    H137002   6.241   2.930   8.950
 4269TIP3    H237003   6.278   3.003   8.822
 4270TIP3   OH237004   6.917   3.116   8.995
 4270TIP3    H137005   6.857   3.121   9.070
 4270TIP3    H237006   6.877   3.051   8.937
 4271TIP3   OH237007   6.350   2.852   9.077
 4271TIP3    H137008   6.304   2.772   9.102
 4271TIP3    H237009   6.421   2.822   9.021
 4272TIP3   OH237010   6.537   2.733   8.920
 4272TIP3    H137011   6.530   2.758   8.828
 4272TIP3    H237012   6.631   2.719   8.934
 4273TIP3   OH237013   7.373   2.926   8.857
 4273TIP3    H137014   7.353   2.909   8.765
 4273TIP3    H237015   7.387   3.021   8.862
 4274TIP3   OH237016   6.506   3.716   9.131
 4274TIP3    H137017   6.580   3.672   9.090
 4274TIP3    H237018   6.478   3.781   9.066
 4275TIP3   OH237019   5.854   3.268   8.920
 4275TIP3    H137020   5.932   3.236   8.965
 4275TIP3    H237021   5.825   3.194   8.866
 4276TIP3   OH237022   5.679   3.738   9.510
 4276TIP3    H137023   5.607   3.714   9.451
 4276TIP3    H237024   5.706   3.655   9.550
 4277TIP3   OH237025   5.760   3.494   9.623
 4277TIP3    H137026   5.707   3.422   9.657
 4277TIP3    H237027   5.785   3.544   9.700
 4278TIP3   OH237028   7.532   2.992   9.297
 4278TIP3    H137029   7.611   3.047   9.296
 4278TIP3    H237030   7.548   2.929   9.368
 4279TIP3   OH237031   7.558   2.796   9.501
 4279TIP3    H137032   7.503   2.778   9.578
 4279TIP3    H237033   7.648   2.788   9.534
 4280TIP3   OH237034   7.451   3.074   9.813
 4280TIP3    H137035   7.519   3.008   9.805
 4280TIP3    H237036   7.497   3.154   9.839
 4281TIP3   OH237037   7.409   2.820   9.114
 4281TIP3    H137038   7.400   2.861   9.028
 4281TIP3    H237039   7.455   2.885   9.167
 4282TIP3   OH237040   7.286   2.471   8.901
 4282TIP3    H137041   7.255   2.508   8.819
 4282TIP3    H237042   7.266   2.378   8.896
 4283TIP3   OH237043   7.209   2.649   9.487
 4283TIP3    H137044   7.214   2.573   9.430
 4283TIP3    H237045   7.220   2.614   9.576
 4284TIP3   OH237046   5.694   3.016   9.777
 4284TIP3    H137047   5.731   2.944   9.727
 4284TIP3    H237048   5.620   2.977   9.825
 4285TIP3   OH237049   7.230   2.204   8.882
 4285TIP3    H137050   7.262   2.148   8.952
 4285TIP3    H237051   7.137   2.184   8.875
 4286TIP3   OH237052   7.202   2.421   9.323
 4286TIP3    H137053   7.231   2.330   9.320
 4286TIP3    H237054   7.259   2.467   9.261
 4287TIP3   OH237055   7.229   2.522   9.734
 4287TIP3    H137056   7.317   2.546   9.764
 4287TIP3    H237057   7.215   2.434   9.769
 4288TIP3   OH237058   7.269   2.156   9.333
 4288TIP3    H137059   7.289   2.128   9.422
 4288TIP3    H237060   7.213   2.087   9.298
 4289TIP3   OH237061   5.960   2.299   9.806
 4289TIP3    H137062   5.962   2.203   9.806
 4289TIP3    H237063   6.045   2.324   9.841
 4290TIP3   OH237064   5.565   2.586   9.827
 4290TIP3    H137065   5.652   2.567   9.792
 4290TIP3    H237066   5.566   2.681   9.842
 4291TIP3   OH237067   7.466   2.094   9.010
 4291TIP3    H137068   7.497   2.038   8.939
 4291TIP3    H237069   7.492   2.183   8.984
 4292TIP3   OH237070   5.717   2.207   9.351
 4292TIP3    H137071   5.623   2.192   9.364
 4292TIP3    H237072   5.722   2.257   9.269
 4293TIP3   OH237073   7.117   3.664   9.533
 4293TIP3    H137074   7.193   3.648   9.478
 4293TIP3    H237075   7.150   3.717   9.605
 4294TIP3   OH237076   5.893   3.673   9.818
 4294TIP3    H137077   5.828   3.630   9.874
 4294TIP3    H237078   5.974   3.625   9.834
 4295TIP3   OH237079   6.130   3.533   9.790
 4295TIP3    H137080   6.126   3.440   9.815
 4295TIP3    H237081   6.223   3.553   9.789
 4296TIP3   OH237082   6.404   3.564   9.739
 4296TIP3    H137083   6.382   3.563   9.646
 4296TIP3    H237084   6.487   3.518   9.745
 4297TIP3   OH237085   6.688   2.065   9.758
 4297TIP3    H137086   6.622   2.000   9.782
 4297TIP3    H237087   6.751   2.016   9.704
 4298TIP3   OH237088   7.103   1.993   9.748
 4298TIP3    H137089   7.175   2.019   9.691
 4298TIP3    H237090   7.025   1.995   9.692
 4299TIP3   OH237091   7.325   2.050   9.587
 4299TIP3    H137092   7.398   1.989   9.594
 4299TIP3    H237093   7.365   2.137   9.594
 4300TIP3   OH237094   5.940   1.974   9.509
 4300TIP3    H137095   5.848   1.957   9.489
 4300TIP3    H237096   5.983   1.889   9.503
 4301TIP3   OH237097   5.846   2.001   9.201
 4301TIP3    H137098   5.890   2.054   9.134
 4301TIP3    H237099   5.805   2.065   9.259
 4302TIP3   OH237100   6.531   1.851   9.526
 4302TIP3    H137101   6.553   1.938   9.493
 4302TIP3    H237102   6.514   1.865   9.619
 4303TIP3   OH237103   6.880   1.938   9.587
 4303TIP3    H137104   6.888   1.998   9.513
 4303TIP3    H237105   6.853   1.855   9.548
 4304TIP3   OH237106   7.103   1.951   9.264
 4304TIP3    H137107   7.025   2.000   9.290
 4304TIP3    H237108   7.081   1.860   9.280
 4305TIP3   OH237109   5.875   3.618   9.222
 4305TIP3    H137110   5.791   3.603   9.179
 4305TIP3    H237111   5.889   3.712   9.213
 4306TIP3   OH237112   6.007   2.124   9.007
 4306TIP3    H137113   6.057   2.062   8.954
 4306TIP3    H237114   6.072   2.166   9.063
 4307TIP3   OH237115   6.461   2.184   9.239
 4307TIP3    H137116   6.500   2.113   9.288
 4307TIP3    H237117   6.483   2.263   9.289
 4308TIP3   OH237118   6.721   3.579   9.038
 4308TIP3    H137119   6.812   3.605   9.025
 4308TIP3    H237120   6.699   3.529   8.960
 4309TIP3   OH237121   7.337   3.601   9.377
 4309TIP3    H137122   7.351   3.513   9.342
 4309TIP3    H237123   7.346   3.658   9.301
 4310TIP3   OH237124   6.025   3.572   8.948
 4310TIP3    H137125   6.005   3.559   9.040
 4310TIP3    H237126   6.098   3.513   8.930
 4311TIP3   OH237127   7.489   2.535   9.399
 4311TIP3    H137128   7.487   2.628   9.423
 4311TIP3    H237129   7.458   2.533   9.309
 4312TIP3   OH237130   7.609   3.282   9.908
 4312TIP3    H137131   7.703   3.282   9.891
 4312TIP3    H237132   7.602   3.282  10.004
 4313TIP3   OH237133   7.436   2.302   9.558
 4313TIP3    H137134   7.525   2.283   9.585
 4313TIP3    H237135   7.443   2.380   9.504
 4314TIP3   OH237136   7.486   3.706   9.582
 4314TIP3    H137137   7.436   3.667   9.510
 4314TIP3    H237138   7.479   3.642   9.653
 4315TIP3   OH237139   7.512   3.523   9.798
 4315TIP3    H137140   7.524   3.432   9.822
 4315TIP3    H237141   7.600   3.562   9.805
 4316TIP3   OH237142  -0.015   2.895   9.805
 4316TIP3    H137143   0.030   2.853   9.732
 4316TIP3    H237144   0.055   2.925   9.863
 4317TIP3   OH237145   7.467   2.703   9.760
 4317TIP3    H137146   7.524   2.626   9.751
 4317TIP3    H237147   7.523   2.768   9.803
 4318TIP3   OH237148   7.539   2.172   9.268
 4318TIP3    H137149   7.450   2.183   9.300
 4318TIP3    H237150   7.530   2.131   9.182
 4319TIP3   OH237151   1.214   4.739   9.513
 4319TIP3    H137152   1.194   4.826   9.548
 4319TIP3    H237153   1.152   4.728   9.441
 4320TIP3   OH237154   1.111   4.709   9.813
 4320TIP3    H137155   1.118   4.635   9.873
 4320TIP3    H237156   1.076   4.670   9.732
 4321TIP3   OH237157   1.578   5.002   9.737
 4321TIP3    H137158   1.514   4.938   9.768
 4321TIP3    H237159   1.559   5.081   9.787
 4322TIP3   OH237160   0.466   5.121   9.775
 4322TIP3    H137161   0.442   5.031   9.752
 4322TIP3    H237162   0.560   5.117   9.793
 4323TIP3   OH237163   0.225   4.526   9.390
 4323TIP3    H137164   0.231   4.514   9.485
 4323TIP3    H237165   0.131   4.532   9.372
 4324TIP3   OH237166   0.201   4.715   9.761
 4324TIP3    H137167   0.216   4.626   9.730
 4324TIP3    H237168   0.282   4.762   9.739
 4325TIP3   OH237169   1.288   5.459   9.823
 4325TIP3    H137170   1.285   5.390   9.757
 4325TIP3    H237171   1.379   5.457   9.854
 4326TIP3   OH237172   0.954   4.939   9.750
 4326TIP3    H137173   1.004   4.872   9.797
 4326TIP3    H237174   1.015   4.972   9.683
 4327TIP3   OH237175   1.135   4.409   9.839
 4327TIP3    H137176   1.155   4.321   9.870
 4327TIP3    H237177   1.205   4.429   9.777
 4328TIP3   OH237178   0.633   4.140   9.658
 4328TIP3    H137179   0.642   4.226   9.616
 4328TIP3    H237180   0.595   4.084   9.591
 4329TIP3   OH237181   1.338   4.263   9.490
 4329TIP3    H137182   1.369   4.237   9.576
 4329TIP3    H237183   1.418   4.280   9.440
 4330TIP3   OH237184   0.237   4.452   9.669
 4330TIP3    H137185   0.316   4.406   9.698
 4330TIP3    H237186   0.182   4.384   9.631
 4331TIP3   OH237187   0.722   4.598   9.638
 4331TIP3    H137188   0.815   4.577   9.638
 4331TIP3    H237189   0.678   4.517   9.612
 4332TIP3   OH237190   1.148   5.011   9.557
 4332TIP3    H137191   1.242   5.027   9.550
 4332TIP3    H237192   1.108   5.090   9.520
 4333TIP3   OH237193   1.419   4.216   9.745
 4333TIP3    H137194   1.354   4.189   9.809
 4333TIP3    H237195   1.492   4.249   9.797
 4334TIP3   OH237196   0.444   4.301   9.799
 4334TIP3    H137197   0.497   4.351   9.861
 4334TIP3    H237198   0.506   4.243   9.756
 4335TIP3   OH237199   0.063   5.043   9.251
 4335TIP3    H137200   0.054   5.073   9.160
 4335TIP3    H237201   0.083   5.123   9.300
 4336TIP3   OH237202   1.596   5.250   9.853
 4336TIP3    H137203   1.691   5.237   9.857
 4336TIP3    H237204   1.584   5.345   9.857
 4337TIP3   OH237205   0.830   3.781   9.800
 4337TIP3    H137206   0.811   3.688   9.817
 4337TIP3    H237207   0.751   3.827   9.828
 4338TIP3   OH237208   1.317   5.305   9.591
 4338TIP3    H137209   1.360   5.222   9.568
 4338TIP3    H237210   1.383   5.372   9.575
 4339TIP3   OH237211   1.423   5.061   9.514
 4339TIP3    H137212   1.471   5.047   9.433
 4339TIP3    H237213   1.483   5.034   9.583
 4340TIP3   OH237214   1.058   4.709   9.291
 4340TIP3    H137215   0.977   4.760   9.292
 4340TIP3    H237216   1.108   4.746   9.218
 4341TIP3   OH237217   1.099   4.637   8.946
 4341TIP3    H137218   1.159   4.661   9.017
 4341TIP3    H237219   1.143   4.565   8.902
 4342TIP3   OH237220   1.444   4.742   9.359
 4342TIP3    H137221   1.371   4.745   9.422
 4342TIP3    H237222   1.511   4.690   9.404
 4343TIP3   OH237223   0.547   4.746   9.484
 4343TIP3    H137224   0.522   4.683   9.417
 4343TIP3    H237225   0.615   4.701   9.535
 4344TIP3   OH237226   0.752   5.147   9.749
 4344TIP3    H137227   0.731   5.145   9.655
 4344TIP3    H237228   0.822   5.083   9.759
 4345TIP3   OH237229   0.698   4.826   9.791
 4345TIP3    H137230   0.711   4.741   9.748
 4345TIP3    H237231   0.784   4.868   9.788
 4346TIP3   OH237232   1.310   4.681   9.123
 4346TIP3    H137233   1.361   4.710   9.199
 4346TIP3    H237234   1.364   4.704   9.047
 4347TIP3   OH237235   1.072   5.271   9.469
 4347TIP3    H137236   1.151   5.284   9.521
 4347TIP3    H237237   1.049   5.358   9.437
 4348TIP3   OH237238   1.637   3.798   9.171
 4348TIP3    H137239   1.558   3.827   9.216
 4348TIP3    H237240   1.680   3.879   9.141
 4349TIP3   OH237241   0.479   4.563   9.289
 4349TIP3    H137242   0.387   4.553   9.314
 4349TIP3    H237243   0.509   4.474   9.273
 4350TIP3   OH237244   1.827   5.257   9.024
 4350TIP3    H137245   1.843   5.351   9.022
 4350TIP3    H237246   1.915   5.218   9.021
 4351TIP3   OH237247   0.190   5.156   9.867
 4351TIP3    H137248   0.174   5.068   9.902
 4351TIP3    H237249   0.281   5.152   9.836
 4352TIP3   OH237250   1.041   5.512   9.340
 4352TIP3    H137251   1.032   5.516   9.245
 4352TIP3    H237252   1.003   5.595   9.371
 4353TIP3   OH237253   0.358   5.498   9.520
 4353TIP3    H137254   0.385   5.466   9.606
 4353TIP3    H237255   0.265   5.477   9.515
 4354TIP3   OH237256   1.316   5.513   9.036
 4354TIP3    H137257   1.374   5.445   9.003
 4354TIP3    H237258   1.327   5.510   9.131
 4355TIP3   OH237259   1.318   5.509   9.312
 4355TIP3    H137260   1.227   5.499   9.337
 4355TIP3    H237261   1.367   5.492   9.392
 4356TIP3   OH237262   0.600   3.928   9.835
 4356TIP3    H137263   0.507   3.915   9.815
 4356TIP3    H237264   0.624   4.007   9.787
 4357TIP3   OH237265   1.455   4.736   8.898
 4357TIP3    H137266   1.421   4.735   8.809
 4357TIP3    H237267   1.547   4.758   8.889
 4358TIP3   OH237268   0.994   4.096   8.957
 4358TIP3    H137269   0.947   4.100   9.040
 4358TIP3    H237270   0.951   4.026   8.908
 4359TIP3   OH237271   0.601   4.380   9.529
 4359TIP3    H137272   0.509   4.352   9.523
 4359TIP3    H237273   0.634   4.374   9.440
 4360TIP3   OH237274   1.094   4.456   9.386
 4360TIP3    H137275   1.076   4.542   9.348
 4360TIP3    H237276   1.167   4.421   9.334
 4361TIP3   OH237277   1.287   4.497   9.629
 4361TIP3    H137278   1.261   4.577   9.583
 4361TIP3    H237279   1.285   4.429   9.562
 4362TIP3   OH237280   0.642   4.135   8.891
 4362TIP3    H137281   0.623   4.134   8.985
 4362TIP3    H237282   0.556   4.139   8.850
 4363TIP3   OH237283   0.086   4.235   9.591
 4363TIP3    H137284   0.122   4.187   9.665
 4363TIP3    H237285   0.103   4.178   9.515
 4364TIP3   OH237286   0.235   4.300   9.232
 4364TIP3    H137287   0.220   4.319   9.139
 4364TIP3    H237288   0.223   4.384   9.276
 4365TIP3   OH237289   0.910   4.116   9.614
 4365TIP3    H137290   0.823   4.117   9.653
 4365TIP3    H237291   0.965   4.074   9.679
 4366TIP3   OH237292   0.374   4.247   9.467
 4366TIP3    H137293   0.324   4.257   9.386
 4366TIP3    H237294   0.409   4.158   9.462
 4367TIP3   OH237295   0.653   4.335   9.262
 4367TIP3    H137296   0.745   4.319   9.284
 4367TIP3    H237297   0.656   4.370   9.173
 4368TIP3   OH237298   1.202   4.145   9.908
 4368TIP3    H137299   1.198   4.113   9.998
 4368TIP3    H237300   1.153   4.081   9.857
 4369TIP3   OH237301   0.634   4.438   9.012
 4369TIP3    H137302   0.577   4.427   8.936
 4369TIP3    H237303   0.704   4.495   8.982
 4370TIP3   OH237304   0.981   4.520   9.636
 4370TIP3    H137305   1.025   4.492   9.555
 4370TIP3    H237306   1.021   4.467   9.705
 4371TIP3   OH237307   0.509   4.009   9.448
 4371TIP3    H137308   0.463   3.928   9.471
 4371TIP3    H237309   0.547   3.991   9.362
 4372TIP3   OH237310   0.831   4.864   9.285
 4372TIP3    H137311   0.759   4.820   9.239
 4372TIP3    H237312   0.788   4.916   9.353
 4373TIP3   OH237313   1.215   4.158   9.118
 4373TIP3    H137314   1.144   4.158   9.054
 4373TIP3    H237315   1.238   4.250   9.130
 4374TIP3   OH237316   1.301   4.411   9.202
 4374TIP3    H137317   1.386   4.395   9.242
 4374TIP3    H237318   1.307   4.500   9.166
 4375TIP3   OH237319   0.439   4.851   9.713
 4375TIP3    H137320   0.459   4.822   9.624
 4375TIP3    H237321   0.521   4.841   9.761
 4376TIP3   OH237322   1.029   4.975   9.130
 4376TIP3    H137323   1.014   5.066   9.156
 4376TIP3    H237324   0.959   4.926   9.173
 4377TIP3   OH237325   1.680   4.438   9.098
 4377TIP3    H137326   1.622   4.431   9.022
 4377TIP3    H237327   1.724   4.523   9.087
 4378TIP3   OH237328   1.658   5.245   9.245
 4378TIP3    H137329   1.622   5.157   9.255
 4378TIP3    H237330   1.713   5.239   9.167
 4379TIP3   OH237331   1.390   4.810   9.800
 4379TIP3    H137332   1.298   4.786   9.805
 4379TIP3    H237333   1.436   4.727   9.791
 4380TIP3   OH237334   0.602   5.173   9.510
 4380TIP3    H137335   0.611   5.257   9.464
 4380TIP3    H237336   0.527   5.186   9.569
 4381TIP3   OH237337   0.158   4.668   9.013
 4381TIP3    H137338   0.199   4.737   9.065
 4381TIP3    H237339   0.065   4.675   9.032
 4382TIP3   OH237340   0.540   4.972   9.332
 4382TIP3    H137341   0.560   5.045   9.390
 4382TIP3    H237342   0.534   4.896   9.390
 4383TIP3   OH237343   0.598   5.425   9.398
 4383TIP3    H137344   0.513   5.459   9.423
 4383TIP3    H237345   0.661   5.485   9.438
 4384TIP3   OH237346   1.476   5.060   9.024
 4384TIP3    H137347   1.491   5.027   9.113
 4384TIP3    H237348   1.392   5.024   8.999
 4385TIP3   OH237349   1.867   5.529   9.044
 4385TIP3    H137350   1.928   5.602   9.032
 4385TIP3    H237351   1.784   5.571   9.068
 4386TIP3   OH237352   1.563   4.974   9.277
 4386TIP3    H137353   1.514   4.896   9.302
 4386TIP3    H237354   1.654   4.943   9.268
 4387TIP3   OH237355   0.816   5.110   8.855
 4387TIP3    H137356   0.785   5.036   8.803
 4387TIP3    H237357   0.772   5.101   8.939
 4388TIP3   OH237358   0.690   5.105   9.102
 4388TIP3    H137359   0.767   5.098   9.158
 4388TIP3    H237360   0.666   5.197   9.105
 4389TIP3   OH237361   0.274   4.899   9.133
 4389TIP3    H137362   0.213   4.925   9.201
 4389TIP3    H237363   0.275   4.973   9.072
 4390TIP3   OH237364   1.217   4.050   9.366
 4390TIP3    H137365   1.216   4.084   9.276
 4390TIP3    H237366   1.251   4.122   9.419
 4391TIP3   OH237367   0.917   5.201   9.245
 4391TIP3    H137368   0.885   5.288   9.222
 4391TIP3    H237369   0.967   5.214   9.326
 4392TIP3   OH237370   0.895   4.269   9.383
 4392TIP3    H137371   0.965   4.334   9.383
 4392TIP3    H237372   0.903   4.224   9.467
 4393TIP3   OH237373   0.979   3.932   9.421
 4393TIP3    H137374   0.952   3.995   9.487
 4393TIP3    H237375   1.069   3.957   9.400
 4394TIP3   OH237376   0.668   5.379   9.132
 4394TIP3    H137377   0.705   5.463   9.107
 4394TIP3    H237378   0.636   5.393   9.221
 4395TIP3   OH237379   0.590   4.079   9.167
 4395TIP3    H137380   0.584   4.165   9.208
 4395TIP3    H237381   0.683   4.056   9.171
 4396TIP3   OH237382   1.513   4.560   9.763
 4396TIP3    H137383   1.432   4.524   9.726
 4396TIP3    H237384   1.549   4.488   9.815
 4397TIP3   OH237385   0.368   5.096   8.965
 4397TIP3    H137386   0.416   5.176   8.944
 4397TIP3    H237387   0.358   5.051   8.881
 4398TIP3   OH237388   0.166   4.393   8.982
 4398TIP3    H137389   0.169   4.488   8.996
 4398TIP3    H237390   0.084   4.378   8.936
 4399TIP3   OH237391   1.562   5.526   9.870
 4399TIP3    H137392   1.554   5.597   9.806
 4399TIP3    H237393   1.602   5.567   9.947
 4400TIP3   OH237394   0.335   3.901   9.753
 4400TIP3    H137395   0.332   3.869   9.662
 4400TIP3    H237396   0.316   3.823   9.806
 4401TIP3   OH237397   0.121   5.300   9.328
 4401TIP3    H137398   0.101   5.364   9.396
 4401TIP3    H237399   0.126   5.351   9.247
 4402TIP3   OH237400   0.972   5.334   8.865
 4402TIP3    H137401   0.915   5.256   8.863
 4402TIP3    H237402   1.059   5.300   8.846
 4403TIP3   OH237403   1.466   5.316   8.924
 4403TIP3    H137404   1.483   5.233   8.969
 4403TIP3    H237405   1.537   5.324   8.861
 4404TIP3   OH237406   0.530   4.853   8.886
 4404TIP3    H137407   0.479   4.779   8.853
 4404TIP3    H237408   0.601   4.864   8.823
 4405TIP3   OH237409   1.223   4.989   8.938
 4405TIP3    H137410   1.155   4.979   9.004
 4405TIP3    H237411   1.196   4.930   8.867
 4406TIP3   OH237412   0.634   4.740   9.143
 4406TIP3    H137413   0.583   4.669   9.181
 4406TIP3    H237414   0.687   4.697   9.075
 4407TIP3   OH237415   0.816   4.637   8.952
 4407TIP3    H137416   0.806   4.642   8.857
 4407TIP3    H237417   0.911   4.638   8.966
 4408TIP3   OH237418   1.714   4.809   8.821
 4408TIP3    H137419   1.708   4.788   8.727
 4408TIP3    H237420   1.714   4.904   8.824
 4409TIP3   OH237421   0.787   5.615   9.063
 4409TIP3    H137422   0.880   5.592   9.065
 4409TIP3    H237423   0.780   5.684   8.997
 4410TIP3   OH237424   0.071   5.120   8.986
 4410TIP3    H137425   0.160   5.152   8.968
 4410TIP3    H237426   0.050   5.065   8.911
 4411TIP3   OH237427   0.078   5.489   9.532
 4411TIP3    H137428   0.001   5.545   9.523
 4411TIP3    H237429   0.075   5.458   9.622
 4412TIP3   OH237430   0.092   5.409   9.796
 4412TIP3    H137431   0.130   5.323   9.816
 4412TIP3    H237432   0.150   5.471   9.840
 4413TIP3   OH237433   1.813   4.862   9.255
 4413TIP3    H137434   1.885   4.924   9.267
 4413TIP3    H237435   1.836   4.788   9.310
 4414TIP3   OH237436   1.871   4.644   9.412
 4414TIP3    H137437   1.789   4.629   9.459
 4414TIP3    H237438   1.934   4.666   9.481
 4415TIP3   OH237439   1.844   5.091   9.793
 4415TIP3    H137440   1.905   5.017   9.782
 4415TIP3    H237441   1.760   5.057   9.763
 4416TIP3   OH237442   1.803   4.681   9.045
 4416TIP3    H137443   1.767   4.724   8.967
 4416TIP3    H237444   1.797   4.748   9.114
 4417TIP3   OH237445   1.529   4.393   8.868
 4417TIP3    H137446   1.568   4.409   8.782
 4417TIP3    H237447   1.540   4.299   8.882
 4418TIP3   OH237448   1.617   4.579   9.503
 4418TIP3    H137449   1.598   4.492   9.468
 4418TIP3    H237450   1.595   4.574   9.596
 4419TIP3   OH237451   0.144   4.896   9.962
 4419TIP3    H137452   0.162   4.833   9.892
 4419TIP3    H237453   0.183   4.858  10.040
 4420TIP3   OH237454   1.587   4.126   8.880
 4420TIP3    H137455   1.637   4.087   8.952
 4420TIP3    H237456   1.502   4.082   8.882
 4421TIP3   OH237457   1.555   4.352   9.331
 4421TIP3    H137458   1.584   4.262   9.346
 4421TIP3    H237459   1.605   4.381   9.255
 4422TIP3   OH237460   1.625   4.334   9.888
 4422TIP3    H137461   1.705   4.364   9.844
 4422TIP3    H237462   1.654   4.310   9.976
 4423TIP3   OH237463   1.598   4.089   9.394
 4423TIP3    H137464   1.654   4.048   9.460
 4423TIP3    H237465   1.541   4.018   9.364
 4424TIP3   OH237466   0.219   4.143   9.814
 4424TIP3    H137467   0.251   4.053   9.801
 4424TIP3    H237468   0.298   4.196   9.819
 4425TIP3   OH237469   0.070   4.372   9.888
 4425TIP3    H137470   0.126   4.417   9.826
 4425TIP3    H237471   0.099   4.281   9.887
 4426TIP3   OH237472   1.761   4.015   9.061
 4426TIP3    H137473   1.817   3.977   8.993
 4426TIP3    H237474   1.813   4.086   9.099
 4427TIP3   OH237475   0.090   4.097   9.345
 4427TIP3    H137476   0.001   4.098   9.309
 4427TIP3    H237477   0.135   4.166   9.297
 4428TIP3   OH237478   1.487   5.512   9.533
 4428TIP3    H137479   1.566   5.503   9.480
 4428TIP3    H237480   1.502   5.589   9.586
 4429TIP3   OH237481   0.298   5.555   9.909
 4429TIP3    H137482   0.335   5.558   9.997
 4429TIP3    H237483   0.361   5.505   9.857
 4430TIP3   OH237484   0.467   5.397   9.763
 4430TIP3    H137485   0.458   5.302   9.770
 4430TIP3    H237486   0.558   5.415   9.786
 4431TIP3   OH237487   0.730   5.401   9.859
 4431TIP3    H137488   0.748   5.319   9.814
 4431TIP3    H237489   0.781   5.396   9.940
 4432TIP3   OH237490   1.056   3.948   9.778
 4432TIP3    H137491   0.988   3.883   9.794
 4432TIP3    H237492   1.128   3.898   9.740
 4433TIP3   OH237493   1.596   3.826   9.761
 4433TIP3    H137494   1.655   3.875   9.704
 4433TIP3    H237495   1.525   3.888   9.782
 4434TIP3   OH237496   1.759   3.945   9.576
 4434TIP3    H137497   1.810   3.868   9.550
 4434TIP3    H237498   1.823   4.016   9.580
 4435TIP3   OH237499   0.344   3.793   9.498
 4435TIP3    H137500   0.286   3.808   9.423
 4435TIP3    H237501   0.356   3.698   9.501
 4436TIP3   OH237502   0.206   3.861   9.267
 4436TIP3    H137503   0.255   3.897   9.193
 4436TIP3    H237504   0.157   3.935   9.302
 4437TIP3   OH237505   0.759   3.804   9.533
 4437TIP3    H137506   0.832   3.839   9.482
 4437TIP3    H237507   0.791   3.799   9.623
 4438TIP3   OH237508   1.254   3.785   9.678
 4438TIP3    H137509   1.332   3.755   9.630
 4438TIP3    H237510   1.202   3.706   9.689
 4439TIP3   OH237511   1.427   3.878   9.325
 4439TIP3    H137512   1.350   3.932   9.345
 4439TIP3    H237513   1.396   3.788   9.332
 4440TIP3   OH237514   0.110   5.454   9.094
 4440TIP3    H137515   0.019   5.464   9.065
 4440TIP3    H237516   0.134   5.541   9.127
 4441TIP3   OH237517   0.366   3.953   9.060
 4441TIP3    H137518   0.395   3.872   9.019
 4441TIP3    H237519   0.446   3.991   9.098
 4442TIP3   OH237520   0.862   4.069   9.199
 4442TIP3    H137521   0.891   3.989   9.242
 4442TIP3    H237522   0.882   4.139   9.262
 4443TIP3   OH237523   1.041   5.511   9.064
 4443TIP3    H137524   1.135   5.521   9.048
 4443TIP3    H237525   1.012   5.449   8.997
 4444TIP3   OH237526   1.692   5.494   9.350
 4444TIP3    H137527   1.682   5.405   9.318
 4444TIP3    H237528   1.681   5.549   9.273
 4445TIP3   OH237529   0.284   5.468   8.874
 4445TIP3    H137530   0.235   5.455   8.955
 4445TIP3    H237531   0.356   5.405   8.878
 4446TIP3   OH237532   3.065   4.759   9.502
 4446TIP3    H137533   3.056   4.854   9.500
 4446TIP3    H237534   3.005   4.728   9.433
 4447TIP3   OH237535   3.048   4.734   9.784
 4447TIP3    H137536   3.028   4.643   9.808
 4447TIP3    H237537   3.051   4.733   9.688
 4448TIP3   OH237538   3.464   5.037   9.753
 4448TIP3    H137539   3.410   4.963   9.783
 4448TIP3    H237540   3.423   5.114   9.794
 4449TIP3   OH237541   2.380   5.097   9.842
 4449TIP3    H137542   2.352   5.006   9.832
 4449TIP3    H237543   2.475   5.092   9.854
 4450TIP3   OH237544   1.941   4.372   9.391
 4450TIP3    H137545   1.917   4.465   9.391
 4450TIP3    H237546   1.911   4.339   9.306
 4451TIP3   OH237547   2.081   4.695   9.586
 4451TIP3    H137548   2.088   4.610   9.630
 4451TIP3    H237549   2.171   4.714   9.556
 4452TIP3   OH237550   3.182   5.404   9.815
 4452TIP3    H137551   3.184   5.371   9.725
 4452TIP3    H237552   3.259   5.365   9.856
 4453TIP3   OH237553   2.885   4.953   9.860
 4453TIP3    H137554   2.929   4.873   9.831
 4453TIP3    H237555   2.954   5.005   9.900
 4454TIP3   OH237556   3.013   4.443   9.811
 4454TIP3    H137557   3.020   4.357   9.851
 4454TIP3    H237558   3.080   4.444   9.743
 4455TIP3   OH237559   2.485   4.132   9.640
 4455TIP3    H137560   2.488   4.222   9.608
 4455TIP3    H237561   2.425   4.088   9.580
 4456TIP3   OH237562   3.232   4.220   9.519
 4456TIP3    H137563   3.252   4.225   9.612
 4456TIP3    H237564   3.312   4.188   9.478
 4457TIP3   OH237565   2.114   4.447   9.694
 4457TIP3    H137566   2.172   4.414   9.763
 4457TIP3    H237567   2.135   4.394   9.617
 4458TIP3   OH237568   2.561   4.579   9.654
 4458TIP3    H137569   2.656   4.572   9.646
 4458TIP3    H237570   2.527   4.503   9.608
 4459TIP3   OH237571   3.017   5.016   9.430
 4459TIP3    H137572   3.005   5.018   9.335
 4459TIP3    H237573   2.999   5.106   9.458
 4460TIP3   OH237574   3.299   4.253   9.780
 4460TIP3    H137575   3.231   4.229   9.843
 4460TIP3    H237576   3.369   4.292   9.833
 4461TIP3   OH237577   2.318   4.337   9.846
 4461TIP3    H137578   2.351   4.421   9.878
 4461TIP3    H237579   2.397   4.288   9.823
 4462TIP3   OH237580   2.028   5.033   9.274
 4462TIP3    H137581   2.033   5.076   9.188
 4462TIP3    H237582   2.049   5.103   9.336
 4463TIP3   OH237583   3.439   5.296   9.878
 4463TIP3    H137584   3.511   5.258   9.927
 4463TIP3    H237585   3.465   5.387   9.862
 4464TIP3   OH237586   2.705   3.767   9.815
 4464TIP3    H137587   2.678   3.678   9.835
 4464TIP3    H237588   2.627   3.820   9.832
 4465TIP3   OH237589   3.242   5.362   9.545
 4465TIP3    H137590   3.303   5.289   9.532
 4465TIP3    H237591   3.299   5.437   9.564
 4466TIP3   OH237592   3.410   5.154   9.506
 4466TIP3    H137593   3.432   5.099   9.430
 4466TIP3    H237594   3.442   5.104   9.581
 4467TIP3   OH237595   2.918   4.712   9.268
 4467TIP3    H137596   2.841   4.768   9.256
 4467TIP3    H237597   2.983   4.748   9.208
 4468TIP3   OH237598   3.005   4.627   8.929
 4468TIP3    H137599   3.060   4.650   9.004
 4468TIP3    H237600   3.058   4.566   8.878
 4469TIP3   OH237601   3.312   4.780   9.359
 4469TIP3    H137602   3.240   4.779   9.422
 4469TIP3    H237603   3.379   4.725   9.399
 4470TIP3   OH237604   2.362   4.727   9.534
 4470TIP3    H137605   2.361   4.697   9.443
 4470TIP3    H237606   2.434   4.679   9.574
 4471TIP3   OH237607   2.659   5.106   9.812
 4471TIP3    H137608   2.650   5.099   9.717
 4471TIP3    H237609   2.734   5.050   9.833
 4472TIP3   OH237610   2.433   4.593   9.893
 4472TIP3    H137611   2.483   4.592   9.812
 4472TIP3    H237612   2.498   4.613   9.961
 4473TIP3   OH237613   3.192   4.686   9.128
 4473TIP3    H137614   3.232   4.728   9.203
 4473TIP3    H237615   3.254   4.702   9.056
 4474TIP3   OH237616   2.981   5.286   9.483
 4474TIP3    H137617   3.068   5.313   9.513
 4474TIP3    H237618   2.948   5.363   9.436
 4475TIP3   OH237619   3.509   3.795   9.146
 4475TIP3    H137620   3.433   3.829   9.193
 4475TIP3    H237621   3.552   3.874   9.112
 4476TIP3   OH237622   2.349   4.640   9.269
 4476TIP3    H137623   2.286   4.700   9.230
 4476TIP3    H237624   2.320   4.553   9.241
 4477TIP3   OH237625   3.706   5.250   8.987
 4477TIP3    H137626   3.710   5.346   8.980
 4477TIP3    H237627   3.797   5.224   8.998
 4478TIP3   OH237628   2.055   5.237   9.904
 4478TIP3    H137629   2.127   5.175   9.913
 4478TIP3    H237630   1.978   5.183   9.884
 4479TIP3   OH237631   2.933   5.525   9.334
 4479TIP3    H137632   2.920   5.529   9.239
 4479TIP3    H237633   2.893   5.605   9.368
 4480TIP3   OH237634   2.271   5.450   9.522
 4480TIP3    H137635   2.298   5.419   9.609
 4480TIP3    H237636   2.219   5.378   9.486
 4481TIP3   OH237637   3.227   5.525   9.028
 4481TIP3    H137638   3.286   5.456   8.995
 4481TIP3    H237639   3.235   5.519   9.123
 4482TIP3   OH237640   3.204   5.495   9.301
 4482TIP3    H137641   3.110   5.505   9.318
 4482TIP3    H237642   3.235   5.436   9.370
 4483TIP3   OH237643   2.480   3.923   9.824
 4483TIP3    H137644   2.387   3.901   9.823
 4483TIP3    H237645   2.487   4.000   9.767
 4484TIP3   OH237646   3.361   4.722   8.918
 4484TIP3    H137647   3.330   4.734   8.829
 4484TIP3    H237648   3.456   4.736   8.912
 4485TIP3   OH237649   2.879   4.107   9.009
 4485TIP3    H137650   2.822   4.095   9.084
 4485TIP3    H237651   2.856   4.036   8.949
 4486TIP3   OH237652   2.449   4.376   9.518
 4486TIP3    H137653   2.354   4.361   9.512
 4486TIP3    H237654   2.481   4.365   9.428
 4487TIP3   OH237655   2.954   4.465   9.376
 4487TIP3    H137656   2.928   4.547   9.334
 4487TIP3    H237657   3.030   4.436   9.326
 4488TIP3   OH237658   3.161   4.478   9.585
 4488TIP3    H137659   3.117   4.532   9.520
 4488TIP3    H237660   3.176   4.394   9.541
 4489TIP3   OH237661   2.570   4.129   8.907
 4489TIP3    H137662   2.537   4.121   8.996
 4489TIP3    H237663   2.512   4.193   8.865
 4490TIP3   OH237664   1.944   4.143   9.559
 4490TIP3    H137665   2.004   4.147   9.633
 4490TIP3    H237666   1.931   4.234   9.534
 4491TIP3   OH237667   1.882   4.255   9.144
 4491TIP3    H137668   1.951   4.284   9.085
 4491TIP3    H237669   1.807   4.311   9.123
 4492TIP3   OH237670   2.768   4.096   9.607
 4492TIP3    H137671   2.677   4.099   9.637
 4492TIP3    H237672   2.817   4.060   9.680
 4493TIP3   OH237673   2.194   4.302   9.473
 4493TIP3    H137674   2.110   4.314   9.429
 4493TIP3    H237675   2.214   4.209   9.461
 4494TIP3   OH237676   2.524   4.327   9.261
 4494TIP3    H137677   2.616   4.317   9.286
 4494TIP3    H237678   2.527   4.371   9.176
 4495TIP3   OH237679   3.050   4.173   9.899
 4495TIP3    H137680   3.036   4.146   9.989
 4495TIP3    H237681   3.015   4.102   9.846
 4496TIP3   OH237682   2.520   4.432   9.010
 4496TIP3    H137683   2.474   4.403   8.932
 4496TIP3    H237684   2.597   4.479   8.976
 4497TIP3   OH237685   2.822   4.510   9.622
 4497TIP3    H137686   2.873   4.493   9.543
 4497TIP3    H237687   2.880   4.485   9.694
 4498TIP3   OH237688   2.304   4.043   9.444
 4498TIP3    H137689   2.247   3.970   9.466
 4498TIP3    H237690   2.331   4.026   9.354
 4499TIP3   OH237691   2.702   4.888   9.214
 4499TIP3    H137692   2.641   4.845   9.155
 4499TIP3    H237693   2.653   4.899   9.296
 4500TIP3   OH237694   3.119   4.173   9.124
 4500TIP3    H137695   3.033   4.170   9.081
 4500TIP3    H237696   3.132   4.265   9.145
 4501TIP3   OH237697   3.182   4.425   9.227
 4501TIP3    H137698   3.270   4.406   9.260
 4501TIP3    H237699   3.190   4.511   9.185
 4502TIP3   OH237700   2.306   4.830   9.795
 4502TIP3    H137701   2.323   4.807   9.703
 4502TIP3    H237702   2.333   4.753   9.844
 4503TIP3   OH237703   2.947   4.993   9.150
 4503TIP3    H137704   2.933   5.088   9.147
 4503TIP3    H237705   2.860   4.957   9.167
 4504TIP3   OH237706   3.655   4.437   9.153
 4504TIP3    H137707   3.607   4.418   9.072
 4504TIP3    H237708   3.691   4.524   9.140
 4505TIP3   OH237709   3.556   5.264   9.225
 4505TIP3    H137710   3.522   5.177   9.246
 4505TIP3    H237711   3.607   5.252   9.145
 4506TIP3   OH237712   3.320   4.809   9.829
 4506TIP3    H137713   3.224   4.801   9.831
 4506TIP3    H237714   3.350   4.732   9.781
 4507TIP3   OH237715   2.523   5.158   9.567
 4507TIP3    H137716   2.540   5.238   9.518
 4507TIP3    H237717   2.452   5.180   9.627
 4508TIP3   OH237718   2.069   4.641   8.984
 4508TIP3    H137719   2.114   4.704   9.040
 4508TIP3    H237720   1.977   4.646   9.011
 4509TIP3   OH237721   2.538   4.925   9.425
 4509TIP3    H137722   2.538   5.007   9.474
 4509TIP3    H237723   2.472   4.871   9.468
 4510TIP3   OH237724   2.535   5.408   9.450
 4510TIP3    H137725   2.447   5.441   9.464
 4510TIP3    H237726   2.592   5.473   9.491
 4511TIP3   OH237727   3.368   5.067   9.022
 4511TIP3    H137728   3.387   5.040   9.112
 4511TIP3    H237729   3.284   5.026   9.001
 4512TIP3   OH237730   3.700   5.525   8.993
 4512TIP3    H137731   3.727   5.598   8.938
 4512TIP3    H237732   3.626   5.559   9.043
 4513TIP3   OH237733   3.466   4.994   9.276
 4513TIP3    H137734   3.407   4.923   9.303
 4513TIP3    H237735   3.553   4.953   9.274
 4514TIP3   OH237736   2.718   5.152   8.869
 4514TIP3    H137737   2.710   5.068   8.822
 4514TIP3    H237738   2.664   5.140   8.948
 4515TIP3   OH237739   2.572   5.126   9.107
 4515TIP3    H137740   2.622   5.066   9.162
 4515TIP3    H237741   2.591   5.213   9.142
 4516TIP3   OH237742   2.182   4.830   9.156
 4516TIP3    H137743   2.125   4.882   9.214
 4516TIP3    H237744   2.239   4.894   9.115
 4517TIP3   OH237745   3.092   4.043   9.362
 4517TIP3    H137746   3.100   4.087   9.277
 4517TIP3    H237747   3.127   4.107   9.425
 4518TIP3   OH237748   2.883   5.255   9.156
 4518TIP3    H137749   2.797   5.289   9.180
 4518TIP3    H237750   2.934   5.332   9.130
 4519TIP3   OH237751   2.766   4.264   9.383
 4519TIP3    H137752   2.833   4.333   9.385
 4519TIP3    H237753   2.772   4.222   9.468
 4520TIP3   OH237754   2.867   3.908   9.431
 4520TIP3    H137755   2.836   3.973   9.494
 4520TIP3    H237756   2.953   3.940   9.404
 4521TIP3   OH237757   2.637   5.375   9.199
 4521TIP3    H137758   2.649   5.464   9.167
 4521TIP3    H237759   2.602   5.385   9.288
 4522TIP3   OH237760   2.458   4.076   9.166
 4522TIP3    H137761   2.456   4.164   9.205
 4522TIP3    H237762   2.544   4.041   9.190
 4523TIP3   OH237763   3.383   4.569   9.712
 4523TIP3    H137764   3.304   4.526   9.681
 4523TIP3    H237765   3.423   4.505   9.772
 4524TIP3   OH237766   2.322   5.038   9.033
 4524TIP3    H137767   2.399   5.079   9.073
 4524TIP3    H237768   2.357   4.991   8.957
 4525TIP3   OH237769   2.065   4.358   8.973
 4525TIP3    H137770   2.076   4.453   8.981
 4525TIP3    H237771   2.102   4.337   8.887
 4526TIP3   OH237772   3.535   5.555   9.868
 4526TIP3    H137773   3.517   5.630   9.812
 4526TIP3    H237774   3.595   5.589   9.934
 4527TIP3   OH237775   2.209   3.872   9.780
 4527TIP3    H137776   2.191   3.863   9.686
 4527TIP3    H237777   2.180   3.789   9.817
 4528TIP3   OH237778   2.078   5.267   9.421
 4528TIP3    H137779   2.026   5.300   9.495
 4528TIP3    H237780   2.068   5.334   9.353
 4529TIP3   OH237781   2.896   5.355   8.839
 4529TIP3    H137782   2.830   5.287   8.853
 4529TIP3    H237783   2.979   5.307   8.830
 4530TIP3   OH237784   3.374   5.323   8.919
 4530TIP3    H137785   3.392   5.242   8.966
 4530TIP3    H237786   3.446   5.331   8.856
 4531TIP3   OH237787   2.436   4.882   8.840
 4531TIP3    H137788   2.458   4.825   8.914
 4531TIP3    H237789   2.519   4.898   8.796
 4532TIP3   OH237790   3.118   4.982   8.934
 4532TIP3    H137791   3.057   4.976   9.008
 4532TIP3    H237792   3.078   4.929   8.865
 4533TIP3   OH237793   2.524   4.742   9.062
 4533TIP3    H137794   2.479   4.691   9.130
 4533TIP3    H237795   2.589   4.681   9.026
 4534TIP3   OH237796   2.726   4.599   8.934
 4534TIP3    H137797   2.720   4.622   8.841
 4534TIP3    H237798   2.820   4.603   8.954
 4535TIP3   OH237799   3.636   4.792   8.857
 4535TIP3    H137800   3.618   4.762   8.768
 4535TIP3    H237801   3.617   4.886   8.854
 4536TIP3   OH237802   2.709   5.623   9.099
 4536TIP3    H137803   2.797   5.588   9.081
 4536TIP3    H237804   2.697   5.692   9.034
 4537TIP3   OH237805   2.060   5.112   9.008
 4537TIP3    H137806   2.155   5.106   9.017
 4537TIP3    H237807   2.038   5.048   8.940
 4538TIP3   OH237808   1.894   5.599   9.504
 4538TIP3    H137809   1.832   5.563   9.441
 4538TIP3    H237810   1.918   5.525   9.560
 4539TIP3   OH237811   1.971   5.380   9.653
 4539TIP3    H137812   1.941   5.304   9.703
 4539TIP3    H237813   2.030   5.426   9.712
 4540TIP3   OH237814   3.716   4.875   9.282
 4540TIP3    H137815   3.787   4.940   9.284
 4540TIP3    H237816   3.740   4.812   9.350
 4541TIP3   OH237817   3.766   4.678   9.470
 4541TIP3    H137818   3.673   4.662   9.487
 4541TIP3    H237819   3.803   4.698   9.556
 4542TIP3   OH237820   3.723   5.060   9.851
 4542TIP3    H137821   3.736   4.970   9.882
 4542TIP3    H237822   3.640   5.057   9.804
 4543TIP3   OH237823   3.745   4.686   9.084
 4543TIP3    H137824   3.703   4.719   9.004
 4543TIP3    H237825   3.731   4.755   9.149
 4544TIP3   OH237826   3.531   4.386   8.918
 4544TIP3    H137827   3.498   4.431   8.841
 4544TIP3    H237828   3.520   4.293   8.899
 4545TIP3   OH237829   3.497   4.607   9.470
 4545TIP3    H137830   3.478   4.524   9.426
 4545TIP3    H237831   3.464   4.595   9.560
 4546TIP3   OH237832   2.029   4.884   9.780
 4546TIP3    H137833   2.028   4.828   9.702
 4546TIP3    H237834   2.121   4.883   9.808
 4547TIP3   OH237835   3.487   4.126   8.845
 4547TIP3    H137836   3.528   4.075   8.915
 4547TIP3    H237837   3.394   4.106   8.851
 4548TIP3   OH237838   3.442   4.376   9.322
 4548TIP3    H137839   3.450   4.283   9.345
 4548TIP3    H237840   3.514   4.392   9.261
 4549TIP3   OH237841   3.511   4.400   9.891
 4549TIP3    H137842   3.601   4.375   9.868
 4549TIP3    H237843   3.521   4.481   9.941
 4550TIP3   OH237844   3.452   4.105   9.398
 4550TIP3    H137845   3.521   4.068   9.453
 4550TIP3    H237846   3.410   4.030   9.357
 4551TIP3   OH237847   2.127   4.140   9.763
 4551TIP3    H137848   2.157   4.051   9.785
 4551TIP3    H237849   2.189   4.198   9.807
 4552TIP3   OH237850   1.851   4.450   9.793
 4552TIP3    H137851   1.940   4.440   9.759
 4552TIP3    H237852   1.851   4.538   9.833
 4553TIP3   OH237853   3.648   3.997   9.027
 4553TIP3    H137854   3.706   3.949   8.968
 4553TIP3    H237855   3.704   4.065   9.065
 4554TIP3   OH237856   2.003   4.054   9.300
 4554TIP3    H137857   1.983   4.070   9.393
 4554TIP3    H237858   1.960   4.126   9.254
 4555TIP3   OH237859   3.384   5.600   9.570
 4555TIP3    H137860   3.444   5.573   9.501
 4555TIP3    H237861   3.432   5.668   9.618
 4556TIP3   OH237862   2.145   5.492   9.842
 4556TIP3    H137863   2.107   5.421   9.893
 4556TIP3    H237864   2.233   5.461   9.820
 4557TIP3   OH237865   2.373   5.358   9.763
 4557TIP3    H137866   2.365   5.271   9.803
 4557TIP3    H237867   2.464   5.384   9.779
 4558TIP3   OH237868   2.646   5.389   9.797
 4558TIP3    H137869   2.702   5.406   9.721
 4558TIP3    H237870   2.665   5.299   9.821
 4559TIP3   OH237871   2.929   3.941   9.780
 4559TIP3    H137872   2.861   3.878   9.804
 4559TIP3    H237873   3.004   3.887   9.754
 4560TIP3   OH237874   3.505   3.853   9.752
 4560TIP3    H137875   3.553   3.907   9.688
 4560TIP3    H237876   3.455   3.917   9.803
 4561TIP3   OH237877   3.644   3.977   9.551
 4561TIP3    H137878   3.696   3.900   9.528
 4561TIP3    H237879   3.707   4.049   9.550
 4562TIP3   OH237880   2.155   3.819   9.513
 4562TIP3    H137881   2.062   3.799   9.499
 4562TIP3    H237882   2.199   3.735   9.500
 4563TIP3   OH237883   2.101   3.843   9.155
 4563TIP3    H137884   2.159   3.891   9.095
 4563TIP3    H237885   2.065   3.911   9.212
 4564TIP3   OH237886   2.660   3.760   9.541
 4564TIP3    H137887   2.731   3.810   9.500
 4564TIP3    H237888   2.681   3.763   9.635
 4565TIP3   OH237889   3.141   3.767   9.715
 4565TIP3    H137890   3.209   3.761   9.648
 4565TIP3    H237891   3.152   3.688   9.768
 4566TIP3   OH237892   3.308   3.882   9.311
 4566TIP3    H137893   3.228   3.932   9.328
 4566TIP3    H237894   3.284   3.791   9.333
 4567TIP3   OH237895   2.054   5.467   9.240
 4567TIP3    H137896   1.980   5.471   9.180
 4567TIP3    H237897   2.105   5.546   9.219
 4568TIP3   OH237898   2.287   3.958   8.985
 4568TIP3    H137899   2.342   3.896   8.937
 4568TIP3    H237900   2.346   3.998   9.048
 4569TIP3   OH237901   2.723   4.043   9.229
 4569TIP3    H137902   2.762   3.972   9.280
 4569TIP3    H237903   2.738   4.121   9.282
 4570TIP3   OH237904   2.955   5.511   9.053
 4570TIP3    H137905   3.048   5.528   9.042
 4570TIP3    H237906   2.929   5.466   8.973
 4571TIP3   OH237907   3.545   5.505   9.362
 4571TIP3    H137908   3.548   5.414   9.331
 4571TIP3    H237909   3.540   5.557   9.282
 4572TIP3   OH237910   2.151   5.594   8.827
 4572TIP3    H137911   2.132   5.623   8.916
 4572TIP3    H237912   2.231   5.542   8.836
 4573TIP3   OH237913   4.962   4.765   9.511
 4573TIP3    H137914   4.948   4.858   9.498
 4573TIP3    H237915   4.910   4.723   9.442
 4574TIP3   OH237916   4.918   4.732   9.782
 4574TIP3    H137917   4.907   4.640   9.807
 4574TIP3    H237918   4.930   4.730   9.687
 4575TIP3   OH237919   5.336   5.014   9.653
 4575TIP3    H137920   5.288   4.940   9.689
 4575TIP3    H237921   5.372   5.059   9.729
 4576TIP3   OH237922   4.206   5.088   9.819
 4576TIP3    H137923   4.178   5.008   9.774
 4576TIP3    H237924   4.298   5.073   9.838
 4577TIP3   OH237925   3.818   4.417   9.388
 4577TIP3    H137926   3.811   4.508   9.417
 4577TIP3    H237927   3.763   4.412   9.310
 4578TIP3   OH237928   3.918   4.712   9.704
 4578TIP3    H137929   3.953   4.623   9.705
 4578TIP3    H237930   3.995   4.768   9.695
 4579TIP3   OH237931   5.016   5.425   9.715
 4579TIP3    H137932   5.085   5.391   9.658
 4579TIP3    H237933   4.936   5.382   9.686
 4580TIP3   OH237934   4.729   4.948   9.763
 4580TIP3    H137935   4.785   4.876   9.791
 4580TIP3    H237936   4.772   4.981   9.683
 4581TIP3   OH237937   4.906   4.443   9.819
 4581TIP3    H137938   4.921   4.362   9.868
 4581TIP3    H237939   4.946   4.427   9.734
 4582TIP3   OH237940   4.368   4.157   9.614
 4582TIP3    H137941   4.378   4.246   9.580
 4582TIP3    H237942   4.311   4.113   9.552
 4583TIP3   OH237943   5.156   4.161   9.533
 4583TIP3    H137944   5.170   4.145   9.627
 4583TIP3    H237945   5.241   4.143   9.493
 4584TIP3   OH237946   4.015   4.455   9.698
 4584TIP3    H137947   4.082   4.412   9.752
 4584TIP3    H237948   4.031   4.422   9.610
 4585TIP3   OH237949   4.460   4.585   9.647
 4585TIP3    H137950   4.537   4.536   9.675
 4585TIP3    H237951   4.408   4.523   9.596
 4586TIP3   OH237952   4.899   5.020   9.435
 4586TIP3    H137953   4.894   5.020   9.339
 4586TIP3    H237954   4.895   5.112   9.460
 4587TIP3   OH237955   5.197   4.146   9.803
 4587TIP3    H137956   5.110   4.151   9.844
 4587TIP3    H237957   5.245   4.220   9.839
 4588TIP3   OH237958   4.206   4.284   9.811
 4588TIP3    H137959   4.261   4.300   9.888
 4588TIP3    H237960   4.265   4.241   9.749
 4589TIP3   OH237961   3.924   5.055   9.269
 4589TIP3    H137962   3.927   5.093   9.182
 4589TIP3    H237963   3.935   5.129   9.329
 4590TIP3   OH237964   5.420   5.178   9.878
 4590TIP3    H137965   5.344   5.183   9.935
 4590TIP3    H237966   5.425   5.265   9.837
 4591TIP3   OH237967   4.594   3.789   9.799
 4591TIP3    H137968   4.569   3.702   9.830
 4591TIP3    H237969   4.515   3.842   9.810
 4592TIP3   OH237970   5.183   5.342   9.502
 4592TIP3    H137971   5.236   5.268   9.472
 4592TIP3    H237972   5.247   5.408   9.530
 4593TIP3   OH237973   5.346   5.140   9.408
 4593TIP3    H137974   5.334   5.071   9.344
 4593TIP3    H237975   5.350   5.095   9.492
 4594TIP3   OH237976   4.838   4.685   9.277
 4594TIP3    H137977   4.766   4.745   9.257
 4594TIP3    H237978   4.904   4.705   9.210
 4595TIP3   OH237979   4.889   4.638   8.917
 4595TIP3    H137980   4.942   4.657   8.995
 4595TIP3    H237981   4.938   4.571   8.870
 4596TIP3   OH237982   5.199   4.729   9.363
 4596TIP3    H137983   5.131   4.742   9.429
 4596TIP3    H237984   5.269   4.682   9.409
 4597TIP3   OH237985   4.346   4.784   9.487
 4597TIP3    H137986   4.322   4.734   9.409
 4597TIP3    H237987   4.397   4.724   9.540
 4598TIP3   OH237988   4.500   5.105   9.799
 4598TIP3    H137989   4.491   5.130   9.707
 4598TIP3    H237990   4.576   5.047   9.801
 4599TIP3   OH237991   4.369   4.752   9.845
 4599TIP3    H137992   4.403   4.689   9.781
 4599TIP3    H237993   4.447   4.783   9.891
 4600TIP3   OH237994   5.081   4.672   9.120
 4600TIP3    H137995   5.122   4.702   9.201
 4600TIP3    H237996   5.148   4.686   9.053
 4601TIP3   OH237997   4.908   5.292   9.482
 4601TIP3    H137998   5.002   5.308   9.479
 4601TIP3    H237999   4.870   5.367   9.436
 4602TIP3   OH238000   5.454   3.807   9.125
 4602TIP3    H138001   5.367   3.834   9.154
 4602TIP3    H238002   5.490   3.884   9.082
 4603TIP3   OH238003   4.263   4.655   9.255
 4603TIP3    H138004   4.199   4.721   9.229
 4603TIP3    H238005   4.221   4.572   9.235
 4604TIP3   OH238006   5.577   5.269   8.989
 4604TIP3    H138007   5.579   5.364   8.979
 4604TIP3    H238008   5.668   5.244   9.001
 4605TIP3   OH238009   3.948   5.218   9.871
 4605TIP3    H138010   4.023   5.159   9.864
 4605TIP3    H238011   3.872   5.161   9.873
 4606TIP3   OH238012   4.851   5.537   9.346
 4606TIP3    H138013   4.832   5.548   9.252
 4606TIP3    H238014   4.810   5.612   9.387
 4607TIP3   OH238015   4.153   5.453   9.501
 4607TIP3    H138016   4.180   5.415   9.585
 4607TIP3    H238017   4.092   5.388   9.464
 4608TIP3   OH238018   5.128   5.538   9.027
 4608TIP3    H138019   5.179   5.466   8.991
 4608TIP3    H238020   5.144   5.534   9.121
 4609TIP3   OH238021   5.120   5.522   9.302
 4609TIP3    H138022   5.027   5.530   9.323
 4609TIP3    H238023   5.153   5.456   9.363
 4610TIP3   OH238024   4.369   3.949   9.800
 4610TIP3    H138025   4.277   3.924   9.806
 4610TIP3    H238026   4.370   4.021   9.736
 4611TIP3   OH238027   5.269   4.691   8.923
 4611TIP3    H138028   5.238   4.707   8.834
 4611TIP3    H238029   5.362   4.715   8.920
 4612TIP3   OH238030   4.752   4.122   9.005
 4612TIP3    H138031   4.684   4.122   9.072
 4612TIP3    H238032   4.730   4.048   8.949
 4613TIP3   OH238033   4.332   4.402   9.494
 4613TIP3    H138034   4.238   4.390   9.485
 4613TIP3    H238035   4.366   4.389   9.405
 4614TIP3   OH238036   4.872   4.421   9.342
 4614TIP3    H138037   4.846   4.511   9.323
 4614TIP3    H238038   4.949   4.406   9.287
 4615TIP3   OH238039   5.012   4.388   9.576
 4615TIP3    H138040   4.955   4.405   9.501
 4615TIP3    H238041   5.057   4.307   9.555
 4616TIP3   OH238042   4.441   4.140   8.899
 4616TIP3    H138043   4.407   4.129   8.988
 4616TIP3    H238044   4.382   4.203   8.858
 4617TIP3   OH238045   3.831   4.170   9.529
 4617TIP3    H138046   3.879   4.174   9.611
 4617TIP3    H238047   3.818   4.262   9.504
 4618TIP3   OH238048   3.803   4.205   9.116
 4618TIP3    H138049   3.879   4.243   9.071
 4618TIP3    H238050   3.745   4.280   9.133
 4619TIP3   OH238051   4.659   4.137   9.619
 4619TIP3    H138052   4.566   4.120   9.636
 4619TIP3    H238053   4.705   4.081   9.681
 4620TIP3   OH238054   4.074   4.331   9.456
 4620TIP3    H138055   3.991   4.349   9.412
 4620TIP3    H238056   4.091   4.238   9.439
 4621TIP3   OH238057   4.415   4.336   9.244
 4621TIP3    H138058   4.505   4.310   9.265
 4621TIP3    H238059   4.422   4.379   9.159
 4622TIP3   OH238060   4.935   4.173   9.906
 4622TIP3    H138061   4.910   4.152   9.996
 4622TIP3    H238062   4.892   4.105   9.853
 4623TIP3   OH238063   4.412   4.441   8.992
 4623TIP3    H138064   4.358   4.412   8.919
 4623TIP3    H238065   4.486   4.486   8.951
 4624TIP3   OH238066   4.652   4.406   9.715
 4624TIP3    H138067   4.665   4.316   9.683
 4624TIP3    H238068   4.734   4.427   9.760
 4625TIP3   OH238069   4.187   4.068   9.425
 4625TIP3    H138070   4.140   3.989   9.451
 4625TIP3    H238071   4.202   4.057   9.331
 4626TIP3   OH238072   4.638   4.866   9.215
 4626TIP3    H138073   4.570   4.835   9.155
 4626TIP3    H238074   4.590   4.916   9.281
 4627TIP3   OH238075   4.997   4.151   9.127
 4627TIP3    H138076   4.912   4.158   9.084
 4627TIP3    H238077   5.027   4.242   9.135
 4628TIP3   OH238078   5.107   4.399   9.197
 4628TIP3    H138079   5.194   4.386   9.235
 4628TIP3    H238080   5.109   4.489   9.164
 4629TIP3   OH238081   4.164   4.843   9.692
 4629TIP3    H138082   4.210   4.836   9.609
 4629TIP3    H238083   4.224   4.806   9.757
 4630TIP3   OH238084   4.852   5.025   9.151
 4630TIP3    H138085   4.818   5.114   9.156
 4630TIP3    H238086   4.775   4.969   9.165
 4631TIP3   OH238087   5.595   4.392   9.140
 4631TIP3    H138088   5.559   4.347   9.064
 4631TIP3    H238089   5.607   4.482   9.111
 4632TIP3   OH238090   5.470   5.332   9.243
 4632TIP3    H138091   5.432   5.265   9.299
 4632TIP3    H238092   5.483   5.289   9.158
 4633TIP3   OH238093   5.198   4.797   9.771
 4633TIP3    H138094   5.105   4.803   9.793
 4633TIP3    H238095   5.208   4.710   9.732
 4634TIP3   OH238096   4.428   5.219   9.554
 4634TIP3    H138097   4.448   5.288   9.491
 4634TIP3    H238098   4.357   5.256   9.608
 4635TIP3   OH238099   4.008   4.631   9.021
 4635TIP3    H138100   4.048   4.709   9.061
 4635TIP3    H238101   3.915   4.641   9.040
 4636TIP3   OH238102   4.466   5.009   9.378
 4636TIP3    H138103   4.459   5.079   9.443
 4636TIP3    H238104   4.419   4.935   9.418
 4637TIP3   OH238105   4.409   5.444   9.393
 4637TIP3    H138106   4.319   5.466   9.420
 4637TIP3    H238107   4.464   5.508   9.439
 4638TIP3   OH238108   5.250   5.077   9.012
 4638TIP3    H138109   5.267   5.026   9.091
 4638TIP3    H238110   5.160   5.052   8.987
 4639TIP3   OH238111   5.574   5.543   8.985
 4639TIP3    H138112   5.652   5.593   9.009
 4639TIP3    H238113   5.501   5.600   9.010
 4640TIP3   OH238114   5.334   4.928   9.230
 4640TIP3    H138115   5.285   4.860   9.275
 4640TIP3    H238116   5.425   4.899   9.233
 4641TIP3   OH238117   4.643   5.127   8.912
 4641TIP3    H138118   4.626   5.053   8.855
 4641TIP3    H238119   4.581   5.116   8.984
 4642TIP3   OH238120   4.459   5.127   9.126
 4642TIP3    H138121   4.465   5.089   9.213
 4642TIP3    H238122   4.471   5.221   9.140
 4643TIP3   OH238123   4.093   4.854   9.165
 4643TIP3    H138124   4.033   4.905   9.219
 4643TIP3    H238125   4.142   4.920   9.115
 4644TIP3   OH238126   5.005   4.012   9.359
 4644TIP3    H138127   5.000   4.063   9.278
 4644TIP3    H238128   5.047   4.071   9.421
 4645TIP3   OH238129   4.750   5.277   9.180
 4645TIP3    H138130   4.661   5.311   9.168
 4645TIP3    H238131   4.806   5.354   9.172
 4646TIP3   OH238132   4.659   4.249   9.364
 4646TIP3    H138133   4.732   4.309   9.354
 4646TIP3    H238134   4.659   4.225   9.457
 4647TIP3   OH238135   4.754   3.935   9.431
 4647TIP3    H138136   4.727   4.007   9.488
 4647TIP3    H238137   4.844   3.955   9.406
 4648TIP3   OH238138   4.497   5.400   9.141
 4648TIP3    H138139   4.529   5.485   9.112
 4648TIP3    H238140   4.461   5.416   9.228
 4649TIP3   OH238141   4.306   4.097   9.149
 4649TIP3    H138142   4.310   4.187   9.183
 4649TIP3    H238143   4.390   4.059   9.174
 4650TIP3   OH238144   5.218   4.534   9.685
 4650TIP3    H138145   5.142   4.489   9.648
 4650TIP3    H238146   5.245   4.480   9.759
 4651TIP3   OH238147   4.218   5.057   9.021
 4651TIP3    H138148   4.296   5.091   9.065
 4651TIP3    H238149   4.252   5.009   8.946
 4652TIP3   OH238150   3.994   4.353   8.993
 4652TIP3    H138151   4.008   4.443   9.024
 4652TIP3    H238152   4.000   4.358   8.898
 4653TIP3   OH238153   5.443   5.433   9.785
 4653TIP3    H138154   5.407   5.469   9.704
 4653TIP3    H238155   5.450   5.508   9.844
 4654TIP3   OH238156   4.095   3.894   9.771
 4654TIP3    H138157   4.088   3.875   9.677
 4654TIP3    H238158   4.072   3.811   9.814
 4655TIP3   OH238159   3.941   5.297   9.407
 4655TIP3    H138160   3.893   5.324   9.485
 4655TIP3    H238161   3.911   5.356   9.338
 4656TIP3   OH238162   4.809   5.339   8.871
 4656TIP3    H138163   4.753   5.265   8.895
 4656TIP3    H238164   4.890   5.298   8.839
 4657TIP3   OH238165   5.261   5.332   8.910
 4657TIP3    H138166   5.273   5.247   8.954
 4657TIP3    H238167   5.338   5.341   8.854
 4658TIP3   OH238168   4.345   4.892   8.845
 4658TIP3    H138169   4.368   4.840   8.922
 4658TIP3    H238170   4.429   4.909   8.801
 4659TIP3   OH238171   4.995   5.028   8.913
 4659TIP3    H138172   4.940   5.024   8.991
 4659TIP3    H238173   4.959   4.962   8.854
 4660TIP3   OH238174   4.440   4.751   9.060
 4660TIP3    H138175   4.389   4.703   9.125
 4660TIP3    H238176   4.492   4.684   9.015
 4661TIP3   OH238177   4.611   4.603   8.896
 4661TIP3    H138178   4.605   4.633   8.805
 4661TIP3    H238179   4.704   4.612   8.917
 4662TIP3   OH238180   5.533   4.780   8.841
 4662TIP3    H138181   5.519   4.762   8.748
 4662TIP3    H238182   5.515   4.873   8.850
 4663TIP3   OH238183   4.605   5.635   9.060
 4663TIP3    H138184   4.698   5.613   9.062
 4663TIP3    H238185   4.599   5.711   9.003
 4664TIP3   OH238186   3.954   5.131   9.004
 4664TIP3    H138187   4.050   5.131   9.011
 4664TIP3    H238188   3.935   5.064   8.939
 4665TIP3   OH238189   3.752   5.607   9.513
 4665TIP3    H138190   3.686   5.572   9.453
 4665TIP3    H238191   3.773   5.534   9.570
 4666TIP3   OH238192   3.850   5.393   9.655
 4666TIP3    H138193   3.829   5.314   9.704
 4666TIP3    H238194   3.910   5.442   9.711
 4667TIP3   OH238195   5.600   4.848   9.262
 4667TIP3    H138196   5.657   4.925   9.268
 4667TIP3    H238197   5.620   4.798   9.340
 4668TIP3   OH238198   5.655   4.689   9.480
 4668TIP3    H138199   5.567   4.659   9.505
 4668TIP3    H238200   5.693   4.720   9.562
 4669TIP3   OH238201   5.563   4.949   9.937
 4669TIP3    H138202   5.654   4.967   9.911
 4669TIP3    H238203   5.516   5.029   9.918
 4670TIP3   OH238204   5.636   4.657   9.066
 4670TIP3    H138205   5.602   4.693   8.984
 4670TIP3    H238206   5.615   4.723   9.132
 4671TIP3   OH238207   5.490   4.262   8.919
 4671TIP3    H138208   5.486   4.320   8.843
 4671TIP3    H238209   5.428   4.192   8.900
 4672TIP3   OH238210   5.397   4.573   9.483
 4672TIP3    H138211   5.388   4.492   9.432
 4672TIP3    H238212   5.347   4.556   9.562
 4673TIP3   OH238213   3.768   4.794   9.920
 4673TIP3    H138214   3.811   4.765   9.839
 4673TIP3    H238215   3.828   4.767   9.989
 4674TIP3   OH238216   5.343   4.050   8.831
 4674TIP3    H138217   5.355   3.959   8.803
 4674TIP3    H238218   5.248   4.058   8.843
 4675TIP3   OH238219   5.369   4.346   9.312
 4675TIP3    H138220   5.375   4.255   9.341
 4675TIP3    H238221   5.445   4.358   9.256
 4676TIP3   OH238222   5.313   4.381   9.898
 4676TIP3    H138223   5.404   4.401   9.876
 4676TIP3    H238224   5.298   4.427   9.980
 4677TIP3   OH238225   5.385   4.068   9.405
 4677TIP3    H138226   5.427   4.027   9.480
 4677TIP3    H238227   5.337   3.997   9.363
 4678TIP3   OH238228   3.969   4.144   9.769
 4678TIP3    H138229   3.997   4.053   9.778
 4678TIP3    H238230   4.047   4.195   9.791
 4679TIP3   OH238231   3.776   4.347   9.815
 4679TIP3    H138232   3.820   4.262   9.819
 4679TIP3    H238233   3.843   4.406   9.780
 4680TIP3   OH238234   5.608   4.016   9.018
 4680TIP3    H138235   5.634   3.969   8.939
 4680TIP3    H238236   5.583   4.103   8.987
 4681TIP3   OH238237   3.909   4.032   9.299
 4681TIP3    H138238   3.883   4.067   9.385
 4681TIP3    H238239   3.870   4.093   9.236
 4682TIP3   OH238240   5.340   5.556   9.563
 4682TIP3    H138241   5.386   5.581   9.483
 4682TIP3    H238242   5.302   5.638   9.595
 4683TIP3   OH238243   4.032   5.480   9.847
 4683TIP3    H138244   3.995   5.401   9.885
 4683TIP3    H238245   4.117   5.453   9.812
 4684TIP3   OH238246   4.251   5.345   9.738
 4684TIP3    H138247   4.224   5.260   9.772
 4684TIP3    H238248   4.326   5.369   9.792
 4685TIP3   OH238249   4.479   5.367   9.896
 4685TIP3    H138250   4.500   5.278   9.868
 4685TIP3    H238251   4.501   5.369   9.989
 4686TIP3   OH238252   4.811   3.963   9.772
 4686TIP3    H138253   4.745   3.896   9.790
 4686TIP3    H238254   4.888   3.913   9.744
 4687TIP3   OH238255   5.358   3.834   9.782
 4687TIP3    H138256   5.421   3.888   9.734
 4687TIP3    H238257   5.286   3.894   9.802
 4688TIP3   OH238258   5.536   3.954   9.606
 4688TIP3    H138259   5.584   3.877   9.576
 4688TIP3    H238260   5.604   4.017   9.628
 4689TIP3   OH238261   4.068   3.828   9.505
 4689TIP3    H138262   3.977   3.814   9.480
 4689TIP3    H238263   4.111   3.745   9.486
 4690TIP3   OH238264   3.997   3.827   9.140
 4690TIP3    H138265   4.041   3.875   9.070
 4690TIP3    H238266   3.969   3.894   9.202
 4691TIP3   OH238267   4.576   3.743   9.525
 4691TIP3    H138268   4.634   3.808   9.485
 4691TIP3    H238269   4.588   3.755   9.619
 4692TIP3   OH238270   5.033   3.808   9.703
 4692TIP3    H138271   5.094   3.788   9.632
 4692TIP3    H238272   5.008   3.723   9.739
 4693TIP3   OH238273   5.231   3.869   9.287
 4693TIP3    H138274   5.147   3.913   9.303
 4693TIP3    H238275   5.211   3.776   9.295
 4694TIP3   OH238276   3.868   5.476   9.215
 4694TIP3    H138277   3.803   5.475   9.145
 4694TIP3    H238278   3.922   5.553   9.197
 4695TIP3   OH238279   4.147   3.975   8.954
 4695TIP3    H138280   4.205   3.918   8.904
 4695TIP3    H238281   4.203   4.013   9.022
 4696TIP3   OH238282   4.566   4.044   9.202
 4696TIP3    H138283   4.598   3.954   9.211
 4696TIP3    H238284   4.608   4.092   9.273
 4697TIP3   OH238285   4.857   5.523   9.066
 4697TIP3    H138286   4.949   5.543   9.052
 4697TIP3    H238287   4.834   5.462   8.996
 4698TIP3   OH238288   5.469   5.593   9.320
 4698TIP3    H138289   5.460   5.503   9.289
 4698TIP3    H238290   5.454   5.646   9.242
 4699TIP3   OH238291   4.065   5.487   8.937
 4699TIP3    H138292   4.043   5.542   9.013
 4699TIP3    H238293   4.158   5.467   8.948
 4700TIP3   OH238294   6.907   4.697   9.484
 4700TIP3    H138295   6.913   4.745   9.566
 4700TIP3    H238296   6.821   4.720   9.449
 4701TIP3   OH238297   6.687   4.668   9.808
 4701TIP3    H138298   6.710   4.587   9.854
 4701TIP3    H238299   6.648   4.639   9.726
 4702TIP3   OH238300   7.047   5.021   9.672
 4702TIP3    H138301   7.021   4.939   9.716
 4702TIP3    H238302   7.071   5.079   9.743
 4703TIP3   OH238303   6.104   5.068   9.816
 4703TIP3    H138304   6.098   4.982   9.775
 4703TIP3    H238305   6.195   5.076   9.842
 4704TIP3   OH238306   5.753   4.452   9.370
 4704TIP3    H138307   5.726   4.536   9.408
 4704TIP3    H238308   5.691   4.438   9.298
 4705TIP3   OH238309   5.822   4.757   9.706
 4705TIP3    H138310   5.820   4.671   9.747
 4705TIP3    H238311   5.915   4.776   9.693
 4706TIP3   OH238312   6.786   5.462   9.721
 4706TIP3    H138313   6.851   5.402   9.684
 4706TIP3    H238314   6.702   5.427   9.691
 4707TIP3   OH238315   6.594   4.934   9.844
 4707TIP3    H138316   6.618   4.842   9.833
 4707TIP3    H238317   6.676   4.977   9.870
 4708TIP3   OH238318   6.770   4.400   9.829
 4708TIP3    H138319   6.795   4.319   9.873
 4708TIP3    H238320   6.833   4.410   9.758
 4709TIP3   OH238321   6.238   4.224   9.637
 4709TIP3    H138322   6.207   4.298   9.583
 4709TIP3    H238323   6.216   4.146   9.585
 4710TIP3   OH238324   7.043   4.220   9.509
 4710TIP3    H138325   7.070   4.217   9.601
 4710TIP3    H238326   7.121   4.247   9.462
 4711TIP3   OH238327   5.840   4.494   9.808
 4711TIP3    H138328   5.935   4.485   9.814
 4711TIP3    H238329   5.806   4.406   9.826
 4712TIP3   OH238330   6.356   4.560   9.587
 4712TIP3    H138331   6.446   4.528   9.587
 4712TIP3    H238332   6.307   4.494   9.539
 4713TIP3   OH238333   6.809   5.018   9.488
 4713TIP3    H138334   6.891   5.035   9.441
 4713TIP3    H238335   6.835   5.019   9.581
 4714TIP3   OH238336   7.092   4.242   9.779
 4714TIP3    H138337   7.020   4.210   9.833
 4714TIP3    H238338   7.149   4.289   9.840
 4715TIP3   OH238339   6.105   4.392   9.830
 4715TIP3    H138340   6.155   4.472   9.846
 4715TIP3    H238341   6.163   4.338   9.776
 4716TIP3   OH238342   5.781   5.060   9.273
 4716TIP3    H138343   5.781   5.105   9.188
 4716TIP3    H238344   5.802   5.128   9.337
 4717TIP3   OH238345   7.113   5.195   9.873
 4717TIP3    H138346   7.111   5.202   9.969
 4717TIP3    H238347   7.145   5.281   9.844
 4718TIP3   OH238348   6.451   3.842   9.779
 4718TIP3    H138349   6.430   3.750   9.794
 4718TIP3    H238350   6.373   3.890   9.806
 4719TIP3   OH238351   6.942   5.309   9.544
 4719TIP3    H138352   6.984   5.234   9.501
 4719TIP3    H238353   7.009   5.378   9.541
 4720TIP3   OH238354   7.063   5.091   9.413
 4720TIP3    H138355   7.139   5.063   9.362
 4720TIP3    H238356   7.081   5.062   9.502
 4721TIP3   OH238357   6.675   4.734   9.336
 4721TIP3    H138358   6.584   4.742   9.308
 4721TIP3    H238359   6.716   4.816   9.308
 4722TIP3   OH238360   6.783   4.616   8.931
 4722TIP3    H138361   6.840   4.632   9.006
 4722TIP3    H238362   6.828   4.548   8.881
 4723TIP3   OH238363   7.125   4.742   9.324
 4723TIP3    H138364   7.045   4.737   9.375
 4723TIP3    H238365   7.188   4.688   9.372
 4724TIP3   OH238366   6.267   4.795   9.480
 4724TIP3    H138367   6.210   4.758   9.413
 4724TIP3    H238368   6.314   4.720   9.516
 4725TIP3   OH238369   6.382   5.118   9.831
 4725TIP3    H138370   6.375   5.137   9.737
 4725TIP3    H238371   6.453   5.053   9.836
 4726TIP3   OH238372   6.257   4.626   9.831
 4726TIP3    H138373   6.302   4.607   9.749
 4726TIP3    H238374   6.326   4.660   9.889
 4727TIP3   OH238375   7.009   4.636   9.095
 4727TIP3    H138376   7.051   4.681   9.168
 4727TIP3    H238377   7.068   4.650   9.021
 4728TIP3   OH238378   6.675   5.311   9.491
 4728TIP3    H138379   6.769   5.311   9.511
 4728TIP3    H238380   6.660   5.395   9.447
 4729TIP3   OH238381   7.343   3.778   9.163
 4729TIP3    H138382   7.254   3.801   9.189
 4729TIP3    H238383   7.376   3.855   9.116
 4730TIP3   OH238384   6.078   4.659   9.319
 4730TIP3    H138385   6.049   4.747   9.293
 4730TIP3    H238386   6.035   4.600   9.257
 4731TIP3   OH238387   7.499   5.235   9.006
 4731TIP3    H138388   7.508   5.330   8.998
 4731TIP3    H238389   7.589   5.202   9.005
 4732TIP3   OH238390   5.708   5.266   9.902
 4732TIP3    H138391   5.749   5.183   9.877
 4732TIP3    H238392   5.616   5.245   9.916
 4733TIP3   OH238393   6.682   5.559   9.363
 4733TIP3    H138394   6.615   5.578   9.298
 4733TIP3    H238395   6.684   5.638   9.418
 4734TIP3   OH238396   6.038   5.459   9.538
 4734TIP3    H138397   6.051   5.425   9.627
 4734TIP3    H238398   5.982   5.394   9.495
 4735TIP3   OH238399   6.964   5.494   9.018
 4735TIP3    H138400   7.033   5.432   8.995
 4735TIP3    H238401   6.965   5.497   9.114
 4736TIP3   OH238402   6.947   5.520   9.287
 4736TIP3    H138403   6.855   5.527   9.313
 4736TIP3    H238404   6.994   5.506   9.369
 4737TIP3   OH238405   6.224   3.991   9.807
 4737TIP3    H138406   6.131   3.966   9.805
 4737TIP3    H238407   6.226   4.078   9.769
 4738TIP3   OH238408   7.170   4.686   8.879
 4738TIP3    H138409   7.134   4.712   8.794
 4738TIP3    H238410   7.262   4.710   8.874
 4739TIP3   OH238411   6.651   4.069   9.000
 4739TIP3    H138412   6.590   4.082   9.072
 4739TIP3    H238413   6.616   3.994   8.952
 4740TIP3   OH238414   6.142   4.417   9.462
 4740TIP3    H138415   6.103   4.502   9.442
 4740TIP3    H238416   6.177   4.386   9.378
 4741TIP3   OH238417   6.730   4.461   9.353
 4741TIP3    H138418   6.720   4.555   9.334
 4741TIP3    H238419   6.809   4.436   9.304
 4742TIP3   OH238420   6.911   4.443   9.602
 4742TIP3    H138421   6.911   4.516   9.540
 4742TIP3    H238422   6.941   4.368   9.550
 4743TIP3   OH238423   6.338   4.120   8.889
 4743TIP3    H138424   6.304   4.115   8.978
 4743TIP3    H238425   6.275   4.173   8.841
 4744TIP3   OH238426   5.760   4.107   9.647
 4744TIP3    H138427   5.780   4.154   9.728
 4744TIP3    H238428   5.803   4.158   9.579
 4745TIP3   OH238429   5.843   4.227   9.154
 4745TIP3    H138430   5.904   4.277   9.099
 4745TIP3    H238431   5.763   4.280   9.154
 4746TIP3   OH238432   6.530   4.159   9.608
 4746TIP3    H138433   6.444   4.177   9.645
 4746TIP3    H238434   6.580   4.120   9.680
 4747TIP3   OH238435   5.906   4.245   9.456
 4747TIP3    H138436   5.848   4.315   9.426
 4747TIP3    H238437   5.989   4.290   9.475
 4748TIP3   OH238438   6.271   4.341   9.237
 4748TIP3    H138439   6.359   4.334   9.275
 4748TIP3    H238440   6.285   4.373   9.148
 4749TIP3   OH238441   6.860   4.150   9.911
 4749TIP3    H138442   6.859   4.107   9.997
 4749TIP3    H238443   6.802   4.096   9.857
 4750TIP3   OH238444   6.321   4.421   8.982
 4750TIP3    H138445   6.270   4.384   8.909
 4750TIP3    H238446   6.396   4.463   8.939
 4751TIP3   OH238447   6.613   4.482   9.607
 4751TIP3    H138448   6.667   4.472   9.529
 4751TIP3    H238449   6.659   4.432   9.675
 4752TIP3   OH238450   6.168   4.009   9.487
 4752TIP3    H138451   6.087   3.958   9.489
 4752TIP3    H238452   6.238   3.943   9.483
 4753TIP3   OH238453   6.461   4.842   9.185
 4753TIP3    H138454   6.401   4.787   9.133
 4753TIP3    H238455   6.421   4.928   9.184
 4754TIP3   OH238456   6.886   4.133   9.130
 4754TIP3    H138457   6.805   4.128   9.079
 4754TIP3    H238458   6.902   4.227   9.141
 4755TIP3   OH238459   6.966   4.392   9.217
 4755TIP3    H138460   7.051   4.371   9.254
 4755TIP3    H238461   6.981   4.472   9.167
 4756TIP3   OH238462   6.096   4.816   9.702
 4756TIP3    H138463   6.148   4.821   9.622
 4756TIP3    H238464   6.141   4.750   9.755
 4757TIP3   OH238465   6.707   4.972   9.200
 4757TIP3    H138466   6.757   4.992   9.121
 4757TIP3    H238467   6.627   4.929   9.167
 4758TIP3   OH238468   7.423   4.465   9.159
 4758TIP3    H138469   7.383   4.422   9.084
 4758TIP3    H238470   7.468   4.541   9.123
 4759TIP3   OH238471   7.346   5.244   9.237
 4759TIP3    H138472   7.312   5.155   9.249
 4759TIP3    H238473   7.400   5.239   9.158
 4760TIP3   OH238474   6.939   4.780   9.749
 4760TIP3    H138475   6.861   4.740   9.787
 4760TIP3    H238476   7.007   4.713   9.759
 4761TIP3   OH238477   6.293   5.200   9.581
 4761TIP3    H138478   6.313   5.285   9.542
 4761TIP3    H238479   6.198   5.201   9.592
 4762TIP3   OH238480   5.914   4.654   9.067
 4762TIP3    H138481   5.934   4.738   9.109
 4762TIP3    H238482   5.818   4.647   9.072
 4763TIP3   OH238483   6.443   5.017   9.446
 4763TIP3    H138484   6.388   5.081   9.492
 4763TIP3    H238485   6.392   4.936   9.446
 4764TIP3   OH238486   6.308   5.448   9.467
 4764TIP3    H138487   6.219   5.480   9.482
 4764TIP3    H238488   6.364   5.518   9.501
 4765TIP3   OH238489   7.112   5.064   9.024
 4765TIP3    H138490   7.148   5.033   9.107
 4765TIP3    H238491   7.020   5.037   9.026
 4766TIP3   OH238492   7.529   5.509   9.007
 4766TIP3    H138493   7.536   5.570   8.934
 4766TIP3    H238494   7.463   5.549   9.065
 4767TIP3   OH238495   7.256   4.971   9.247
 4767TIP3    H138496   7.210   4.891   9.271
 4767TIP3    H238497   7.348   4.946   9.242
 4768TIP3   OH238498   6.551   5.065   8.920
 4768TIP3    H138499   6.506   5.013   8.853
 4768TIP3    H238500   6.484   5.080   8.986
 4769TIP3   OH238501   6.352   5.086   9.124
 4769TIP3    H138502   6.263   5.077   9.090
 4769TIP3    H238503   6.356   5.174   9.159
 4770TIP3   OH238504   5.983   4.890   9.193
 4770TIP3    H138505   5.913   4.940   9.234
 4770TIP3    H238506   6.029   4.953   9.138
 4771TIP3   OH238507   6.902   4.024   9.377
 4771TIP3    H138508   6.897   4.063   9.290
 4771TIP3    H238509   6.948   4.089   9.430
 4772TIP3   OH238510   6.607   5.277   9.200
 4772TIP3    H138511   6.515   5.304   9.201
 4772TIP3    H238512   6.652   5.348   9.155
 4773TIP3   OH238513   6.509   4.300   9.369
 4773TIP3    H138514   6.585   4.358   9.358
 4773TIP3    H238515   6.519   4.263   9.456
 4774TIP3   OH238516   6.639   3.969   9.434
 4774TIP3    H138517   6.613   4.036   9.497
 4774TIP3    H238518   6.732   3.984   9.420
 4775TIP3   OH238519   6.344   5.345   9.216
 4775TIP3    H138520   6.303   5.407   9.156
 4775TIP3    H238521   6.329   5.382   9.303
 4776TIP3   OH238522   6.222   4.086   9.136
 4776TIP3    H138523   6.209   4.171   9.177
 4776TIP3    H238524   6.304   4.054   9.173
 4777TIP3   OH238525   7.118   4.565   9.733
 4777TIP3    H138526   7.051   4.503   9.704
 4777TIP3    H238527   7.164   4.520   9.804
 4778TIP3   OH238528   6.096   5.071   9.006
 4778TIP3    H138529   6.133   5.153   8.973
 4778TIP3    H238530   6.118   5.006   8.940
 4779TIP3   OH238531   5.996   4.394   9.004
 4779TIP3    H138532   5.974   4.486   9.014
 4779TIP3    H238533   6.048   4.390   8.924
 4780TIP3   OH238534   7.223   5.442   9.822
 4780TIP3    H138535   7.191   5.528   9.795
 4780TIP3    H238536   7.317   5.445   9.804
 4781TIP3   OH238537   5.952   3.942   9.782
 4781TIP3    H138538   5.887   3.975   9.720
 4781TIP3    H238539   5.928   3.851   9.798
 4782TIP3   OH238540   5.845   5.281   9.438
 4782TIP3    H138541   5.789   5.311   9.509
 4782TIP3    H238542   5.818   5.334   9.363
 4783TIP3   OH238543   6.645   5.316   8.836
 4783TIP3    H138544   6.599   5.237   8.865
 4783TIP3    H238545   6.736   5.287   8.824
 4784TIP3   OH238546   7.144   5.317   8.915
 4784TIP3    H138547   7.155   5.233   8.959
 4784TIP3    H238548   7.212   5.319   8.848
 4785TIP3   OH238549   6.190   4.876   8.835
 4785TIP3    H138550   6.218   4.817   8.905
 4785TIP3    H238551   6.270   4.894   8.786
 4786TIP3   OH238552   6.820   5.015   8.950
 4786TIP3    H138553   6.729   5.040   8.939
 4786TIP3    H238554   6.834   4.947   8.884
 4787TIP3   OH238555   6.298   4.700   9.014
 4787TIP3    H138556   6.259   4.616   9.041
 4787TIP3    H238557   6.375   4.675   8.963
 4788TIP3   OH238558   6.510   4.598   8.875
 4788TIP3    H138559   6.511   4.624   8.783
 4788TIP3    H238560   6.601   4.604   8.903
 4789TIP3   OH238561   7.440   4.796   8.830
 4789TIP3    H138562   7.418   4.782   8.738
 4789TIP3    H238563   7.407   4.884   8.849
 4790TIP3   OH238564   6.497   5.647   9.166
 4790TIP3    H138565   6.559   5.603   9.109
 4790TIP3    H238566   6.411   5.625   9.130
 4791TIP3   OH238567   5.821   5.137   9.005
 4791TIP3    H138568   5.916   5.140   9.010
 4791TIP3    H238569   5.803   5.086   8.926
 4792TIP3   OH238570   5.674   5.643   9.497
 4792TIP3    H138571   5.614   5.631   9.424
 4792TIP3    H238572   5.679   5.557   9.538
 4793TIP3   OH238573   5.706   5.411   9.639
 4793TIP3    H138574   5.634   5.377   9.692
 4793TIP3    H238575   5.767   5.448   9.703
 4794TIP3   OH238576   7.518   4.881   9.253
 4794TIP3    H138577   7.594   4.938   9.262
 4794TIP3    H238578   7.518   4.828   9.332
 4795TIP3   OH238579   7.499   4.713   9.469
 4795TIP3    H138580   7.414   4.670   9.480
 4795TIP3    H238581   7.535   4.719   9.557
 4796TIP3   OH238582   7.546   4.894   9.926
 4796TIP3    H138583   7.637   4.896   9.956
 4796TIP3    H238584   7.523   4.986   9.913
 4797TIP3   OH238585   7.561   4.691   9.055
 4797TIP3    H138586   7.519   4.722   8.974
 4797TIP3    H238587   7.542   4.759   9.119
 4798TIP3   OH238588   7.301   4.350   8.942
 4798TIP3    H138589   7.262   4.395   8.867
 4798TIP3    H238590   7.286   4.257   8.925
 4799TIP3   OH238591   7.263   4.576   9.494
 4799TIP3    H138592   7.255   4.486   9.462
 4799TIP3    H238593   7.220   4.575   9.579
 4800TIP3   OH238594   5.815   5.017   9.832
 4800TIP3    H138595   5.809   4.935   9.782
 4800TIP3    H238596   5.908   5.037   9.834
 4801TIP3   OH238597   7.241   4.093   8.848
 4801TIP3    H138598   7.152   4.067   8.872
 4801TIP3    H238599   7.240   4.095   8.752
 4802TIP3   OH238600   7.232   4.338   9.328
 4802TIP3    H138601   7.255   4.246   9.321
 4802TIP3    H238602   7.298   4.383   9.275
 4803TIP3   OH238603   7.248   4.423   9.931
 4803TIP3    H138604   7.338   4.424   9.898
 4803TIP3    H238605   7.248   4.487  10.001
 4804TIP3   OH238606   7.262   4.058   9.346
 4804TIP3    H138607   7.285   4.028   9.434
 4804TIP3    H238608   7.204   3.990   9.312
 4805TIP3   OH238609   5.892   4.216   9.862
 4805TIP3    H138610   5.925   4.127   9.877
 4805TIP3    H238611   5.969   4.271   9.868
 4806TIP3   OH238612   5.558   4.491   9.851
 4806TIP3    H138613   5.650   4.514   9.838
 4806TIP3    H238614   5.516   4.574   9.876
 4807TIP3   OH238615   7.442   3.981   9.003
 4807TIP3    H138616   7.493   3.932   8.938
 4807TIP3    H238617   7.375   4.026   8.951
 4808TIP3   OH238618   5.640   4.053   9.295
 4808TIP3    H138619   5.554   4.065   9.336
 4808TIP3    H238620   5.620   4.044   9.201
 4809TIP3   OH238621   7.116   5.512   9.504
 4809TIP3    H138622   7.202   5.505   9.463
 4809TIP3    H238623   7.129   5.572   9.577
 4810TIP3   OH238624   5.869   5.491   9.851
 4810TIP3    H138625   5.813   5.425   9.893
 4810TIP3    H238626   5.952   5.446   9.837
 4811TIP3   OH238627   6.094   5.345   9.786
 4811TIP3    H138628   6.087   5.252   9.804
 4811TIP3    H238629   6.177   5.371   9.826
 4812TIP3   OH238630   6.343   5.383   9.915
 4812TIP3    H138631   6.370   5.295   9.886
 4812TIP3    H238632   6.357   5.382  10.010
 4813TIP3   OH238633   6.687   3.987   9.767
 4813TIP3    H138634   6.611   3.931   9.782
 4813TIP3    H238635   6.755   3.928   9.735
 4814TIP3   OH238636   7.185   3.823   9.749
 4814TIP3    H138637   7.246   3.882   9.705
 4814TIP3    H238638   7.108   3.877   9.768
 4815TIP3   OH238639   7.361   3.958   9.588
 4815TIP3    H138640   7.422   3.885   9.584
 4815TIP3    H238641   7.416   4.036   9.583
 4816TIP3   OH238642   5.913   3.876   9.455
 4816TIP3    H138643   5.823   3.848   9.472
 4816TIP3    H238644   5.967   3.800   9.478
 4817TIP3   OH238645   5.853   3.900   9.138
 4817TIP3    H138646   5.913   3.928   9.069
 4817TIP3    H238647   5.766   3.915   9.101
 4818TIP3   OH238648   6.398   3.843   9.508
 4818TIP3    H138649   6.476   3.880   9.466
 4818TIP3    H238650   6.417   3.848   9.601
 4819TIP3   OH238651   6.883   3.811   9.687
 4819TIP3    H138652   6.924   3.795   9.601
 4819TIP3    H238653   6.897   3.729   9.735
 4820TIP3   OH238654   7.092   3.848   9.271
 4820TIP3    H138655   7.023   3.905   9.306
 4820TIP3    H238656   7.055   3.760   9.277
 4821TIP3   OH238657   5.741   5.427   9.237
 4821TIP3    H138658   5.647   5.413   9.230
 4821TIP3    H238659   5.756   5.514   9.199
 4822TIP3   OH238660   6.029   4.001   8.956
 4822TIP3    H138661   6.066   3.932   8.901
 4822TIP3    H238662   6.100   4.025   9.015
 4823TIP3   OH238663   6.486   4.070   9.223
 4823TIP3    H138664   6.536   4.012   9.280
 4823TIP3    H238665   6.489   4.155   9.267
 4824TIP3   OH238666   6.686   5.493   9.040
 4824TIP3    H138667   6.780   5.508   9.028
 4824TIP3    H238668   6.659   5.446   8.961
 4825TIP3   OH238669   7.351   5.489   9.362
 4825TIP3    H138670   7.350   5.400   9.326
 4825TIP3    H238671   7.355   5.546   9.285
 4826TIP3   OH238672   5.937   5.480   8.937
 4826TIP3    H138673   5.886   5.515   9.011
 4826TIP3    H238674   6.028   5.497   8.962
 4827TIP3   OH238675   7.639   4.515   9.338
 4827TIP3    H138676   7.593   4.585   9.383
 4827TIP3    H238677   7.573   4.476   9.280
 4828TIP3   OH238678   7.588   5.172   9.913
 4828TIP3    H138679   7.680   5.172   9.887
 4828TIP3    H238680   7.584   5.228   9.991
 4829TIP3   OH238681   7.503   4.183   9.524
 4829TIP3    H138682   7.582   4.221   9.563
 4829TIP3    H238683   7.519   4.185   9.429
 4830TIP3   OH238684   7.495   5.600   9.567
 4830TIP3    H138685   7.447   5.561   9.494
 4830TIP3    H238686   7.484   5.538   9.638
 4831TIP3   OH238687   7.496   5.406   9.767
 4831TIP3    H138688   7.485   5.313   9.787
 4831TIP3    H238689   7.589   5.422   9.782
 4832TIP3   OH238690   7.604   4.715   9.723
 4832TIP3    H138691   7.699   4.720   9.730
 4832TIP3    H238692   7.572   4.780   9.786
 4833TIP3   OH238693   7.505   4.492   9.858
 4833TIP3    H138694   7.584   4.441   9.879
 4833TIP3    H238695   7.535   4.556   9.794
 4834TIP3   OH238696   7.514   4.103   9.244
 4834TIP3    H138697   7.427   4.086   9.281
 4834TIP3    H238698   7.508   4.072   9.154
 4835TIP3   OH238699   1.178   6.658   9.527
 4835TIP3    H138700   1.165   6.752   9.517
 4835TIP3    H238701   1.129   6.619   9.455
 4836TIP3   OH238702   1.180   6.613   9.802
 4836TIP3    H138703   1.163   6.520   9.817
 4836TIP3    H238704   1.178   6.623   9.707
 4837TIP3   OH238705   1.488   6.874   9.671
 4837TIP3    H138706   1.489   6.794   9.723
 4837TIP3    H238707   1.529   6.940   9.728
 4838TIP3   OH238708   0.558   6.960   9.760
 4838TIP3    H138709   0.502   6.884   9.754
 4838TIP3    H238710   0.639   6.927   9.799
 4839TIP3   OH238711   0.184   6.423   9.340
 4839TIP3    H138712   0.177   6.516   9.362
 4839TIP3    H238713   0.093   6.393   9.331
 4840TIP3   OH238714   0.200   6.618   9.832
 4840TIP3    H138715   0.231   6.528   9.838
 4840TIP3    H238716   0.270   6.664   9.786
 4841TIP3   OH238717   1.110   7.309   9.691
 4841TIP3    H138718   1.183   7.282   9.636
 4841TIP3    H238719   1.108   7.246   9.763
 4842TIP3   OH238720   1.069   6.840   9.919
 4842TIP3    H138721   1.111   6.769   9.870
 4842TIP3    H238722   1.070   6.809  10.010
 4843TIP3   OH238723   1.148   6.326   9.815
 4843TIP3    H138724   1.148   6.248   9.869
 4843TIP3    H238725   1.198   6.302   9.737
 4844TIP3   OH238726   0.626   6.061   9.663
 4844TIP3    H138727   0.619   6.145   9.617
 4844TIP3    H238728   0.585   5.998   9.604
 4845TIP3   OH238729   1.354   6.011   9.513
 4845TIP3    H138730   1.375   5.989   9.604
 4845TIP3    H238731   1.436   6.000   9.466
 4846TIP3   OH238732   0.308   6.362   9.809
 4846TIP3    H138733   0.392   6.328   9.839
 4846TIP3    H238734   0.304   6.340   9.716
 4847TIP3   OH238735   0.711   6.482   9.588
 4847TIP3    H138736   0.802   6.456   9.599
 4847TIP3    H238737   0.666   6.403   9.558
 4848TIP3   OH238738   1.141   6.912   9.434
 4848TIP3    H138739   1.112   6.931   9.345
 4848TIP3    H238740   1.228   6.951   9.440
 4849TIP3   OH238741   1.422   5.985   9.780
 4849TIP3    H138742   1.340   6.005   9.825
 4849TIP3    H238743   1.483   6.052   9.811
 4850TIP3   OH238744   0.552   6.241   9.874
 4850TIP3    H138745   0.562   6.195   9.957
 4850TIP3    H238746   0.579   6.178   9.807
 4851TIP3   OH238747   0.033   6.920   9.244
 4851TIP3    H138748  -0.006   6.967   9.170
 4851TIP3    H238749   0.059   6.989   9.305
 4852TIP3   OH238750   1.607   7.060   9.834
 4852TIP3    H138751   1.682   7.019   9.878
 4852TIP3    H238752   1.627   7.153   9.835
 4853TIP3   OH238753   0.799   5.670   9.791
 4853TIP3    H138754   0.773   5.582   9.819
 4853TIP3    H238755   0.726   5.726   9.815
 4854TIP3   OH238756   1.308   7.243   9.515
 4854TIP3    H138757   1.339   7.155   9.494
 4854TIP3    H238758   1.388   7.293   9.532
 4855TIP3   OH238759   1.403   6.996   9.446
 4855TIP3    H138760   1.467   6.969   9.380
 4855TIP3    H238761   1.432   6.954   9.527
 4856TIP3   OH238762   1.064   6.588   9.281
 4856TIP3    H138763   0.993   6.645   9.250
 4856TIP3    H238764   1.134   6.600   9.217
 4857TIP3   OH238765   1.129   6.477   8.938
 4857TIP3    H138766   1.187   6.502   9.009
 4857TIP3    H238767   1.182   6.420   8.882
 4858TIP3   OH238768   1.419   6.648   9.370
 4858TIP3    H138769   1.353   6.659   9.438
 4858TIP3    H238770   1.485   6.590   9.409
 4859TIP3   OH238771   0.539   6.659   9.473
 4859TIP3    H138772   0.502   6.614   9.397
 4859TIP3    H238773   0.603   6.598   9.510
 4860TIP3   OH238774   0.830   6.927   9.808
 4860TIP3    H138775   0.855   6.928   9.715
 4860TIP3    H238776   0.905   6.888   9.852
 4861TIP3   OH238777   0.589   6.520   9.831
 4861TIP3    H138778   0.645   6.513   9.754
 4861TIP3    H238779   0.580   6.430   9.863
 4862TIP3   OH238780   1.309   6.559   9.133
 4862TIP3    H138781   1.351   6.595   9.211
 4862TIP3    H238782   1.366   6.585   9.061
 4863TIP3   OH238783   0.914   7.261   9.504
 4863TIP3    H138784   0.877   7.179   9.538
 4863TIP3    H238785   0.976   7.289   9.572
 4864TIP3   OH238786   1.649   5.671   9.141
 4864TIP3    H138787   1.561   5.694   9.172
 4864TIP3    H238788   1.685   5.753   9.108
 4865TIP3   OH238789   0.423   6.545   9.246
 4865TIP3    H138790   0.365   6.616   9.218
 4865TIP3    H238791   0.365   6.471   9.262
 4866TIP3   OH238792   1.837   7.128   8.977
 4866TIP3    H138793   1.841   7.224   8.984
 4866TIP3    H238794   1.928   7.102   8.964
 4867TIP3   OH238795   0.105   7.129   9.885
 4867TIP3    H138796   0.130   7.040   9.909
 4867TIP3    H238797   0.172   7.184   9.927
 4868TIP3   OH238798   0.973   7.545   9.302
 4868TIP3    H138799   0.991   7.557   9.209
 4868TIP3    H238800   0.975   7.633   9.339
 4869TIP3   OH238801   0.352   7.184   9.483
 4869TIP3    H138802   0.346   7.134   9.564
 4869TIP3    H238803   0.271   7.164   9.436
 4870TIP3   OH238804   1.299   7.417   9.042
 4870TIP3    H138805   1.363   7.353   9.013
 4870TIP3    H238806   1.280   7.393   9.132
 4871TIP3   OH238807   1.196   7.372   9.301
 4871TIP3    H138808   1.126   7.429   9.333
 4871TIP3    H238809   1.225   7.324   9.378
 4872TIP3   OH238810   0.592   5.844   9.839
 4872TIP3    H138811   0.497   5.835   9.838
 4872TIP3    H238812   0.609   5.922   9.787
 4873TIP3   OH238813   1.459   6.617   8.914
 4873TIP3    H138814   1.428   6.634   8.825
 4873TIP3    H238815   1.554   6.627   8.908
 4874TIP3   OH238816   0.944   5.992   8.965
 4874TIP3    H138817   0.903   5.980   9.050
 4874TIP3    H238818   0.912   5.918   8.912
 4875TIP3   OH238819   0.564   6.271   9.503
 4875TIP3    H138820   0.469   6.273   9.515
 4875TIP3    H238821   0.576   6.245   9.411
 4876TIP3   OH238822   1.095   6.333   9.371
 4876TIP3    H138823   1.070   6.422   9.345
 4876TIP3    H238824   1.159   6.306   9.306
 4877TIP3   OH238825   1.260   6.257   9.577
 4877TIP3    H138826   1.209   6.287   9.502
 4877TIP3    H238827   1.289   6.169   9.553
 4878TIP3   OH238828   0.605   6.003   8.921
 4878TIP3    H138829   0.578   5.976   9.009
 4878TIP3    H238830   0.634   6.093   8.931
 4879TIP3   OH238831   0.117   6.080   9.580
 4879TIP3    H138832   0.104   6.042   9.666
 4879TIP3    H238833   0.122   6.005   9.521
 4880TIP3   OH238834   0.209   6.135   9.247
 4880TIP3    H138835   0.201   6.156   9.154
 4880TIP3    H238836   0.206   6.220   9.291
 4881TIP3   OH238837   0.886   5.987   9.584
 4881TIP3    H138838   0.801   6.009   9.621
 4881TIP3    H238839   0.936   5.952   9.658
 4882TIP3   OH238840   0.295   6.282   9.547
 4882TIP3    H138841   0.254   6.335   9.478
 4882TIP3    H238842   0.236   6.208   9.559
 4883TIP3   OH238843   0.637   6.197   9.249
 4883TIP3    H138844   0.728   6.189   9.278
 4883TIP3    H238845   0.644   6.229   9.159
 4884TIP3   OH238846   1.173   6.050   9.901
 4884TIP3    H138847   1.163   6.027   9.993
 4884TIP3    H238848   1.114   5.990   9.855
 4885TIP3   OH238849   0.660   6.269   8.984
 4885TIP3    H138850   0.594   6.290   8.917
 4885TIP3    H238851   0.733   6.328   8.966
 4886TIP3   OH238852   0.957   6.379   9.618
 4886TIP3    H138853   1.015   6.361   9.544
 4886TIP3    H238854   1.012   6.363   9.695
 4887TIP3   OH238855   0.510   5.908   9.474
 4887TIP3    H138856   0.432   5.860   9.501
 4887TIP3    H238857   0.511   5.902   9.378
 4888TIP3   OH238858   0.856   6.752   9.191
 4888TIP3    H138859   0.794   6.702   9.138
 4888TIP3    H238860   0.804   6.789   9.262
 4889TIP3   OH238861   1.190   6.042   9.098
 4889TIP3    H138862   1.108   6.050   9.050
 4889TIP3    H238863   1.218   6.132   9.114
 4890TIP3   OH238864   1.298   6.285   9.194
 4890TIP3    H138865   1.383   6.261   9.232
 4890TIP3    H238866   1.310   6.375   9.164
 4891TIP3   OH238867   0.434   6.717   9.724
 4891TIP3    H138868   0.458   6.702   9.632
 4891TIP3    H238869   0.484   6.652   9.773
 4892TIP3   OH238870   1.041   6.954   9.174
 4892TIP3    H138871   0.997   7.038   9.185
 4892TIP3    H238872   0.971   6.889   9.175
 4893TIP3   OH238873   1.755   6.318   9.135
 4893TIP3    H138874   1.707   6.303   9.053
 4893TIP3    H238875   1.790   6.406   9.126
 4894TIP3   OH238876   1.689   7.110   9.212
 4894TIP3    H138877   1.650   7.023   9.227
 4894TIP3    H238878   1.738   7.101   9.130
 4895TIP3   OH238879   1.461   6.634   9.812
 4895TIP3    H138880   1.368   6.644   9.830
 4895TIP3    H238881   1.467   6.549   9.767
 4896TIP3   OH238882   0.726   7.059   9.563
 4896TIP3    H138883   0.682   7.126   9.511
 4896TIP3    H238884   0.664   7.037   9.633
 4897TIP3   OH238885   0.141   6.534   9.006
 4897TIP3    H138886   0.173   6.593   9.074
 4897TIP3    H238887   0.046   6.535   9.015
 4898TIP3   OH238888   0.691   6.864   9.374
 4898TIP3    H138889   0.715   6.920   9.448
 4898TIP3    H238890   0.633   6.798   9.412
 4899TIP3   OH238891   0.602   7.243   9.395
 4899TIP3    H138892   0.511   7.220   9.413
 4899TIP3    H238893   0.614   7.330   9.434
 4900TIP3   OH238894   1.473   6.964   9.023
 4900TIP3    H138895   1.497   6.923   9.106
 4900TIP3    H238896   1.384   6.932   9.006
 4901TIP3   OH238897   1.839   7.402   9.016
 4901TIP3    H138898   1.852   7.457   8.939
 4901TIP3    H238899   1.759   7.436   9.056
 4902TIP3   OH238900   1.567   6.854   9.260
 4902TIP3    H138901   1.513   6.785   9.297
 4902TIP3    H238902   1.656   6.820   9.265
 4903TIP3   OH238903   0.799   7.062   8.956
 4903TIP3    H138904   0.808   6.978   8.911
 4903TIP3    H238905   0.745   7.043   9.033
 4904TIP3   OH238906   0.633   7.051   9.182
 4904TIP3    H138907   0.652   6.980   9.243
 4904TIP3    H238908   0.623   7.129   9.238
 4905TIP3   OH238909   0.236   6.741   9.173
 4905TIP3    H138910   0.161   6.790   9.206
 4905TIP3    H238911   0.294   6.807   9.136
 4906TIP3   OH238912   1.186   5.894   9.329
 4906TIP3    H138913   1.186   5.951   9.252
 4906TIP3    H238914   1.233   5.944   9.395
 4907TIP3   OH238915   0.974   7.232   9.198
 4907TIP3    H138916   0.976   7.248   9.103
 4907TIP3    H238917   1.061   7.260   9.228
 4908TIP3   OH238918   0.889   6.146   9.359
 4908TIP3    H138919   0.957   6.213   9.365
 4908TIP3    H238920   0.892   6.102   9.443
 4909TIP3   OH238921   0.955   5.776   9.413
 4909TIP3    H138922   0.928   5.843   9.476
 4909TIP3    H238923   1.042   5.805   9.384
 4910TIP3   OH238924   0.709   7.410   9.123
 4910TIP3    H138925   0.727   7.498   9.089
 4910TIP3    H238926   0.670   7.363   9.049
 4911TIP3   OH238927   0.555   5.939   9.188
 4911TIP3    H138928   0.556   6.030   9.219
 4911TIP3    H238929   0.647   5.911   9.195
 4912TIP3   OH238930   1.467   6.385   9.700
 4912TIP3    H138931   1.394   6.339   9.658
 4912TIP3    H238932   1.506   6.319   9.757
 4913TIP3   OH238933   0.398   6.943   9.066
 4913TIP3    H138934   0.462   6.997   9.112
 4913TIP3    H238935   0.449   6.894   9.001
 4914TIP3   OH238936   0.180   6.252   9.000
 4914TIP3    H138937   0.161   6.344   9.015
 4914TIP3    H238938   0.180   6.243   8.904
 4915TIP3   OH238939   1.691   7.326   9.867
 4915TIP3    H138940   1.645   7.402   9.831
 4915TIP3    H238941   1.689   7.340   9.962
 4916TIP3   OH238942   0.318   5.816   9.810
 4916TIP3    H138943   0.300   5.809   9.716
 4916TIP3    H238944   0.294   5.730   9.845
 4917TIP3   OH238945   0.095   7.150   9.388
 4917TIP3    H138946   0.054   7.172   9.472
 4917TIP3    H238947   0.076   7.226   9.332
 4918TIP3   OH238948   0.989   7.258   8.922
 4918TIP3    H138949   0.922   7.189   8.925
 4918TIP3    H238950   1.067   7.213   8.890
 4919TIP3   OH238951   1.458   7.223   8.930
 4919TIP3    H138952   1.482   7.142   8.974
 4919TIP3    H238953   1.524   7.235   8.861
 4920TIP3   OH238954   0.569   6.798   8.909
 4920TIP3    H138955   0.586   6.727   8.971
 4920TIP3    H238956   0.654   6.813   8.866
 4921TIP3   OH238957   1.213   6.899   8.964
 4921TIP3    H138958   1.151   6.906   9.037
 4921TIP3    H238959   1.177   6.830   8.908
 4922TIP3   OH238960   0.647   6.604   9.086
 4922TIP3    H138961   0.579   6.564   9.140
 4922TIP3    H238962   0.699   6.531   9.055
 4923TIP3   OH238963   0.850   6.461   8.951
 4923TIP3    H138964   0.840   6.508   8.868
 4923TIP3    H238965   0.945   6.458   8.965
 4924TIP3   OH238966   1.729   6.679   8.843
 4924TIP3    H138967   1.713   6.653   8.752
 4924TIP3    H238968   1.713   6.773   8.845
 4925TIP3   OH238969   0.800   7.648   9.023
 4925TIP3    H138970   0.890   7.618   9.014
 4925TIP3    H238971   0.796   7.729   8.971
 4926TIP3   OH238972   0.158   7.007   8.935
 4926TIP3    H138973   0.238   7.009   8.987
 4926TIP3    H238974   0.157   6.920   8.895
 4927TIP3   OH238975   0.074   7.562   9.446
 4927TIP3    H138976  -0.015   7.578   9.476
 4927TIP3    H238977   0.063   7.511   9.365
 4928TIP3   OH238978   0.034   7.239   9.644
 4928TIP3    H138979   0.055   7.190   9.724
 4928TIP3    H238980   0.098   7.310   9.642
 4929TIP3   OH238981   1.824   6.759   9.273
 4929TIP3    H138982   1.890   6.826   9.284
 4929TIP3    H238983   1.844   6.693   9.339
 4930TIP3   OH238984   1.857   6.552   9.456
 4930TIP3    H138985   1.767   6.530   9.478
 4930TIP3    H238986   1.897   6.577   9.539
 4931TIP3   OH238987   1.833   6.956   9.949
 4931TIP3    H138988   1.841   6.861   9.945
 4931TIP3    H238989   1.923   6.988   9.942
 4932TIP3   OH238990   1.840   6.571   9.072
 4932TIP3    H138991   1.798   6.604   8.992
 4932TIP3    H238992   1.828   6.641   9.136
 4933TIP3   OH238993   1.627   6.276   8.897
 4933TIP3    H138994   1.606   6.315   8.812
 4933TIP3    H238995   1.604   6.184   8.888
 4934TIP3   OH238996   1.594   6.460   9.470
 4934TIP3    H138997   1.581   6.380   9.419
 4934TIP3    H238998   1.564   6.437   9.558
 4935TIP3   OH238999   0.155   6.863   9.961
 4935TIP3    H139000   0.163   6.782   9.912
 4935TIP3    H239001   0.194   6.843  10.047
 4936TIP3   OH239002   1.565   6.013   8.856
 4936TIP3    H139003   1.609   5.966   8.927
 4936TIP3    H239004   1.475   5.981   8.858
 4937TIP3   OH239005   1.550   6.234   9.305
 4937TIP3    H139006   1.565   6.142   9.326
 4937TIP3    H239007   1.622   6.257   9.246
 4938TIP3   OH239008   1.588   6.191   9.859
 4938TIP3    H139009   1.666   6.209   9.808
 4938TIP3    H239010   1.606   6.228   9.945
 4939TIP3   OH239011   1.578   5.961   9.364
 4939TIP3    H139012   1.644   5.919   9.417
 4939TIP3    H239013   1.537   5.890   9.315
 4940TIP3   OH239014   0.089   5.989   9.833
 4940TIP3    H139015   0.170   5.944   9.859
 4940TIP3    H239016   0.089   6.070   9.883
 4941TIP3   OH239017   0.080   6.254   9.919
 4941TIP3    H139018   0.165   6.286   9.888
 4941TIP3    H239019   0.022   6.330   9.913
 4942TIP3   OH239020   1.748   5.895   9.025
 4942TIP3    H139021   1.796   5.846   8.959
 4942TIP3    H239022   1.811   5.961   9.056
 4943TIP3   OH239023   0.113   5.905   9.360
 4943TIP3    H139024   0.020   5.913   9.338
 4943TIP3    H239025   0.154   5.980   9.319
 4944TIP3   OH239026   1.534   7.394   9.531
 4944TIP3    H139027   1.617   7.374   9.487
 4944TIP3    H239028   1.560   7.439   9.612
 4945TIP3   OH239029   0.311   7.285   9.989
 4945TIP3    H139030   0.344   7.300  10.078
 4945TIP3    H239031   0.389   7.265   9.937
 4946TIP3   OH239032   0.536   7.215   9.855
 4946TIP3    H139033   0.533   7.126   9.822
 4946TIP3    H239034   0.629   7.234   9.866
 4947TIP3   OH239035   0.822   7.202   9.859
 4947TIP3    H139036   0.810   7.108   9.844
 4947TIP3    H239037   0.913   7.211   9.887
 4948TIP3   OH239038   1.014   5.852   9.786
 4948TIP3    H139039   0.946   5.786   9.798
 4948TIP3    H239040   1.092   5.801   9.762
 4949TIP3   OH239041   1.529   5.745   9.692
 4949TIP3    H139042   1.606   5.773   9.642
 4949TIP3    H239043   1.497   5.825   9.733
 4950TIP3   OH239044   1.745   5.828   9.541
 4950TIP3    H139045   1.800   5.749   9.529
 4950TIP3    H239046   1.808   5.900   9.542
 4951TIP3   OH239047   0.282   5.769   9.539
 4951TIP3    H139048   0.215   5.796   9.476
 4951TIP3    H239049   0.300   5.677   9.516
 4952TIP3   OH239050   0.163   5.706   9.174
 4952TIP3    H139051   0.220   5.758   9.116
 4952TIP3    H239052   0.140   5.766   9.245
 4953TIP3   OH239053   0.770   5.597   9.521
 4953TIP3    H139054   0.828   5.657   9.474
 4953TIP3    H239055   0.782   5.620   9.614
 4954TIP3   OH239056   1.238   5.709   9.727
 4954TIP3    H139057   1.328   5.723   9.697
 4954TIP3    H239058   1.239   5.621   9.764
 4955TIP3   OH239059   1.416   5.757   9.260
 4955TIP3    H139060   1.336   5.808   9.273
 4955TIP3    H239061   1.391   5.667   9.278
 4956TIP3   OH239062   0.065   7.377   9.233
 4956TIP3    H139063   0.004   7.377   9.159
 4956TIP3    H239064   0.148   7.406   9.196
 4957TIP3   OH239065   0.341   5.854   9.028
 4957TIP3    H139066   0.382   5.800   8.959
 4957TIP3    H239067   0.413   5.873   9.088
 4958TIP3   OH239068   0.831   5.926   9.208
 4958TIP3    H139069   0.864   5.852   9.258
 4958TIP3    H239070   0.853   6.003   9.261
 4959TIP3   OH239071   1.039   7.511   9.030
 4959TIP3    H139072   1.134   7.506   9.028
 4959TIP3    H239073   1.009   7.432   8.986
 4960TIP3   OH239074   1.725   7.350   9.330
 4960TIP3    H139075   1.707   7.262   9.299
 4960TIP3    H239076   1.692   7.407   9.261
 4961TIP3   OH239077   0.380   7.415   8.907
 4961TIP3    H139078   0.354   7.438   8.996
 4961TIP3    H239079   0.457   7.359   8.917
 4962TIP3   OH239080   3.067   6.648   9.521
 4962TIP3    H139081   3.043   6.740   9.529
 4962TIP3    H239082   3.019   6.617   9.445
 4963TIP3   OH239083   3.049   6.598   9.793
 4963TIP3    H139084   3.033   6.506   9.813
 4963TIP3    H239085   3.058   6.602   9.698
 4964TIP3   OH239086   3.348   6.873   9.673
 4964TIP3    H139087   3.355   6.795   9.729
 4964TIP3    H239088   3.398   6.940   9.720
 4965TIP3   OH239089   2.343   6.917   9.825
 4965TIP3    H139090   2.306   6.838   9.787
 4965TIP3    H239091   2.437   6.901   9.827
 4966TIP3   OH239092   1.915   6.288   9.376
 4966TIP3    H139093   1.906   6.376   9.411
 4966TIP3    H239094   1.861   6.288   9.297
 4967TIP3   OH239095   2.012   6.598   9.684
 4967TIP3    H139096   2.031   6.505   9.687
 4967TIP3    H239097   2.097   6.641   9.684
 4968TIP3   OH239098   2.985   7.319   9.726
 4968TIP3    H139099   3.033   7.271   9.658
 4968TIP3    H239100   2.944   7.250   9.779
 4969TIP3   OH239101   2.894   6.840   9.776
 4969TIP3    H139102   2.926   6.861   9.688
 4969TIP3    H239103   2.942   6.761   9.800
 4970TIP3   OH239104   3.025   6.310   9.805
 4970TIP3    H139105   3.028   6.230   9.858
 4970TIP3    H239106   3.077   6.290   9.728
 4971TIP3   OH239107   2.459   6.034   9.636
 4971TIP3    H139108   2.470   6.122   9.600
 4971TIP3    H239109   2.398   5.991   9.577
 4972TIP3   OH239110   3.253   6.012   9.516
 4972TIP3    H139111   3.275   5.992   9.607
 4972TIP3    H239112   3.336   6.001   9.468
 4973TIP3   OH239113   2.075   6.333   9.685
 4973TIP3    H139114   2.136   6.296   9.749
 4973TIP3    H239115   2.103   6.297   9.601
 4974TIP3   OH239116   2.581   6.464   9.636
 4974TIP3    H139117   2.673   6.437   9.631
 4974TIP3    H239118   2.533   6.395   9.590
 4975TIP3   OH239119   2.987   6.914   9.524
 4975TIP3    H139120   3.073   6.940   9.492
 4975TIP3    H239121   2.929   6.985   9.497
 4976TIP3   OH239122   3.317   5.999   9.784
 4976TIP3    H139123   3.230   6.006   9.824
 4976TIP3    H239124   3.368   6.069   9.824
 4977TIP3   OH239125   2.291   6.212   9.812
 4977TIP3    H139126   2.332   6.295   9.837
 4977TIP3    H239127   2.363   6.158   9.780
 4978TIP3   OH239128   2.019   6.953   9.300
 4978TIP3    H139129   2.015   7.032   9.246
 4978TIP3    H239130   2.037   6.986   9.388
 4979TIP3   OH239131   3.492   7.070   9.799
 4979TIP3    H139132   3.568   7.028   9.841
 4979TIP3    H239133   3.513   7.163   9.800
 4980TIP3   OH239134   2.701   5.674   9.829
 4980TIP3    H139135   2.677   5.586   9.857
 4980TIP3    H239136   2.619   5.724   9.837
 4981TIP3   OH239137   3.146   7.231   9.506
 4981TIP3    H139138   3.182   7.143   9.490
 4981TIP3    H239139   3.222   7.285   9.527
 4982TIP3   OH239140   3.247   6.983   9.450
 4982TIP3    H139141   3.309   6.959   9.381
 4982TIP3    H239142   3.284   6.944   9.530
 4983TIP3   OH239143   2.941   6.590   9.283
 4983TIP3    H139144   2.861   6.642   9.273
 4983TIP3    H239145   3.002   6.627   9.221
 4984TIP3   OH239146   3.010   6.496   8.946
 4984TIP3    H139147   3.064   6.525   9.019
 4984TIP3    H239148   3.062   6.429   8.903
 4985TIP3   OH239149   3.310   6.640   9.374
 4985TIP3    H139150   3.241   6.646   9.440
 4985TIP3    H239151   3.378   6.585   9.414
 4986TIP3   OH239152   2.452   6.669   9.506
 4986TIP3    H139153   2.424   6.624   9.426
 4986TIP3    H239154   2.512   6.608   9.549
 4987TIP3   OH239155   2.612   6.873   9.783
 4987TIP3    H139156   2.612   6.939   9.715
 4987TIP3    H239157   2.704   6.846   9.792
 4988TIP3   OH239158   2.416   6.464   9.852
 4988TIP3    H139159   2.480   6.467   9.781
 4988TIP3    H239160   2.462   6.497   9.928
 4989TIP3   OH239161   3.204   6.554   9.133
 4989TIP3    H139162   3.245   6.592   9.211
 4989TIP3    H239163   3.263   6.579   9.061
 4990TIP3   OH239164   2.877   7.164   9.461
 4990TIP3    H139165   2.964   7.202   9.477
 4990TIP3    H239166   2.825   7.238   9.429
 4991TIP3   OH239167   3.516   5.667   9.139
 4991TIP3    H139168   3.433   5.694   9.179
 4991TIP3    H239169   3.556   5.749   9.109
 4992TIP3   OH239170   2.352   6.552   9.276
 4992TIP3    H139171   2.294   6.624   9.253
 4992TIP3    H239172   2.300   6.473   9.260
 4993TIP3   OH239173   3.692   7.134   8.988
 4993TIP3    H139174   3.698   7.230   8.983
 4993TIP3    H239175   3.783   7.105   8.996
 4994TIP3   OH239176   2.098   7.022   9.911
 4994TIP3    H139177   2.182   6.981   9.892
 4994TIP3    H239178   2.103   7.108   9.869
 4995TIP3   OH239179   2.858   7.475   9.371
 4995TIP3    H139180   2.809   7.507   9.295
 4995TIP3    H239181   2.841   7.540   9.440
 4996TIP3   OH239182   2.285   7.281   9.538
 4996TIP3    H139183   2.318   7.252   9.623
 4996TIP3    H239184   2.210   7.224   9.521
 4997TIP3   OH239185   3.185   7.402   9.015
 4997TIP3    H139186   3.250   7.335   8.993
 4997TIP3    H239187   3.155   7.380   9.103
 4998TIP3   OH239188   3.074   7.349   9.265
 4998TIP3    H139189   2.996   7.396   9.294
 4998TIP3    H239190   3.102   7.299   9.342
 4999TIP3   OH239191   2.469   5.819   9.813
 4999TIP3    H139192   2.377   5.793   9.813
 4999TIP3    H239193   2.470   5.899   9.760
 5000TIP3   OH239194   3.355   6.607   8.910
 5000TIP3    H139195   3.318   6.614   8.822
 5000TIP3    H239196   3.448   6.622   8.898
 5001TIP3   OH239197   2.855   6.013   8.995
 5001TIP3    H139198   2.793   6.012   9.068
 5001TIP3    H239199   2.839   5.931   8.949
 5002TIP3   OH239200   2.430   6.277   9.511
 5002TIP3    H139201   2.335   6.270   9.503
 5002TIP3    H239202   2.464   6.258   9.424
 5003TIP3   OH239203   2.973   6.331   9.366
 5003TIP3    H139204   2.949   6.420   9.339
 5003TIP3    H239205   3.040   6.305   9.303
 5004TIP3   OH239206   3.146   6.255   9.569
 5004TIP3    H139207   3.094   6.283   9.494
 5004TIP3    H239208   3.180   6.169   9.545
 5005TIP3   OH239209   2.554   5.999   8.922
 5005TIP3    H139210   2.524   6.006   9.013
 5005TIP3    H239211   2.511   6.071   8.877
 5006TIP3   OH239212   1.930   6.028   9.510
 5006TIP3    H139213   1.987   6.029   9.587
 5006TIP3    H239214   1.912   6.120   9.492
 5007TIP3   OH239215   1.920   6.099   9.097
 5007TIP3    H139216   1.992   6.144   9.052
 5007TIP3    H239217   1.857   6.169   9.116
 5008TIP3   OH239218   2.752   5.975   9.593
 5008TIP3    H139219   2.665   5.984   9.632
 5008TIP3    H239220   2.806   5.941   9.664
 5009TIP3   OH239221   2.171   6.212   9.454
 5009TIP3    H139222   2.088   6.223   9.408
 5009TIP3    H239223   2.190   6.118   9.448
 5010TIP3   OH239224   2.521   6.202   9.269
 5010TIP3    H139225   2.613   6.189   9.292
 5010TIP3    H239226   2.524   6.247   9.184
 5011TIP3   OH239227   3.059   6.038   9.892
 5011TIP3    H139228   3.046   6.011   9.983
 5011TIP3    H239229   3.009   5.974   9.841
 5012TIP3   OH239230   2.527   6.307   9.021
 5012TIP3    H139231   2.484   6.284   8.938
 5012TIP3    H239232   2.602   6.359   8.995
 5013TIP3   OH239233   2.830   6.361   9.613
 5013TIP3    H139234   2.888   6.356   9.536
 5013TIP3    H239235   2.887   6.345   9.687
 5014TIP3   OH239236   2.278   5.946   9.437
 5014TIP3    H139237   2.230   5.867   9.459
 5014TIP3    H239238   2.310   5.931   9.348
 5015TIP3   OH239239   2.726   6.755   9.239
 5015TIP3    H139240   2.658   6.726   9.178
 5015TIP3    H239241   2.680   6.809   9.303
 5016TIP3   OH239242   3.104   6.037   9.109
 5016TIP3    H139243   3.018   6.046   9.068
 5016TIP3    H239244   3.131   6.126   9.129
 5017TIP3   OH239245   3.189   6.285   9.203
 5017TIP3    H139246   3.274   6.267   9.243
 5017TIP3    H239247   3.197   6.375   9.170
 5018TIP3   OH239248   2.275   6.670   9.717
 5018TIP3    H139249   2.331   6.680   9.640
 5018TIP3    H239250   2.313   6.598   9.766
 5019TIP3   OH239251   2.953   6.870   9.135
 5019TIP3    H139252   2.945   6.965   9.140
 5019TIP3    H239253   2.871   6.837   9.173
 5020TIP3   OH239254   3.611   6.319   9.109
 5020TIP3    H139255   3.550   6.310   9.036
 5020TIP3    H239256   3.647   6.407   9.101
 5021TIP3   OH239257   3.552   7.121   9.229
 5021TIP3    H139258   3.514   7.035   9.246
 5021TIP3    H239259   3.593   7.112   9.143
 5022TIP3   OH239260   3.332   6.631   9.816
 5022TIP3    H139261   3.239   6.641   9.835
 5022TIP3    H239262   3.339   6.549   9.768
 5023TIP3   OH239263   2.600   7.086   9.608
 5023TIP3    H139264   2.591   7.150   9.537
 5023TIP3    H239265   2.620   7.140   9.685
 5024TIP3   OH239266   2.113   6.539   9.043
 5024TIP3    H139267   2.146   6.618   9.086
 5024TIP3    H239268   2.018   6.544   9.053
 5025TIP3   OH239269   2.567   6.901   9.407
 5025TIP3    H139270   2.584   6.962   9.479
 5025TIP3    H239271   2.519   6.828   9.448
 5026TIP3   OH239272   2.537   7.283   9.423
 5026TIP3    H139273   2.443   7.276   9.438
 5026TIP3    H239274   2.563   7.362   9.469
 5027TIP3   OH239275   3.358   6.945   9.021
 5027TIP3    H139276   3.374   6.912   9.109
 5027TIP3    H239277   3.277   6.904   8.994
 5028TIP3   OH239278   3.691   7.410   8.999
 5028TIP3    H139279   3.697   7.468   8.923
 5028TIP3    H239280   3.615   7.440   9.048
 5029TIP3   OH239281   3.440   6.859   9.272
 5029TIP3    H139282   3.391   6.785   9.309
 5029TIP3    H239283   3.531   6.830   9.271
 5030TIP3   OH239284   2.682   7.031   8.908
 5030TIP3    H139285   2.687   6.947   8.864
 5030TIP3    H239286   2.650   7.011   8.996
 5031TIP3   OH239287   2.563   7.027   9.159
 5031TIP3    H139288   2.564   6.989   9.247
 5031TIP3    H239289   2.600   7.114   9.170
 5032TIP3   OH239290   2.189   6.760   9.191
 5032TIP3    H139291   2.127   6.815   9.240
 5032TIP3    H239292   2.243   6.822   9.143
 5033TIP3   OH239293   3.075   5.895   9.342
 5033TIP3    H139294   3.085   5.947   9.263
 5033TIP3    H239295   3.127   5.942   9.408
 5034TIP3   OH239296   2.921   7.143   9.138
 5034TIP3    H139297   2.834   7.182   9.148
 5034TIP3    H239298   2.981   7.210   9.169
 5035TIP3   OH239299   2.772   6.137   9.368
 5035TIP3    H139300   2.840   6.204   9.372
 5035TIP3    H239301   2.772   6.098   9.455
 5036TIP3   OH239302   2.841   5.779   9.418
 5036TIP3    H139303   2.808   5.847   9.477
 5036TIP3    H239304   2.928   5.810   9.392
 5037TIP3   OH239305   2.680   7.277   9.190
 5037TIP3    H139306   2.687   7.367   9.158
 5037TIP3    H239307   2.630   7.285   9.271
 5038TIP3   OH239308   2.425   5.960   9.181
 5038TIP3    H139309   2.434   6.049   9.215
 5038TIP3    H239310   2.511   5.920   9.196
 5039TIP3   OH239311   3.348   6.386   9.697
 5039TIP3    H139312   3.276   6.339   9.653
 5039TIP3    H239313   3.380   6.324   9.762
 5040TIP3   OH239314   2.323   6.949   9.045
 5040TIP3    H139315   2.397   6.993   9.087
 5040TIP3    H239316   2.362   6.898   8.974
 5041TIP3   OH239317   2.096   6.269   8.971
 5041TIP3    H139318   2.124   6.338   9.031
 5041TIP3    H239319   2.083   6.314   8.887
 5042TIP3   OH239320   3.575   7.338   9.842
 5042TIP3    H139321   3.520   7.412   9.816
 5042TIP3    H239322   3.571   7.338   9.938
 5043TIP3   OH239323   2.199   5.758   9.770
 5043TIP3    H139324   2.186   5.743   9.676
 5043TIP3    H239325   2.172   5.677   9.811
 5044TIP3   OH239326   2.047   7.147   9.500
 5044TIP3    H139327   1.987   7.184   9.565
 5044TIP3    H239328   2.023   7.191   9.418
 5045TIP3   OH239329   2.871   7.214   8.830
 5045TIP3    H139330   2.807   7.153   8.867
 5045TIP3    H239331   2.954   7.167   8.835
 5046TIP3   OH239332   3.351   7.205   8.926
 5046TIP3    H139333   3.372   7.123   8.970
 5046TIP3    H239334   3.419   7.214   8.859
 5047TIP3   OH239335   2.433   6.773   8.868
 5047TIP3    H139336   2.460   6.719   8.943
 5047TIP3    H239337   2.515   6.790   8.821
 5048TIP3   OH239338   3.118   6.854   8.923
 5048TIP3    H139339   3.059   6.853   8.998
 5048TIP3    H239340   3.077   6.797   8.859
 5049TIP3   OH239341   2.535   6.633   9.080
 5049TIP3    H139342   2.482   6.587   9.145
 5049TIP3    H239343   2.598   6.567   9.050
 5050TIP3   OH239344   2.732   6.477   8.960
 5050TIP3    H139345   2.722   6.504   8.869
 5050TIP3    H239346   2.826   6.480   8.976
 5051TIP3   OH239347   3.621   6.673   8.832
 5051TIP3    H139348   3.607   6.646   8.742
 5051TIP3    H239349   3.606   6.767   8.833
 5052TIP3   OH239350   2.736   7.552   9.134
 5052TIP3    H139351   2.801   7.523   9.069
 5052TIP3    H239352   2.703   7.635   9.100
 5053TIP3   OH239353   2.089   7.029   8.926
 5053TIP3    H139354   2.169   7.016   8.977
 5053TIP3    H239355   2.063   6.941   8.898
 5054TIP3   OH239356   1.925   7.450   9.485
 5054TIP3    H139357   1.855   7.422   9.426
 5054TIP3    H239358   1.911   7.398   9.564
 5055TIP3   OH239359   1.910   7.284   9.703
 5055TIP3    H139360   1.831   7.287   9.757
 5055TIP3    H239361   1.982   7.294   9.764
 5056TIP3   OH239362   3.699   6.764   9.268
 5056TIP3    H139363   3.767   6.831   9.276
 5056TIP3    H239364   3.721   6.699   9.335
 5057TIP3   OH239365   3.752   6.563   9.449
 5057TIP3    H139366   3.665   6.533   9.476
 5057TIP3    H239367   3.797   6.583   9.531
 5058TIP3   OH239368   3.717   6.966   9.913
 5058TIP3    H139369   3.729   6.871   9.913
 5058TIP3    H239370   3.805   7.002   9.920
 5059TIP3   OH239371   3.711   6.570   9.070
 5059TIP3    H139372   3.677   6.608   8.989
 5059TIP3    H239373   3.701   6.640   9.135
 5060TIP3   OH239374   3.446   6.276   8.888
 5060TIP3    H139375   3.462   6.299   8.797
 5060TIP3    H239376   3.447   6.181   8.890
 5061TIP3   OH239377   3.494   6.459   9.478
 5061TIP3    H139378   3.479   6.380   9.426
 5061TIP3    H239379   3.457   6.439   9.564
 5062TIP3   OH239380   1.917   6.693   9.924
 5062TIP3    H139381   1.943   6.668   9.836
 5062TIP3    H239382   2.000   6.704   9.972
 5063TIP3   OH239383   3.453   6.005   8.858
 5063TIP3    H139384   3.498   5.960   8.929
 5063TIP3    H239385   3.364   5.970   8.860
 5064TIP3   OH239386   3.441   6.238   9.313
 5064TIP3    H139387   3.456   6.145   9.330
 5064TIP3    H239388   3.505   6.260   9.245
 5065TIP3   OH239389   3.454   6.213   9.887
 5065TIP3    H139390   3.542   6.222   9.850
 5065TIP3    H239391   3.459   6.262   9.970
 5066TIP3   OH239392   3.475   5.965   9.361
 5066TIP3    H139393   3.561   5.936   9.393
 5066TIP3    H239394   3.433   5.886   9.329
 5067TIP3   OH239395   2.101   6.018   9.725
 5067TIP3    H139396   2.132   5.932   9.754
 5067TIP3    H239397   2.160   6.080   9.768
 5068TIP3   OH239398   1.800   6.304   9.734
 5068TIP3    H139399   1.895   6.310   9.720
 5068TIP3    H239400   1.778   6.384   9.781
 5069TIP3   OH239401   3.630   5.887   9.031
 5069TIP3    H139402   3.684   5.845   8.965
 5069TIP3    H239403   3.684   5.958   9.065
 5070TIP3   OH239404   1.993   5.895   9.268
 5070TIP3    H139405   1.977   5.925   9.358
 5070TIP3    H239406   1.970   5.970   9.213
 5071TIP3   OH239407   3.351   7.414   9.541
 5071TIP3    H139408   3.427   7.387   9.489
 5071TIP3    H239409   3.388   7.454   9.620
 5072TIP3   OH239410   2.133   7.312   9.868
 5072TIP3    H139411   2.139   7.317   9.964
 5072TIP3    H239412   2.218   7.281   9.840
 5073TIP3   OH239413   2.366   7.192   9.794
 5073TIP3    H139414   2.360   7.097   9.799
 5073TIP3    H239415   2.457   7.212   9.816
 5074TIP3   OH239416   2.639   7.225   9.845
 5074TIP3    H139417   2.718   7.175   9.866
 5074TIP3    H239418   2.662   7.316   9.866
 5075TIP3   OH239419   2.921   5.832   9.768
 5075TIP3    H139420   2.853   5.773   9.800
 5075TIP3    H239421   2.993   5.775   9.743
 5076TIP3   OH239422   3.508   5.801   9.728
 5076TIP3    H139423   3.585   5.858   9.726
 5076TIP3    H239424   3.436   5.860   9.752
 5077TIP3   OH239425   3.713   5.877   9.470
 5077TIP3    H139426   3.725   5.785   9.493
 5077TIP3    H239427   3.723   5.924   9.553
 5078TIP3   OH239428   2.157   5.702   9.501
 5078TIP3    H139429   2.065   5.680   9.487
 5078TIP3    H239430   2.203   5.618   9.497
 5079TIP3   OH239431   2.078   5.718   9.076
 5079TIP3    H139432   2.144   5.775   9.037
 5079TIP3    H239433   2.044   5.768   9.150
 5080TIP3   OH239434   2.696   5.592   9.566
 5080TIP3    H139435   2.748   5.652   9.512
 5080TIP3    H239436   2.702   5.629   9.654
 5081TIP3   OH239437   3.130   5.658   9.710
 5081TIP3    H139438   3.205   5.653   9.652
 5081TIP3    H239439   3.134   5.578   9.763
 5082TIP3   OH239440   3.306   5.750   9.291
 5082TIP3    H139441   3.224   5.798   9.305
 5082TIP3    H239442   3.284   5.659   9.311
 5083TIP3   OH239443   2.007   7.237   9.238
 5083TIP3    H139444   1.921   7.275   9.219
 5083TIP3    H239445   2.069   7.297   9.197
 5084TIP3   OH239446   2.278   5.867   8.960
 5084TIP3    H139447   2.343   5.828   8.902
 5084TIP3    H239448   2.328   5.897   9.036
 5085TIP3   OH239449   2.696   5.924   9.214
 5085TIP3    H139450   2.733   5.845   9.253
 5085TIP3    H239451   2.725   5.995   9.272
 5086TIP3   OH239452   2.917   7.452   8.959
 5086TIP3    H139453   3.012   7.448   8.969
 5086TIP3    H239454   2.894   7.370   8.915
 5087TIP3   OH239455   3.551   7.358   9.362
 5087TIP3    H139456   3.550   7.270   9.326
 5087TIP3    H239457   3.538   7.415   9.286
 5088TIP3   OH239458   2.250   7.375   8.859
 5088TIP3    H139459   2.217   7.398   8.947
 5088TIP3    H239460   2.322   7.314   8.876
 5089TIP3   OH239461   5.028   6.681   9.544
 5089TIP3    H139462   5.072   6.731   9.612
 5089TIP3    H239463   4.970   6.744   9.502
 5090TIP3   OH239464   4.942   6.600   9.932
 5090TIP3    H139465   4.945   6.505   9.933
 5090TIP3    H239466   4.849   6.622   9.929
 5091TIP3   OH239467   5.197   6.844   9.706
 5091TIP3    H139468   5.211   6.775   9.771
 5091TIP3    H239469   5.244   6.920   9.742
 5092TIP3   OH239470   4.213   6.945   9.820
 5092TIP3    H139471   4.180   6.865   9.779
 5092TIP3    H239472   4.307   6.930   9.829
 5093TIP3   OH239473   3.861   6.344   9.315
 5093TIP3    H139474   3.834   6.423   9.362
 5093TIP3    H239475   3.789   6.326   9.254
 5094TIP3   OH239476   3.909   6.600   9.677
 5094TIP3    H139477   3.928   6.507   9.693
 5094TIP3    H239478   3.995   6.642   9.678
 5095TIP3   OH239479   4.930   7.346   9.716
 5095TIP3    H139480   4.989   7.289   9.666
 5095TIP3    H239481   4.884   7.286   9.775
 5096TIP3   OH239482   4.857   6.892   9.888
 5096TIP3    H139483   4.778   6.838   9.886
 5096TIP3    H239484   4.928   6.829   9.900
 5097TIP3   OH239485   4.961   6.324   9.878
 5097TIP3    H139486   4.937   6.232   9.885
 5097TIP3    H239487   4.937   6.348   9.788
 5098TIP3   OH239488   4.347   5.967   9.595
 5098TIP3    H139489   4.342   6.063   9.593
 5098TIP3    H239490   4.278   5.938   9.536
 5099TIP3   OH239491   5.119   6.090   9.481
 5099TIP3    H139492   5.130   6.077   9.575
 5099TIP3    H239493   5.194   6.145   9.456
 5100TIP3   OH239494   3.961   6.334   9.721
 5100TIP3    H139495   4.040   6.321   9.773
 5100TIP3    H239496   3.977   6.285   9.640
 5101TIP3   OH239497   4.442   6.459   9.591
 5101TIP3    H139498   4.531   6.441   9.621
 5101TIP3    H239499   4.405   6.373   9.571
 5102TIP3   OH239500   4.920   6.890   9.393
 5102TIP3    H139501   4.895   6.878   9.302
 5102TIP3    H239502   4.871   6.967   9.422
 5103TIP3   OH239503   5.154   6.043   9.751
 5103TIP3    H139504   5.073   6.044   9.802
 5103TIP3    H239505   5.215   6.097   9.801
 5104TIP3   OH239506   4.213   6.290   9.817
 5104TIP3    H139507   4.257   6.367   9.853
 5104TIP3    H239508   4.267   6.264   9.742
 5105TIP3   OH239509   3.904   6.948   9.288
 5105TIP3    H139510   3.903   7.013   9.217
 5105TIP3    H239511   3.923   6.999   9.367
 5106TIP3   OH239512   5.345   7.060   9.796
 5106TIP3    H139513   5.425   7.041   9.845
 5106TIP3    H239514   5.345   7.155   9.786
 5107TIP3   OH239515   4.574   5.626   9.810
 5107TIP3    H139516   4.545   5.539   9.839
 5107TIP3    H239517   4.496   5.681   9.818
 5108TIP3   OH239518   5.095   7.216   9.533
 5108TIP3    H139519   5.128   7.127   9.518
 5108TIP3    H239520   5.173   7.270   9.539
 5109TIP3   OH239521   5.176   6.966   9.464
 5109TIP3    H139522   5.093   6.930   9.431
 5109TIP3    H239523   5.193   6.917   9.544
 5110TIP3   OH239524   4.823   6.550   9.235
 5110TIP3    H139525   4.749   6.611   9.227
 5110TIP3    H239526   4.897   6.597   9.197
 5111TIP3   OH239527   4.891   6.455   8.928
 5111TIP3    H139528   4.939   6.481   9.006
 5111TIP3    H239529   4.938   6.379   8.894
 5112TIP3   OH239530   5.212   6.614   9.347
 5112TIP3    H139531   5.145   6.637   9.412
 5112TIP3    H239532   5.275   6.561   9.396
 5113TIP3   OH239533   4.322   6.672   9.474
 5113TIP3    H139534   4.282   6.627   9.400
 5113TIP3    H239535   4.376   6.605   9.515
 5114TIP3   OH239536   4.487   6.930   9.791
 5114TIP3    H139537   4.517   6.926   9.700
 5114TIP3    H239538   4.528   6.855   9.833
 5115TIP3   OH239539   4.353   6.538   9.838
 5115TIP3    H139540   4.391   6.515   9.754
 5115TIP3    H239541   4.424   6.579   9.887
 5116TIP3   OH239542   5.092   6.538   9.110
 5116TIP3    H139543   5.136   6.574   9.187
 5116TIP3    H239544   5.153   6.555   9.037
 5117TIP3   OH239545   4.831   7.150   9.455
 5117TIP3    H139546   4.911   7.168   9.504
 5117TIP3    H239547   4.786   7.235   9.452
 5118TIP3   OH239548   5.398   5.732   9.084
 5118TIP3    H139549   5.322   5.755   9.137
 5118TIP3    H239550   5.431   5.816   9.051
 5119TIP3   OH239551   4.203   6.539   9.262
 5119TIP3    H139552   4.148   6.611   9.233
 5119TIP3    H239553   4.143   6.464   9.269
 5120TIP3   OH239554   5.634   7.134   8.948
 5120TIP3    H139555   5.632   7.227   8.970
 5120TIP3    H239556   5.727   7.113   8.941
 5121TIP3   OH239557   3.977   7.054   9.924
 5121TIP3    H139558   4.056   7.007   9.895
 5121TIP3    H239559   4.003   7.146   9.925
 5122TIP3   OH239560   4.749   7.397   9.348
 5122TIP3    H139561   4.736   7.437   9.263
 5122TIP3    H239562   4.684   7.439   9.405
 5123TIP3   OH239563   4.161   7.312   9.513
 5123TIP3    H139564   4.202   7.281   9.594
 5123TIP3    H239565   4.091   7.249   9.495
 5124TIP3   OH239566   5.114   7.407   9.047
 5124TIP3    H139567   5.148   7.328   9.005
 5124TIP3    H239568   5.084   7.377   9.133
 5125TIP3   OH239569   5.017   7.345   9.294
 5125TIP3    H139570   4.923   7.358   9.305
 5125TIP3    H239571   5.041   7.284   9.364
 5126TIP3   OH239572   4.353   5.784   9.802
 5126TIP3    H139573   4.259   5.772   9.818
 5126TIP3    H239574   4.358   5.851   9.734
 5127TIP3   OH239575   5.255   6.548   8.883
 5127TIP3    H139576   5.217   6.567   8.797
 5127TIP3    H239577   5.338   6.597   8.884
 5128TIP3   OH239578   4.718   6.042   9.000
 5128TIP3    H139579   4.673   6.027   9.083
 5128TIP3    H239580   4.701   5.963   8.949
 5129TIP3   OH239581   4.295   6.232   9.541
 5129TIP3    H139582   4.200   6.233   9.532
 5129TIP3    H239583   4.327   6.225   9.451
 5130TIP3   OH239584   4.867   6.322   9.376
 5130TIP3    H139585   4.842   6.402   9.329
 5130TIP3    H239586   4.945   6.291   9.330
 5131TIP3   OH239587   4.945   6.424   9.620
 5131TIP3    H139588   4.968   6.513   9.595
 5131TIP3    H239589   4.919   6.382   9.538
 5132TIP3   OH239590   4.419   6.025   8.878
 5132TIP3    H139591   4.397   6.015   8.971
 5132TIP3    H239592   4.367   6.099   8.849
 5133TIP3   OH239593   3.725   6.003   9.717
 5133TIP3    H139594   3.814   5.996   9.750
 5133TIP3    H239595   3.701   6.095   9.730
 5134TIP3   OH239596   3.781   6.102   9.103
 5134TIP3    H139597   3.854   6.142   9.057
 5134TIP3    H239598   3.716   6.172   9.111
 5135TIP3   OH239599   4.629   5.970   9.591
 5135TIP3    H139600   4.535   5.961   9.604
 5135TIP3    H239601   4.668   5.939   9.673
 5136TIP3   OH239602   4.028   6.204   9.489
 5136TIP3    H139603   3.971   6.238   9.420
 5136TIP3    H239604   4.038   6.111   9.469
 5137TIP3   OH239605   4.388   6.211   9.285
 5137TIP3    H139606   4.481   6.208   9.311
 5137TIP3    H239607   4.389   6.253   9.198
 5138TIP3   OH239608   4.913   6.047   9.894
 5138TIP3    H139609   4.893   6.035   9.986
 5138TIP3    H239610   4.859   5.982   9.849
 5139TIP3   OH239611   4.389   6.300   9.023
 5139TIP3    H139612   4.331   6.289   8.947
 5139TIP3    H239613   4.471   6.332   8.986
 5140TIP3   OH239614   4.680   6.420   9.710
 5140TIP3    H139615   4.771   6.427   9.683
 5140TIP3    H239616   4.667   6.492   9.771
 5141TIP3   OH239617   4.107   5.933   9.442
 5141TIP3    H139618   4.082   5.853   9.488
 5141TIP3    H239619   4.058   5.930   9.360
 5142TIP3   OH239620   4.615   6.730   9.194
 5142TIP3    H139621   4.544   6.688   9.147
 5142TIP3    H239622   4.571   6.783   9.261
 5143TIP3   OH239623   4.977   6.057   9.094
 5143TIP3    H139624   4.886   6.075   9.068
 5143TIP3    H239625   5.007   6.140   9.132
 5144TIP3   OH239626   5.088   6.277   9.213
 5144TIP3    H139627   5.175   6.257   9.250
 5144TIP3    H239628   5.098   6.365   9.176
 5145TIP3   OH239629   4.168   6.696   9.705
 5145TIP3    H139630   4.215   6.699   9.622
 5145TIP3    H239631   4.223   6.643   9.762
 5146TIP3   OH239632   4.832   6.877   9.127
 5146TIP3    H139633   4.801   6.967   9.134
 5146TIP3    H239634   4.754   6.824   9.139
 5147TIP3   OH239635   5.544   6.325   9.186
 5147TIP3    H139636   5.470   6.315   9.126
 5147TIP3    H239637   5.584   6.408   9.161
 5148TIP3   OH239638   5.374   7.066   9.303
 5148TIP3    H139639   5.307   7.041   9.367
 5148TIP3    H239640   5.384   6.988   9.248
 5149TIP3   OH239641   5.213   6.628   9.876
 5149TIP3    H139642   5.125   6.627   9.913
 5149TIP3    H239643   5.216   6.552   9.819
 5150TIP3   OH239644   4.440   7.098   9.525
 5150TIP3    H139645   4.441   7.172   9.465
 5150TIP3    H239646   4.389   7.128   9.600
 5151TIP3   OH239647   3.979   6.533   9.017
 5151TIP3    H139648   4.018   6.609   9.060
 5151TIP3    H239649   3.886   6.538   9.037
 5152TIP3   OH239650   4.463   6.881   9.364
 5152TIP3    H139651   4.462   6.954   9.426
 5152TIP3    H239652   4.410   6.813   9.406
 5153TIP3   OH239653   4.400   7.327   9.373
 5153TIP3    H139654   4.310   7.334   9.404
 5153TIP3    H239655   4.447   7.395   9.420
 5154TIP3   OH239656   5.251   6.944   8.993
 5154TIP3    H139657   5.282   6.894   9.069
 5154TIP3    H239658   5.166   6.905   8.973
 5155TIP3   OH239659   5.616   7.405   8.998
 5155TIP3    H139660   5.617   7.466   8.924
 5155TIP3    H239661   5.533   7.422   9.042
 5156TIP3   OH239662   5.354   6.801   9.201
 5156TIP3    H139663   5.300   6.744   9.255
 5156TIP3    H239664   5.444   6.779   9.225
 5157TIP3   OH239665   4.608   7.018   8.905
 5157TIP3    H139666   4.604   6.930   8.866
 5157TIP3    H239667   4.551   7.012   8.982
 5158TIP3   OH239668   4.444   7.028   9.129
 5158TIP3    H139669   4.456   6.979   9.211
 5158TIP3    H239670   4.476   7.116   9.149
 5159TIP3   OH239671   4.059   6.752   9.166
 5159TIP3    H139672   4.001   6.806   9.219
 5159TIP3    H239673   4.115   6.815   9.120
 5160TIP3   OH239674   4.976   5.917   9.331
 5160TIP3    H139675   4.973   5.962   9.247
 5160TIP3    H239676   5.017   5.979   9.391
 5161TIP3   OH239677   4.735   7.122   9.192
 5161TIP3    H139678   4.679   7.196   9.167
 5161TIP3    H239679   4.762   7.141   9.282
 5162TIP3   OH239680   4.641   6.164   9.392
 5162TIP3    H139681   4.717   6.223   9.393
 5162TIP3    H239682   4.646   6.117   9.475
 5163TIP3   OH239683   4.753   5.791   9.424
 5163TIP3    H139684   4.719   5.855   9.486
 5163TIP3    H239685   4.837   5.827   9.395
 5164TIP3   OH239686   4.522   7.304   9.130
 5164TIP3    H139687   4.535   7.392   9.097
 5164TIP3    H239688   4.474   7.316   9.212
 5165TIP3   OH239689   4.345   5.974   9.139
 5165TIP3    H139690   4.328   6.050   9.195
 5165TIP3    H239691   4.428   5.940   9.171
 5166TIP3   OH239692   5.210   6.404   9.716
 5166TIP3    H139693   5.117   6.393   9.699
 5166TIP3    H239694   5.233   6.333   9.776
 5167TIP3   OH239695   4.203   6.945   9.029
 5167TIP3    H139696   4.277   6.991   9.070
 5167TIP3    H239697   4.243   6.889   8.962
 5168TIP3   OH239698   3.959   6.256   8.969
 5168TIP3    H139699   3.977   6.336   9.017
 5168TIP3    H239700   3.975   6.278   8.877
 5169TIP3   OH239701   5.418   7.331   9.839
 5169TIP3    H139702   5.379   7.414   9.813
 5169TIP3    H239703   5.405   7.326   9.933
 5170TIP3   OH239704   4.078   5.751   9.800
 5170TIP3    H139705   4.057   5.740   9.707
 5170TIP3    H239706   4.054   5.667   9.840
 5171TIP3   OH239707   3.937   7.153   9.486
 5171TIP3    H139708   3.883   7.185   9.558
 5171TIP3    H239709   3.900   7.195   9.408
 5172TIP3   OH239710   4.788   7.224   8.898
 5172TIP3    H139711   4.722   7.157   8.914
 5172TIP3    H239712   4.865   7.176   8.869
 5173TIP3   OH239713   5.235   7.204   8.913
 5173TIP3    H139714   5.256   7.121   8.954
 5173TIP3    H239715   5.304   7.217   8.848
 5174TIP3   OH239716   4.332   6.761   8.873
 5174TIP3    H139717   4.347   6.702   8.947
 5174TIP3    H239718   4.419   6.772   8.833
 5175TIP3   OH239719   5.004   6.854   8.917
 5175TIP3    H139720   4.943   6.857   8.991
 5175TIP3    H239721   4.968   6.787   8.859
 5176TIP3   OH239722   4.406   6.595   9.078
 5176TIP3    H139723   4.344   6.561   9.143
 5176TIP3    H239724   4.452   6.518   9.047
 5177TIP3   OH239725   4.605   6.434   8.926
 5177TIP3    H139726   4.605   6.468   8.837
 5177TIP3    H239727   4.697   6.438   8.954
 5178TIP3   OH239728   5.502   6.679   8.851
 5178TIP3    H139729   5.489   6.655   8.760
 5178TIP3    H239730   5.491   6.774   8.853
 5179TIP3   OH239731   4.583   7.566   9.056
 5179TIP3    H139732   4.675   7.540   9.051
 5179TIP3    H239733   4.581   7.655   9.021
 5180TIP3   OH239734   3.940   7.020   8.997
 5180TIP3    H139735   4.035   7.016   9.014
 5180TIP3    H239736   3.924   6.950   8.935
 5181TIP3   OH239737   3.778   7.453   9.491
 5181TIP3    H139738   3.699   7.425   9.446
 5181TIP3    H239739   3.784   7.397   9.568
 5182TIP3   OH239740   3.818   7.290   9.709
 5182TIP3    H139741   3.735   7.293   9.757
 5182TIP3    H239742   3.884   7.274   9.776
 5183TIP3   OH239743   5.608   6.737   9.279
 5183TIP3    H139744   5.671   6.807   9.297
 5183TIP3    H239745   5.617   6.677   9.353
 5184TIP3   OH239746   5.626   6.557   9.485
 5184TIP3    H139747   5.537   6.529   9.508
 5184TIP3    H239748   5.666   6.579   9.569
 5185TIP3   OH239749   5.588   7.038   9.929
 5185TIP3    H139750   5.589   6.945   9.950
 5185TIP3    H239751   5.669   7.053   9.881
 5186TIP3   OH239752   5.621   6.562   9.071
 5186TIP3    H139753   5.573   6.598   8.997
 5186TIP3    H239754   5.615   6.629   9.139
 5187TIP3   OH239755   5.339   6.317   9.012
 5187TIP3    H139756   5.310   6.395   8.964
 5187TIP3    H239757   5.331   6.246   8.948
 5188TIP3   OH239758   5.371   6.449   9.501
 5188TIP3    H139759   5.364   6.362   9.462
 5188TIP3    H239760   5.324   6.442   9.585
 5189TIP3   OH239761   3.795   6.698   9.907
 5189TIP3    H139762   3.828   6.673   9.821
 5189TIP3    H239763   3.872   6.696   9.964
 5190TIP3   OH239764   5.309   6.109   8.830
 5190TIP3    H139765   5.378   6.057   8.871
 5190TIP3    H239766   5.233   6.052   8.829
 5191TIP3   OH239767   5.343   6.213   9.349
 5191TIP3    H139768   5.368   6.120   9.352
 5191TIP3    H239769   5.412   6.254   9.296
 5192TIP3   OH239770   5.323   6.213   9.884
 5192TIP3    H139771   5.409   6.236   9.850
 5192TIP3    H239772   5.326   6.235   9.977
 5193TIP3   OH239773   5.413   5.946   9.357
 5193TIP3    H139774   5.440   5.915   9.443
 5193TIP3    H239775   5.340   5.889   9.333
 5194TIP3   OH239776   3.985   6.012   9.808
 5194TIP3    H139777   4.025   5.925   9.816
 5194TIP3    H239778   4.055   6.073   9.832
 5195TIP3   OH239779   3.696   6.281   9.780
 5195TIP3    H139780   3.790   6.295   9.764
 5195TIP3    H239781   3.664   6.367   9.808
 5196TIP3   OH239782   5.501   5.962   8.960
 5196TIP3    H139783   5.556   5.903   8.907
 5196TIP3    H239784   5.563   6.011   9.013
 5197TIP3   OH239785   3.894   5.909   9.264
 5197TIP3    H139786   3.830   5.899   9.334
 5197TIP3    H239787   3.860   5.981   9.210
 5198TIP3   OH239788   5.319   7.374   9.527
 5198TIP3    H139789   5.400   7.351   9.481
 5198TIP3    H239790   5.348   7.426   9.601
 5199TIP3   OH239791   4.062   7.315   9.873
 5199TIP3    H139792   4.103   7.381   9.929
 5199TIP3    H239793   4.133   7.283   9.818
 5200TIP3   OH239794   4.279   7.200   9.741
 5200TIP3    H139795   4.251   7.112   9.767
 5200TIP3    H239796   4.362   7.213   9.786
 5201TIP3   OH239797   4.541   7.197   9.842
 5201TIP3    H139798   4.523   7.103   9.835
 5201TIP3    H239799   4.636   7.201   9.857
 5202TIP3   OH239800   4.765   5.832   9.791
 5202TIP3    H139801   4.704   5.761   9.812
 5202TIP3    H239802   4.847   5.788   9.770
 5203TIP3   OH239803   5.255   5.798   9.671
 5203TIP3    H139804   5.347   5.820   9.654
 5203TIP3    H239805   5.215   5.881   9.698
 5204TIP3   OH239806   5.513   5.845   9.594
 5204TIP3    H139807   5.577   5.778   9.571
 5204TIP3    H239808   5.564   5.925   9.603
 5205TIP3   OH239809   4.018   5.692   9.538
 5205TIP3    H139810   3.928   5.666   9.518
 5205TIP3    H239811   4.070   5.614   9.515
 5206TIP3   OH239812   3.996   5.700   9.116
 5206TIP3    H139813   4.053   5.753   9.059
 5206TIP3    H239814   3.957   5.763   9.176
 5207TIP3   OH239815   4.568   5.611   9.532
 5207TIP3    H139816   4.631   5.674   9.497
 5207TIP3    H239817   4.579   5.618   9.627
 5208TIP3   OH239818   4.997   5.700   9.736
 5208TIP3    H139819   5.085   5.729   9.713
 5208TIP3    H239820   5.002   5.605   9.737
 5209TIP3   OH239821   5.208   5.780   9.278
 5209TIP3    H139822   5.128   5.827   9.299
 5209TIP3    H239823   5.186   5.688   9.294
 5210TIP3   OH239824   3.857   7.250   9.244
 5210TIP3    H139825   3.767   7.262   9.217
 5210TIP3    H239826   3.906   7.319   9.200
 5211TIP3   OH239827   4.162   5.861   8.966
 5211TIP3    H139828   4.218   5.805   8.913
 5211TIP3    H239829   4.220   5.899   9.032
 5212TIP3   OH239830   4.603   5.944   9.233
 5212TIP3    H139831   4.641   5.871   9.281
 5212TIP3    H239832   4.614   6.019   9.291
 5213TIP3   OH239833   4.827   7.444   9.060
 5213TIP3    H139834   4.922   7.456   9.052
 5213TIP3    H239835   4.808   7.366   9.009
 5214TIP3   OH239836   5.507   7.302   9.318
 5214TIP3    H139837   5.463   7.217   9.312
 5214TIP3    H239838   5.464   7.356   9.251
 5215TIP3   OH239839   4.088   7.342   8.887
 5215TIP3    H139840   4.049   7.378   8.966
 5215TIP3    H239841   4.173   7.307   8.915
 5216TIP3   OH239842   6.856   6.636   9.492
 5216TIP3    H139843   6.815   6.721   9.506
 5216TIP3    H239844   6.798   6.591   9.431
 5217TIP3   OH239845   6.748   6.610   9.809
 5217TIP3    H139846   6.771   6.548   9.878
 5217TIP3    H239847   6.700   6.557   9.745
 5218TIP3   OH239848   7.217   6.841   9.704
 5218TIP3    H139849   7.146   6.783   9.732
 5218TIP3    H239850   7.217   6.911   9.770
 5219TIP3   OH239851   6.106   6.932   9.803
 5219TIP3    H139852   6.077   6.844   9.779
 5219TIP3    H239853   6.200   6.923   9.819
 5220TIP3   OH239854   5.702   6.297   9.419
 5220TIP3    H139855   5.686   6.386   9.448
 5220TIP3    H239856   5.649   6.287   9.339
 5221TIP3   OH239857   5.786   6.597   9.707
 5221TIP3    H139858   5.800   6.504   9.723
 5221TIP3    H239859   5.875   6.634   9.706
 5222TIP3   OH239860   6.766   7.330   9.716
 5222TIP3    H139861   6.844   7.289   9.679
 5222TIP3    H239862   6.729   7.264   9.774
 5223TIP3   OH239863   6.653   6.864   9.744
 5223TIP3    H139864   6.674   6.865   9.651
 5223TIP3    H239865   6.690   6.782   9.776
 5224TIP3   OH239866   6.783   6.292   9.864
 5224TIP3    H139867   6.791   6.213   9.918
 5224TIP3    H239868   6.824   6.268   9.781
 5225TIP3   OH239869   6.242   6.045   9.660
 5225TIP3    H139870   6.252   6.132   9.620
 5225TIP3    H239871   6.177   6.001   9.605
 5226TIP3   OH239872   7.056   6.056   9.531
 5226TIP3    H139873   7.065   6.041   9.625
 5226TIP3    H239874   7.144   6.078   9.501
 5227TIP3   OH239875   5.841   6.332   9.735
 5227TIP3    H139876   5.895   6.289   9.801
 5227TIP3    H239877   5.872   6.298   9.651
 5228TIP3   OH239878   6.358   6.476   9.648
 5228TIP3    H139879   6.451   6.456   9.655
 5228TIP3    H239880   6.320   6.400   9.603
 5229TIP3   OH239881   6.718   6.873   9.468
 5229TIP3    H139882   6.730   6.862   9.374
 5229TIP3    H239883   6.700   6.966   9.479
 5230TIP3   OH239884   7.046   6.057   9.800
 5230TIP3    H139885   6.972   6.042   9.860
 5230TIP3    H239886   7.100   6.122   9.846
 5231TIP3   OH239887   6.074   6.209   9.843
 5231TIP3    H139888   6.109   6.297   9.855
 5231TIP3    H239889   6.144   6.160   9.801
 5232TIP3   OH239890   5.803   6.927   9.326
 5232TIP3    H139891   5.794   7.010   9.279
 5232TIP3    H239892   5.819   6.952   9.417
 5233TIP3   OH239893   7.232   7.062   9.868
 5233TIP3    H139894   7.321   7.077   9.899
 5233TIP3    H239895   7.199   7.149   9.846
 5234TIP3   OH239896   6.446   5.653   9.857
 5234TIP3    H139897   6.411   5.566   9.876
 5234TIP3    H239898   6.369   5.710   9.859
 5235TIP3   OH239899   6.956   7.214   9.527
 5235TIP3    H139900   7.011   7.136   9.527
 5235TIP3    H239901   7.017   7.286   9.512
 5236TIP3   OH239902   7.143   7.014   9.499
 5236TIP3    H139903   7.180   6.973   9.421
 5236TIP3    H239904   7.168   6.955   9.571
 5237TIP3   OH239905   6.707   6.538   9.281
 5237TIP3    H139906   6.633   6.594   9.258
 5237TIP3    H239907   6.776   6.562   9.219
 5238TIP3   OH239908   6.774   6.496   8.936
 5238TIP3    H139909   6.831   6.514   9.011
 5238TIP3    H239910   6.825   6.435   8.882
 5239TIP3   OH239911   7.093   6.662   9.354
 5239TIP3    H139912   7.017   6.666   9.412
 5239TIP3    H239913   7.147   6.592   9.391
 5240TIP3   OH239914   6.204   6.645   9.495
 5240TIP3    H139915   6.168   6.591   9.424
 5240TIP3    H239916   6.267   6.588   9.540
 5241TIP3   OH239917   6.385   6.922   9.793
 5241TIP3    H139918   6.366   6.956   9.705
 5241TIP3    H239919   6.474   6.889   9.787
 5242TIP3   OH239920   6.186   6.467   9.859
 5242TIP3    H139921   6.253   6.474   9.790
 5242TIP3    H239922   6.230   6.499   9.938
 5243TIP3   OH239923   6.960   6.550   9.136
 5243TIP3    H139924   7.004   6.599   9.206
 5243TIP3    H239925   7.016   6.564   9.060
 5244TIP3   OH239926   6.688   7.139   9.509
 5244TIP3    H139927   6.780   7.165   9.516
 5244TIP3    H239928   6.640   7.213   9.547
 5245TIP3   OH239929   7.345   5.668   9.147
 5245TIP3    H139930   7.257   5.695   9.170
 5245TIP3    H239931   7.388   5.748   9.116
 5246TIP3   OH239932   6.087   6.513   9.281
 5246TIP3    H139933   6.033   6.586   9.251
 5246TIP3    H239934   6.032   6.436   9.271
 5247TIP3   OH239935   7.594   7.090   9.041
 5247TIP3    H139936   7.583   7.184   9.030
 5247TIP3    H239937   7.675   7.070   8.994
 5248TIP3   OH239938   5.832   6.995   9.789
 5248TIP3    H139939   5.925   6.977   9.804
 5248TIP3    H239940   5.829   7.032   9.701
 5249TIP3   OH239941   6.702   7.506   9.341
 5249TIP3    H139942   6.695   7.510   9.246
 5249TIP3    H239943   6.616   7.532   9.373
 5250TIP3   OH239944   6.036   7.302   9.566
 5250TIP3    H139945   6.064   7.284   9.655
 5250TIP3    H239946   5.962   7.241   9.552
 5251TIP3   OH239947   6.977   7.379   9.030
 5251TIP3    H139948   7.032   7.310   8.991
 5251TIP3    H239949   6.936   7.336   9.105
 5252TIP3   OH239950   6.869   7.295   9.269
 5252TIP3    H139951   6.813   7.365   9.302
 5252TIP3    H239952   6.908   7.256   9.348
 5253TIP3   OH239953   6.233   5.821   9.834
 5253TIP3    H139954   6.140   5.798   9.834
 5253TIP3    H239955   6.237   5.903   9.783
 5254TIP3   OH239956   7.106   6.575   8.908
 5254TIP3    H139957   7.073   6.589   8.819
 5254TIP3    H239958   7.200   6.591   8.902
 5255TIP3   OH239959   6.682   5.969   9.008
 5255TIP3    H139960   6.599   5.971   9.055
 5255TIP3    H239961   6.667   5.910   8.934
 5256TIP3   OH239962   6.219   6.281   9.522
 5256TIP3    H139963   6.124   6.276   9.521
 5256TIP3    H239964   6.246   6.259   9.433
 5257TIP3   OH239965   6.741   6.281   9.365
 5257TIP3    H139966   6.710   6.368   9.341
 5257TIP3    H239967   6.818   6.266   9.310
 5258TIP3   OH239968   6.865   6.240   9.605
 5258TIP3    H139969   6.822   6.255   9.521
 5258TIP3    H239970   6.924   6.167   9.589
 5259TIP3   OH239971   6.395   5.994   8.905
 5259TIP3    H139972   6.389   5.971   8.998
 5259TIP3    H239973   6.311   6.036   8.885
 5260TIP3   OH239974   5.670   6.063   9.588
 5260TIP3    H139975   5.741   6.060   9.652
 5260TIP3    H239976   5.679   6.150   9.547
 5261TIP3   OH239977   5.690   6.105   9.102
 5261TIP3    H139978   5.777   6.137   9.078
 5261TIP3    H239979   5.644   6.182   9.135
 5262TIP3   OH239980   6.522   5.987   9.627
 5262TIP3    H139981   6.428   5.997   9.645
 5262TIP3    H239982   6.559   5.958   9.710
 5263TIP3   OH239983   5.953   6.221   9.502
 5263TIP3    H139984   5.870   6.235   9.456
 5263TIP3    H239985   5.969   6.127   9.496
 5264TIP3   OH239986   6.301   6.198   9.278
 5264TIP3    H139987   6.389   6.164   9.290
 5264TIP3    H239988   6.301   6.232   9.188
 5265TIP3   OH239989   6.817   6.033   9.964
 5265TIP3    H139990   6.821   5.998  10.053
 5265TIP3    H239991   6.752   5.979   9.920
 5266TIP3   OH239992   6.298   6.280   9.020
 5266TIP3    H139993   6.251   6.242   8.946
 5266TIP3    H239994   6.377   6.318   8.981
 5267TIP3   OH239995   6.618   6.401   9.674
 5267TIP3    H139996   6.669   6.366   9.601
 5267TIP3    H239997   6.653   6.357   9.751
 5268TIP3   OH239998   6.056   5.959   9.475
 5268TIP3    H139999   6.007   5.879   9.495
 5268TIP3    H240000   6.085   5.947   9.385
 5269TIP3   OH240001   6.503   6.711   9.214
 5269TIP3    H140002   6.435   6.664   9.165
 5269TIP3    H240003   6.454   6.765   9.277
 5270TIP3   OH240004   6.920   6.027   9.119
 5270TIP3    H140005   6.832   6.019   9.082
 5270TIP3    H240006   6.932   6.120   9.135
 5271TIP3   OH240007   6.971   6.281   9.215
 5271TIP3    H140008   7.060   6.263   9.246
 5271TIP3    H240009   6.974   6.371   9.184
 5272TIP3   OH240010   6.051   6.675   9.722
 5272TIP3    H140011   6.099   6.671   9.639
 5272TIP3    H240012   6.085   6.600   9.773
 5273TIP3   OH240013   6.735   6.850   9.180
 5273TIP3    H140014   6.713   6.943   9.176
 5273TIP3    H240015   6.650   6.805   9.180
 5274TIP3   OH240016   7.416   6.329   9.130
 5274TIP3    H140017   7.377   6.296   9.049
 5274TIP3    H240018   7.466   6.406   9.103
 5275TIP3   OH240019   7.405   7.120   9.254
 5275TIP3    H140020   7.350   7.042   9.264
 5275TIP3    H240021   7.466   7.097   9.184
 5276TIP3   OH240022   7.025   6.659   9.766
 5276TIP3    H140023   6.929   6.659   9.768
 5276TIP3    H240024   7.048   6.573   9.731
 5277TIP3   OH240025   6.284   7.043   9.570
 5277TIP3    H140026   6.300   7.128   9.529
 5277TIP3    H240027   6.193   7.049   9.601
 5278TIP3   OH240028   5.882   6.509   9.011
 5278TIP3    H140029   5.922   6.586   9.051
 5278TIP3    H240030   5.788   6.518   9.030
 5279TIP3   OH240031   6.341   6.855   9.381
 5279TIP3    H140032   6.335   6.924   9.449
 5279TIP3    H240033   6.288   6.783   9.416
 5280TIP3   OH240034   6.287   7.289   9.452
 5280TIP3    H140035   6.194   7.305   9.468
 5280TIP3    H240036   6.332   7.356   9.503
 5281TIP3   OH240037   7.160   6.944   9.027
 5281TIP3    H140038   7.178   6.919   9.118
 5281TIP3    H240039   7.077   6.902   9.007
 5282TIP3   OH240040   7.564   7.369   9.020
 5282TIP3    H140041   7.590   7.413   8.940
 5282TIP3    H240042   7.486   7.416   9.049
 5283TIP3   OH240043   7.256   6.869   9.278
 5283TIP3    H140044   7.194   6.802   9.305
 5283TIP3    H240045   7.340   6.823   9.268
 5284TIP3   OH240046   6.456   7.039   8.911
 5284TIP3    H140047   6.459   6.953   8.869
 5284TIP3    H240048   6.422   7.021   8.999
 5285TIP3   OH240049   6.336   7.017   9.156
 5285TIP3    H140050   6.341   6.962   9.235
 5285TIP3    H240051   6.368   7.103   9.184
 5286TIP3   OH240052   5.948   6.731   9.180
 5286TIP3    H140053   5.889   6.782   9.236
 5286TIP3    H240054   6.002   6.796   9.136
 5287TIP3   OH240055   6.896   5.910   9.363
 5287TIP3    H140056   6.898   5.957   9.280
 5287TIP3    H240057   6.951   5.963   9.422
 5288TIP3   OH240058   6.673   7.113   9.182
 5288TIP3    H140059   6.592   7.161   9.198
 5288TIP3    H240060   6.742   7.173   9.210
 5289TIP3   OH240061   6.544   6.084   9.366
 5289TIP3    H140062   6.614   6.149   9.365
 5289TIP3    H240063   6.536   6.059   9.459
 5290TIP3   OH240064   6.691   5.799   9.505
 5290TIP3    H140065   6.638   5.873   9.534
 5290TIP3    H240066   6.758   5.838   9.448
 5291TIP3   OH240067   6.441   7.262   9.229
 5291TIP3    H140068   6.443   7.351   9.193
 5291TIP3    H240069   6.389   7.270   9.309
 5292TIP3   OH240070   6.169   5.959   9.219
 5292TIP3    H140071   6.186   6.052   9.235
 5292TIP3    H240072   6.255   5.921   9.201
 5293TIP3   OH240073   7.081   6.397   9.685
 5293TIP3    H140074   7.001   6.349   9.664
 5293TIP3    H240075   7.117   6.351   9.761
 5294TIP3   OH240076   6.094   6.928   9.053
 5294TIP3    H140077   6.168   6.976   9.091
 5294TIP3    H240078   6.134   6.866   8.993
 5295TIP3   OH240079   5.921   6.233   9.031
 5295TIP3    H140080   5.918   6.329   9.024
 5295TIP3    H240081   5.973   6.205   8.956
 5296TIP3   OH240082   7.203   7.327   9.786
 5296TIP3    H140083   7.161   7.410   9.764
 5296TIP3    H240084   7.288   7.330   9.743
 5297TIP3   OH240085   5.965   5.756   9.801
 5297TIP3    H140086   5.955   5.748   9.706
 5297TIP3    H240087   5.924   5.677   9.836
 5298TIP3   OH240088   5.815   7.131   9.541
 5298TIP3    H140089   5.748   7.178   9.592
 5298TIP3    H240090   5.800   7.159   9.451
 5299TIP3   OH240091   6.646   7.242   8.898
 5299TIP3    H140092   6.577   7.177   8.915
 5299TIP3    H240093   6.726   7.189   8.887
 5300TIP3   OH240094   7.127   7.187   8.908
 5300TIP3    H140095   7.149   7.106   8.955
 5300TIP3    H240096   7.195   7.195   8.841
 5301TIP3   OH240097   6.206   6.730   8.905
 5301TIP3    H140098   6.236   6.671   8.974
 5301TIP3    H240099   6.287   6.755   8.858
 5302TIP3   OH240100   6.904   6.852   8.962
 5302TIP3    H140101   6.850   6.842   9.040
 5302TIP3    H240102   6.860   6.799   8.895
 5303TIP3   OH240103   6.296   6.566   9.105
 5303TIP3    H140104   6.229   6.538   9.168
 5303TIP3    H240105   6.331   6.485   9.068
 5304TIP3   OH240106   6.504   6.434   8.937
 5304TIP3    H140107   6.487   6.473   8.851
 5304TIP3    H240108   6.597   6.451   8.953
 5305TIP3   OH240109   7.375   6.653   8.852
 5305TIP3    H140110   7.346   6.647   8.761
 5305TIP3    H240111   7.383   6.747   8.869
 5306TIP3   OH240112   6.461   7.529   9.152
 5306TIP3    H140113   6.541   7.523   9.101
 5306TIP3    H240114   6.416   7.607   9.118
 5307TIP3   OH240115   5.887   7.026   8.902
 5307TIP3    H140116   5.959   7.008   8.963
 5307TIP3    H240117   5.850   6.940   8.882
 5308TIP3   OH240118   5.674   7.442   9.485
 5308TIP3    H140119   5.618   7.401   9.419
 5308TIP3    H240120   5.660   7.391   9.564
 5309TIP3   OH240121   5.658   7.283   9.708
 5309TIP3    H140122   5.574   7.287   9.755
 5309TIP3    H240123   5.723   7.303   9.775
 5310TIP3   OH240124   7.501   6.740   9.260
 5310TIP3    H140125   7.577   6.797   9.271
 5310TIP3    H240126   7.499   6.687   9.339
 5311TIP3   OH240127   7.469   6.574   9.476
 5311TIP3    H140128   7.383   6.533   9.473
 5311TIP3    H240129   7.475   6.611   9.565
 5312TIP3   OH240130   7.566   6.866   9.886
 5312TIP3    H140131   7.655   6.872   9.921
 5312TIP3    H240132   7.532   6.955   9.892
 5313TIP3   OH240133   7.547   6.565   9.050
 5313TIP3    H140134   7.486   6.589   8.980
 5313TIP3    H240135   7.528   6.627   9.120
 5314TIP3   OH240136   7.306   6.243   8.894
 5314TIP3    H140137   7.265   6.287   8.820
 5314TIP3    H240138   7.288   6.150   8.881
 5315TIP3   OH240139   7.228   6.448   9.461
 5315TIP3    H140140   7.226   6.363   9.416
 5315TIP3    H240141   7.181   6.432   9.543
 5316TIP3   OH240142   5.676   6.779   9.877
 5316TIP3    H140143   5.704   6.705   9.823
 5316TIP3    H240144   5.733   6.851   9.850
 5317TIP3   OH240145   7.251   5.977   8.851
 5317TIP3    H140146   7.264   5.914   8.922
 5317TIP3    H240147   7.157   5.972   8.832
 5318TIP3   OH240148   7.230   6.217   9.303
 5318TIP3    H140149   7.249   6.124   9.309
 5318TIP3    H240150   7.297   6.252   9.245
 5319TIP3   OH240151   7.192   6.267   9.905
 5319TIP3    H140152   7.285   6.257   9.883
 5319TIP3    H240153   7.191   6.317   9.986
 5320TIP3   OH240154   7.268   5.940   9.345
 5320TIP3    H140155   7.286   5.905   9.432
 5320TIP3    H240156   7.208   5.877   9.305
 5321TIP3   OH240157   5.878   6.024   9.766
 5321TIP3    H140158   5.902   5.935   9.792
 5321TIP3    H240159   5.944   6.079   9.807
 5322TIP3   OH240160   5.563   6.321   9.815
 5322TIP3    H140161   5.656   6.321   9.790
 5322TIP3    H240162   5.546   6.410   9.843
 5323TIP3   OH240163   7.475   5.879   9.014
 5323TIP3    H140164   7.512   5.818   8.950
 5323TIP3    H240165   7.471   5.963   8.967
 5324TIP3   OH240166   5.651   5.865   9.229
 5324TIP3    H140167   5.574   5.888   9.281
 5324TIP3    H240168   5.680   5.948   9.192
 5325TIP3   OH240169   7.133   7.411   9.450
 5325TIP3    H140170   7.224   7.398   9.423
 5325TIP3    H240171   7.138   7.468   9.527
 5326TIP3   OH240172   5.870   7.327   9.885
 5326TIP3    H140173   5.851   7.298   9.975
 5326TIP3    H240174   5.954   7.286   9.864
 5327TIP3   OH240175   6.112   7.210   9.817
 5327TIP3    H140176   6.105   7.114   9.824
 5327TIP3    H240177   6.201   7.230   9.844
 5328TIP3   OH240178   6.383   7.185   9.882
 5328TIP3    H140179   6.379   7.090   9.865
 5328TIP3    H240180   6.476   7.205   9.886
 5329TIP3   OH240181   6.645   5.852   9.843
 5329TIP3    H140182   6.581   5.784   9.862
 5329TIP3    H240183   6.721   5.804   9.810
 5330TIP3   OH240184   7.144   5.688   9.713
 5330TIP3    H140185   7.200   5.761   9.688
 5330TIP3    H240186   7.058   5.726   9.729
 5331TIP3   OH240187   7.349   5.843   9.590
 5331TIP3    H140188   7.407   5.767   9.590
 5331TIP3    H240189   7.407   5.918   9.596
 5332TIP3   OH240190   5.937   5.718   9.530
 5332TIP3    H140191   5.845   5.705   9.507
 5332TIP3    H240192   5.977   5.631   9.518
 5333TIP3   OH240193   5.793   5.670   9.104
 5333TIP3    H140194   5.872   5.717   9.077
 5333TIP3    H240195   5.742   5.733   9.154
 5334TIP3   OH240196   6.469   5.637   9.582
 5334TIP3    H140197   6.541   5.695   9.556
 5334TIP3    H240198   6.464   5.645   9.677
 5335TIP3   OH240199   6.858   5.724   9.719
 5335TIP3    H140200   6.816   5.746   9.636
 5335TIP3    H240201   6.842   5.631   9.731
 5336TIP3   OH240202   7.094   5.749   9.240
 5336TIP3    H140203   7.024   5.808   9.266
 5336TIP3    H240204   7.056   5.662   9.246
 5337TIP3   OH240205   5.773   7.207   9.280
 5337TIP3    H140206   5.682   7.237   9.276
 5337TIP3    H240207   5.821   7.272   9.229
 5338TIP3   OH240208   6.025   5.807   9.034
 5338TIP3    H140209   6.089   5.735   9.030
 5338TIP3    H240210   6.060   5.866   9.101
 5339TIP3   OH240211   6.444   5.918   9.168
 5339TIP3    H140212   6.466   5.826   9.178
 5339TIP3    H240213   6.483   5.961   9.244
 5340TIP3   OH240214   6.706   7.465   9.050
 5340TIP3    H140215   6.799   7.470   9.029
 5340TIP3    H240216   6.675   7.389   9.002
 5341TIP3   OH240217   7.383   7.381   9.334
 5341TIP3    H140218   7.392   7.289   9.309
 5341TIP3    H240219   7.384   7.429   9.251
 5342TIP3   OH240220   5.998   7.361   8.876
 5342TIP3    H140221   5.963   7.373   8.965
 5342TIP3    H240222   6.073   7.303   8.888
 5343TIP3   OH240223   7.602   6.373   9.336
 5343TIP3    H140224   7.554   6.436   9.391
 5343TIP3    H240225   7.536   6.340   9.275
 5344TIP3   OH240226   7.505   7.138   9.888
 5344TIP3    H140227   7.599   7.152   9.900
 5344TIP3    H240228   7.479   7.202   9.823
 5345TIP3   OH240229   7.518   6.054   9.537
 5345TIP3    H140230   7.598   6.097   9.569
 5345TIP3    H240231   7.533   6.041   9.443
 5346TIP3   OH240232   7.484   7.550   9.526
 5346TIP3    H140233   7.451   7.500   9.451
 5346TIP3    H240234   7.473   7.491   9.601
 5347TIP3   OH240235   7.445   7.291   9.649
 5347TIP3    H140236   7.404   7.237   9.582
 5347TIP3    H240237   7.539   7.275   9.638
 5348TIP3   OH240238   7.622   6.491   9.836
 5348TIP3    H140239   7.701   6.544   9.834
 5348TIP3    H240240   7.554   6.549   9.802
 5349TIP3   OH240241   7.461   6.262   9.862
 5349TIP3    H140242   7.528   6.194   9.860
 5349TIP3    H240243   7.508   6.344   9.847
 5350TIP3   OH240244   7.535   5.949   9.276
 5350TIP3    H140245   7.442   5.946   9.301
 5350TIP3    H240246   7.535   5.928   9.182
 5351TIP3   OH240247   0.761   7.455   9.754
 5351TIP3    H140248   0.790   7.371   9.790
 5351TIP3    H240249   0.690   7.483   9.812
 5352TIP3   OH240250   1.616   7.513   9.132
 5352TIP3    H140251   1.540   7.518   9.190
 5352TIP3    H240252   1.619   7.599   9.091
 5353TIP3   OH240253   0.567   7.568   9.907
 5353TIP3    H140254   0.473   7.556   9.892
 5353TIP3    H240255   0.579   7.663   9.906
 5354TIP3   OH240256   0.296   7.528   9.851
 5354TIP3    H140257   0.277   7.494   9.764
 5354TIP3    H240258   0.281   7.454   9.910
 5355TIP3   OH240259   1.554   7.540   9.767
 5355TIP3    H140260   1.569   7.633   9.750
 5355TIP3    H240261   1.459   7.531   9.772
 5356TIP3   OH240262   0.239   7.418   9.607
 5356TIP3    H140263   0.193   7.477   9.548
 5356TIP3    H240264   0.296   7.366   9.550
 5357TIP3   OH240265   0.314   7.483   9.166
 5357TIP3    H140266   0.277   7.571   9.161
 5357TIP3    H240267   0.391   7.492   9.222
 5358TIP3   OH240268   0.695   7.481   9.487
 5358TIP3    H140269   0.690   7.576   9.481
 5358TIP3    H240270   0.721   7.465   9.578
 5359TIP3   OH240271   1.282   7.530   9.746
 5359TIP3    H140272   1.258   7.614   9.707
 5359TIP3    H240273   1.206   7.474   9.731
 5360TIP3   OH240274   1.422   7.539   9.328
 5360TIP3    H140275   1.339   7.494   9.315
 5360TIP3    H240276   1.460   7.497   9.406
 5361TIP3   OH240277   2.705   7.495   9.847
 5361TIP3    H140278   2.744   7.476   9.762
 5361TIP3    H240279   2.614   7.519   9.827
 5362TIP3   OH240280   3.484   7.514   9.144
 5362TIP3    H140281   3.399   7.521   9.187
 5362TIP3    H240282   3.499   7.600   9.106
 5363TIP3   OH240283   2.456   7.599   9.793
 5363TIP3    H140284   2.362   7.580   9.788
 5363TIP3    H240285   2.460   7.690   9.822
 5364TIP3   OH240286   2.183   7.572   9.763
 5364TIP3    H140287   2.176   7.564   9.668
 5364TIP3    H240288   2.146   7.490   9.797
 5365TIP3   OH240289   3.403   7.548   9.778
 5365TIP3    H140290   3.436   7.638   9.773
 5365TIP3    H240291   3.308   7.557   9.783
 5366TIP3   OH240292   2.178   7.541   9.491
 5366TIP3    H140293   2.089   7.510   9.474
 5366TIP3    H240294   2.232   7.462   9.482
 5367TIP3   OH240295   2.105   7.459   9.087
 5367TIP3    H140296   2.117   7.553   9.101
 5367TIP3    H240297   2.013   7.450   9.062
 5368TIP3   OH240298   2.588   7.500   9.572
 5368TIP3    H140299   2.651   7.569   9.552
 5368TIP3    H240300   2.528   7.539   9.636
 5369TIP3   OH240301   3.134   7.548   9.677
 5369TIP3    H140302   3.189   7.500   9.615
 5369TIP3    H240303   3.070   7.484   9.706
 5370TIP3   OH240304   3.267   7.547   9.311
 5370TIP3    H140305   3.190   7.496   9.284
 5370TIP3    H240306   3.293   7.509   9.394
 5371TIP3   OH240307   4.507   7.473   9.792
 5371TIP3    H140308   4.528   7.382   9.814
 5371TIP3    H240309   4.418   7.486   9.826
 5372TIP3   OH240310   5.380   7.458   9.128
 5372TIP3    H140311   5.289   7.441   9.103
 5372TIP3    H240312   5.387   7.554   9.129
 5373TIP3   OH240313   4.256   7.545   9.887
 5373TIP3    H140314   4.180   7.559   9.832
 5373TIP3    H240315   4.284   7.633   9.912
 5374TIP3   OH240316   4.023   7.580   9.745
 5374TIP3    H140317   4.026   7.578   9.649
 5374TIP3    H240318   3.973   7.502   9.769
 5375TIP3   OH240319   5.308   7.560   9.743
 5375TIP3    H140320   5.341   7.649   9.740
 5375TIP3    H240321   5.213   7.569   9.730
 5376TIP3   OH240322   4.028   7.557   9.472
 5376TIP3    H140323   3.940   7.524   9.459
 5376TIP3    H240324   4.084   7.479   9.464
 5377TIP3   OH240325   3.948   7.465   9.091
 5377TIP3    H140326   3.962   7.559   9.107
 5377TIP3    H240327   3.858   7.460   9.058
 5378TIP3   OH240328   4.552   7.501   9.516
 5378TIP3    H140329   4.547   7.597   9.508
 5378TIP3    H240330   4.546   7.485   9.610
 5379TIP3   OH240331   5.043   7.590   9.664
 5379TIP3    H140332   5.065   7.577   9.572
 5379TIP3    H240333   4.992   7.513   9.688
 5380TIP3   OH240334   5.152   7.555   9.410
 5380TIP3    H140335   5.099   7.501   9.352
 5380TIP3    H240336   5.218   7.496   9.445
 5381TIP3   OH240337   6.523   7.528   9.881
 5381TIP3    H140338   6.569   7.467   9.824
 5381TIP3    H240339   6.431   7.502   9.875
 5382TIP3   OH240340   7.355   7.535   9.100
 5382TIP3    H140341   7.266   7.541   9.134
 5382TIP3    H240342   7.367   7.616   9.049
 5383TIP3   OH240343   6.243   7.565   9.824
 5383TIP3    H140344   6.149   7.550   9.813
 5383TIP3    H240345   6.249   7.653   9.861
 5384TIP3   OH240346   5.967   7.570   9.787
 5384TIP3    H140347   5.946   7.564   9.694
 5384TIP3    H240348   5.920   7.497   9.828
 5385TIP3   OH240349   7.100   7.563   9.677
 5385TIP3    H140350   7.119   7.655   9.694
 5385TIP3    H240351   7.007   7.562   9.653
 5386TIP3   OH240352   5.918   7.554   9.517
 5386TIP3    H140353   5.830   7.523   9.494
 5386TIP3    H240354   5.974   7.478   9.506
 5387TIP3   OH240355   5.861   7.426   9.118
 5387TIP3    H140356   5.875   7.519   9.136
 5387TIP3    H240357   5.775   7.422   9.077
 5388TIP3   OH240358   6.393   7.479   9.608
 5388TIP3    H140359   6.442   7.557   9.583
 5388TIP3    H240360   6.337   7.508   9.680
 5389TIP3   OH240361   6.837   7.561   9.585
 5389TIP3    H140362   6.797   7.550   9.499
 5389TIP3    H240363   6.800   7.490   9.638
 5390TIP3   OH240364   7.103   7.546   9.210
 5390TIP3    H140365   7.049   7.496   9.148
 5390TIP3    H240366   7.094   7.499   9.293
 5391TIP3   OH240367   1.246   1.098   0.768
 5391TIP3    H140368   1.232   1.176   0.714
 5391TIP3    H240369   1.168   1.044   0.752
 5392TIP3   OH240370   1.067   0.961   1.050
 5392TIP3    H140371   1.095   0.922   1.132
 5392TIP3    H240372   1.025   0.889   1.002
 5393TIP3   OH240373   0.313   0.922   1.231
 5393TIP3    H140374   0.301   0.830   1.256
 5393TIP3    H240375   0.361   0.960   1.305
 5394TIP3   OH240376   1.608   1.252   0.958
 5394TIP3    H140377   1.537   1.187   0.958
 5394TIP3    H240378   1.570   1.328   1.002
 5395TIP3   OH240379   0.508   1.369   1.035
 5395TIP3    H140380   0.470   1.289   0.999
 5395TIP3    H240381   0.601   1.364   1.012
 5396TIP3   OH240382   0.192   0.660   0.485
 5396TIP3    H140383   0.197   0.733   0.424
 5396TIP3    H240384   0.100   0.656   0.512
 5397TIP3   OH240385   0.045   0.874   0.860
 5397TIP3    H140386   0.094   0.792   0.871
 5397TIP3    H240387   0.101   0.941   0.899
 5398TIP3   OH240388   1.213   1.666   0.954
 5398TIP3    H140389   1.247   1.616   0.879
 5398TIP3    H240390   1.217   1.605   1.027
 5399TIP3   OH240391   0.988   1.223   1.029
 5399TIP3    H140392   1.012   1.132   1.011
 5399TIP3    H240393   1.063   1.257   1.079
 5400TIP3   OH240394   1.887   0.406   1.180
 5400TIP3    H140395   1.868   0.499   1.179
 5400TIP3    H240396   1.954   0.394   1.113
 5401TIP3   OH240397   1.235   0.666   1.052
 5401TIP3    H140398   1.229   0.576   1.084
 5401TIP3    H240399   1.202   0.661   0.962
 5402TIP3   OH240400   0.620   0.498   0.839
 5402TIP3    H140401   0.594   0.572   0.784
 5402TIP3    H240402   0.605   0.421   0.783
 5403TIP3   OH240403   1.375   0.461   0.719
 5403TIP3    H140404   1.410   0.437   0.805
 5403TIP3    H240405   1.448   0.507   0.676
 5404TIP3   OH240406   0.228   0.670   0.923
 5404TIP3    H140407   0.309   0.651   0.971
 5404TIP3    H240408   0.237   0.620   0.841
 5405TIP3   OH240409   0.725   0.858   0.820
 5405TIP3    H140410   0.808   0.819   0.847
 5405TIP3    H240411   0.680   0.788   0.773
 5406TIP3   OH240412   1.912   0.645   1.438
 5406TIP3    H140413   1.821   0.648   1.408
 5406TIP3    H240414   1.908   0.603   1.523
 5407TIP3   OH240415   0.499   0.370   1.262
 5407TIP3    H140416   0.472   0.431   1.194
 5407TIP3    H240417   0.431   0.376   1.329
 5408TIP3   OH240418   1.181   1.284   0.574
 5408TIP3    H140419   1.185   1.273   0.479
 5408TIP3    H240420   1.147   1.372   0.587
 5409TIP3   OH240421   0.793   1.118   1.196
 5409TIP3    H140422   0.749   1.190   1.242
 5409TIP3    H240423   0.862   1.160   1.145
 5410TIP3   OH240424   1.455   0.414   0.980
 5410TIP3    H140425   1.374   0.411   1.030
 5410TIP3    H240426   1.509   0.479   1.024
 5411TIP3   OH240427   0.445   0.535   1.046
 5411TIP3    H140428   0.486   0.608   1.092
 5411TIP3    H240429   0.506   0.515   0.975
 5412TIP3   OH240430   0.657   1.331   1.305
 5412TIP3    H140431   0.636   1.385   1.229
 5412TIP3    H240432   0.573   1.312   1.346
 5413TIP3   OH240433   0.088   1.265   0.430
 5413TIP3    H140434   0.085   1.296   0.339
 5413TIP3    H240435   0.113   1.342   0.481
 5414TIP3   OH240436   1.508   1.473   1.083
 5414TIP3    H140437   1.415   1.481   1.105
 5414TIP3    H240438   1.534   1.561   1.055
 5415TIP3   OH240439   1.654   0.267   1.254
 5415TIP3    H140440   1.616   0.231   1.174
 5415TIP3    H240441   1.726   0.322   1.224
 5416TIP3   OH240442   0.840   0.100   0.983
 5416TIP3    H140443   0.841   0.007   1.008
 5416TIP3    H240444   0.764   0.136   1.028
 5417TIP3   OH240445   1.355   1.601   0.719
 5417TIP3    H140446   1.414   1.526   0.723
 5417TIP3    H240447   1.412   1.677   0.734
 5418TIP3   OH240448   1.531   1.398   0.734
 5418TIP3    H140449   1.547   1.346   0.655
 5418TIP3    H240450   1.572   1.347   0.804
 5419TIP3   OH240451   1.626   1.243   1.449
 5419TIP3    H140452   1.601   1.183   1.380
 5419TIP3    H240453   1.649   1.324   1.403
 5420TIP3   OH240454   1.033   1.001   0.604
 5420TIP3    H140455   0.966   1.069   0.607
 5420TIP3    H240456   1.088   1.024   0.529
 5421TIP3   OH240457   1.027   0.819   0.255
 5421TIP3    H140458   1.068   0.878   0.318
 5421TIP3    H240459   1.098   0.765   0.222
 5422TIP3   OH240460   1.753   0.933   1.354
 5422TIP3    H140461   1.690   0.990   1.310
 5422TIP3    H240462   1.829   0.931   1.296
 5423TIP3   OH240463   1.427   1.012   0.575
 5423TIP3    H140464   1.370   1.038   0.647
 5423TIP3    H240465   1.479   0.939   0.611
 5424TIP3   OH240466   1.383   0.765   1.472
 5424TIP3    H140467   1.393   0.844   1.524
 5424TIP3    H240468   1.320   0.788   1.404
 5425TIP3   OH240469   0.593   1.060   0.691
 5425TIP3    H140470   0.551   1.013   0.618
 5425TIP3    H240471   0.642   0.992   0.737
 5426TIP3   OH240472   0.774   1.382   0.961
 5426TIP3    H140473   0.765   1.388   0.866
 5426TIP3    H240474   0.850   1.326   0.975
 5427TIP3   OH240475   0.617   0.971   1.047
 5427TIP3    H140476   0.666   0.936   0.972
 5427TIP3    H240477   0.682   1.019   1.098
 5428TIP3   OH240478   1.251   1.504   1.174
 5428TIP3    H140479   1.227   1.547   1.256
 5428TIP3    H240480   1.230   1.411   1.189
 5429TIP3   OH240481   0.741   1.335   1.574
 5429TIP3    H140482   0.668   1.384   1.613
 5429TIP3    H240483   0.716   1.325   1.482
 5430TIP3   OH240484   1.211   0.996   0.392
 5430TIP3    H140485   1.287   0.993   0.450
 5430TIP3    H240486   1.248   1.003   0.304
 5431TIP3   OH240487   0.422   0.972   1.488
 5431TIP3    H140488   0.458   1.040   1.546
 5431TIP3    H240489   0.329   0.970   1.511
 5432TIP3   OH240490   1.112   1.556   0.596
 5432TIP3    H140491   1.193   1.562   0.646
 5432TIP3    H240492   1.086   1.647   0.581
 5433TIP3   OH240493   0.538   1.508   1.657
 5433TIP3    H140494   0.543   1.553   1.573
 5433TIP3    H240495   0.446   1.481   1.665
 5434TIP3   OH240496   1.634   0.070   0.249
 5434TIP3    H140497   1.579   0.112   0.315
 5434TIP3    H240498   1.695   0.139   0.222
 5435TIP3   OH240499   0.480   0.910   0.485
 5435TIP3    H140500   0.409   0.964   0.452
 5435TIP3    H240501   0.520   0.872   0.407
 5436TIP3   OH240502   1.772   1.468   0.189
 5436TIP3    H140503   1.806   1.557   0.184
 5436TIP3    H240504   1.850   1.412   0.191
 5437TIP3   OH240505   0.163   1.247   1.495
 5437TIP3    H140506   0.075   1.257   1.457
 5437TIP3    H240507   0.166   1.156   1.524
 5438TIP3   OH240508   0.247   1.477   1.110
 5438TIP3    H140509   0.327   1.426   1.094
 5438TIP3    H240510   0.269   1.531   1.187
 5439TIP3   OH240511   1.888   1.495   1.633
 5439TIP3    H140512   1.889   1.401   1.614
 5439TIP3    H240513   1.804   1.510   1.675
 5440TIP3   OH240514   0.976   1.472   1.559
 5440TIP3    H140515   0.959   1.558   1.596
 5440TIP3    H240516   0.894   1.424   1.571
 5441TIP3   OH240517   1.081   1.814   0.504
 5441TIP3    H140518   1.061   1.817   0.410
 5441TIP3    H240519   1.042   1.893   0.540
 5442TIP3   OH240520   0.414   1.697   0.730
 5442TIP3    H140521   0.455   1.681   0.815
 5442TIP3    H240522   0.324   1.668   0.741
 5443TIP3   OH240523   1.327   1.725   0.185
 5443TIP3    H140524   1.381   1.653   0.152
 5443TIP3    H240525   1.347   1.729   0.279
 5444TIP3   OH240526   1.348   1.750   0.462
 5444TIP3    H140527   1.257   1.771   0.481
 5444TIP3    H240528   1.368   1.675   0.519
 5445TIP3   OH240529   1.508   0.614   1.679
 5445TIP3    H140530   1.460   0.664   1.613
 5445TIP3    H240531   1.518   0.527   1.640
 5446TIP3   OH240532   0.431   1.291   1.442
 5446TIP3    H140533   0.452   1.255   1.528
 5446TIP3    H240534   0.335   1.284   1.435
 5447TIP3   OH240535   0.597   0.179   1.086
 5447TIP3    H140536   0.530   0.189   1.018
 5447TIP3    H240537   0.574   0.244   1.153
 5448TIP3   OH240538   1.005   0.182   1.517
 5448TIP3    H140539   1.036   0.099   1.482
 5448TIP3    H240540   0.936   0.158   1.579
 5449TIP3   OH240541   1.299   0.492   1.504
 5449TIP3    H140542   1.244   0.490   1.582
 5449TIP3    H240543   1.304   0.585   1.481
 5450TIP3   OH240544   1.345   0.981   0.144
 5450TIP3    H140545   1.343   0.888   0.165
 5450TIP3    H240546   1.330   0.985   0.050
 5451TIP3   OH240547   0.969   0.314   0.150
 5451TIP3    H140548   0.925   0.308   0.234
 5451TIP3    H240549   0.899   0.335   0.088
 5452TIP3   OH240550   0.584   0.728   1.171
 5452TIP3    H140551   0.578   0.740   1.266
 5452TIP3    H240552   0.580   0.816   1.135
 5453TIP3   OH240553   0.548   0.701   0.666
 5453TIP3    H140554   0.504   0.777   0.628
 5453TIP3    H240555   0.559   0.640   0.593
 5454TIP3   OH240556   1.074   0.731   0.569
 5454TIP3    H140557   1.057   0.824   0.582
 5454TIP3    H240558   1.163   0.727   0.534
 5455TIP3   OH240559   1.105   0.761   1.719
 5455TIP3    H140560   1.012   0.743   1.703
 5455TIP3    H240561   1.145   0.674   1.727
 5456TIP3   OH240562   1.154   0.610   0.799
 5456TIP3    H140563   1.121   0.651   0.719
 5456TIP3    H240564   1.225   0.552   0.769
 5457TIP3   OH240565   0.309   0.660   1.328
 5457TIP3    H140566   0.391   0.681   1.371
 5457TIP3    H240567   0.288   0.572   1.358
 5458TIP3   OH240568   0.710   0.409   0.079
 5458TIP3    H140569   0.655   0.375   0.150
 5458TIP3    H240570   0.740   0.494   0.111
 5459TIP3   OH240571   0.040   0.422   0.868
 5459TIP3    H140572   0.095   0.398   0.942
 5459TIP3    H240573   0.101   0.459   0.804
 5460TIP3   OH240574   0.302   0.479   0.314
 5460TIP3    H140575   0.335   0.534   0.243
 5460TIP3    H240576   0.270   0.541   0.379
 5461TIP3   OH240577   1.189   0.812   1.279
 5461TIP3    H140578   1.207   0.762   1.199
 5461TIP3    H240579   1.122   0.762   1.325
 5462TIP3   OH240580   0.889   0.436   0.776
 5462TIP3    H140581   0.808   0.457   0.821
 5462TIP3    H240582   0.947   0.402   0.844
 5463TIP3   OH240583   0.252   0.503   0.704
 5463TIP3    H140584   0.240   0.560   0.628
 5463TIP3    H240585   0.312   0.435   0.674
 5464TIP3   OH240586   0.605   0.560   0.440
 5464TIP3    H140587   0.697   0.555   0.468
 5464TIP3    H240588   0.603   0.633   0.378
 5465TIP3   OH240589   1.213   0.402   1.111
 5465TIP3    H140590   1.169   0.391   1.196
 5465TIP3    H240591   1.155   0.358   1.049
 5466TIP3   OH240592   0.597   0.768   0.258
 5466TIP3    H140593   0.515   0.748   0.211
 5466TIP3    H240594   0.665   0.727   0.205
 5467TIP3   OH240595   1.654   1.823   1.726
 5467TIP3    H140596   1.683   1.860   1.643
 5467TIP3    H240597   1.703   1.872   1.793
 5468TIP3   OH240598   0.474   1.160   1.684
 5468TIP3    H140599   0.539   1.144   1.752
 5468TIP3    H240600   0.392   1.172   1.732
 5469TIP3   OH240601   0.943   0.734   0.934
 5469TIP3    H140602   1.006   0.679   0.887
 5469TIP3    H240603   0.917   0.683   1.010
 5470TIP3   OH240604   0.580   0.282   0.681
 5470TIP3    H140605   0.498   0.241   0.653
 5470TIP3    H240606   0.644   0.211   0.680
 5471TIP3   OH240607   0.841   0.631   1.173
 5471TIP3    H140608   0.750   0.654   1.158
 5471TIP3    H240609   0.875   0.703   1.227
 5472TIP3   OH240610   0.873   1.208   0.331
 5472TIP3    H140611   0.849   1.123   0.295
 5472TIP3    H240612   0.861   1.199   0.425
 5473TIP3   OH240613   1.587   1.100   1.217
 5473TIP3    H140614   1.655   1.147   1.170
 5473TIP3    H240615   1.518   1.085   1.152
 5474TIP3   OH240616   1.187   0.405   0.307
 5474TIP3    H140617   1.126   0.374   0.239
 5474TIP3    H240618   1.224   0.486   0.270
 5475TIP3   OH240619   1.064   1.197   1.441
 5475TIP3    H140620   1.025   1.121   1.484
 5475TIP3    H240621   1.032   1.272   1.491
 5476TIP3   OH240622   1.339   0.697   0.497
 5476TIP3    H140623   1.422   0.651   0.510
 5476TIP3    H240624   1.325   0.696   0.403
 5477TIP3   OH240625   0.439   1.132   0.916
 5477TIP3    H140626   0.476   1.119   0.829
 5477TIP3    H240627   0.487   1.070   0.971
 5478TIP3   OH240628   1.132   1.304   0.294
 5478TIP3    H140629   1.104   1.395   0.288
 5478TIP3    H240630   1.051   1.253   0.295
 5479TIP3   OH240631   0.160   0.977   1.566
 5479TIP3    H140632   0.169   0.911   1.635
 5479TIP3    H240633   0.077   0.958   1.524
 5480TIP3   OH240634   0.962   0.964   1.573
 5480TIP3    H140635   0.891   0.901   1.589
 5480TIP3    H240636   1.041   0.917   1.597
 5481TIP3   OH240637   1.252   1.473   1.611
 5481TIP3    H140638   1.158   1.470   1.589
 5481TIP3    H240639   1.254   1.479   1.706
 5482TIP3   OH240640   1.781   0.664   0.376
 5482TIP3    H140641   1.716   0.630   0.314
 5482TIP3    H240642   1.790   0.756   0.354
 5483TIP3   OH240643   1.870   1.226   1.579
 5483TIP3    H140644   1.778   1.216   1.554
 5483TIP3    H240645   1.918   1.205   1.499
 5484TIP3   OH240646   1.665   1.486   0.443
 5484TIP3    H140647   1.628   1.401   0.470
 5484TIP3    H240648   1.690   1.473   0.352
 5485TIP3   OH240649   1.409   1.062   0.995
 5485TIP3    H140650   1.343   1.081   0.928
 5485TIP3    H240651   1.428   0.969   0.985
 5486TIP3   OH240652   0.703   1.420   0.696
 5486TIP3    H140653   0.707   1.512   0.668
 5486TIP3    H240654   0.615   1.391   0.672
 5487TIP3   OH240655   0.163   0.848   0.281
 5487TIP3    H140656   0.198   0.932   0.311
 5487TIP3    H240657   0.069   0.865   0.267
 5488TIP3   OH240658   0.822   1.187   0.599
 5488TIP3    H140659   0.810   1.276   0.633
 5488TIP3    H240660   0.745   1.139   0.630
 5489TIP3   OH240661   0.859   1.607   1.333
 5489TIP3    H140662   0.912   1.686   1.320
 5489TIP3    H240663   0.913   1.551   1.389
 5490TIP3   OH240664   0.663   1.683   0.614
 5490TIP3    H140665   0.573   1.698   0.643
 5490TIP3    H240666   0.713   1.754   0.654
 5491TIP3   OH240667   1.202   1.238   1.209
 5491TIP3    H140668   1.158   1.216   1.291
 5491TIP3    H240669   1.243   1.157   1.181
 5492TIP3   OH240670   1.382   1.258   0.184
 5492TIP3    H140671   1.383   1.163   0.174
 5492TIP3    H240672   1.296   1.277   0.223
 5493TIP3   OH240673   1.468   1.586   1.489
 5493TIP3    H140674   1.383   1.554   1.520
 5493TIP3    H240675   1.448   1.664   1.437
 5494TIP3   OH240676   1.860   1.728   0.188
 5494TIP3    H140677   1.866   1.767   0.100
 5494TIP3    H240678   1.791   1.778   0.231
 5495TIP3   OH240679   0.275   0.403   1.422
 5495TIP3    H140680   0.230   0.430   1.503
 5495TIP3    H240681   0.221   0.332   1.388
 5496TIP3   OH240682   1.589   1.231   0.522
 5496TIP3    H140683   1.522   1.163   0.525
 5496TIP3    H240684   1.671   1.184   0.510
 5497TIP3   OH240685   0.331   1.660   1.308
 5497TIP3    H140686   0.412   1.627   1.348
 5497TIP3    H240687   0.309   1.737   1.360
 5498TIP3   OH240688   0.661   1.367   0.250
 5498TIP3    H140689   0.740   1.320   0.278
 5498TIP3    H240690   0.676   1.457   0.278
 5499TIP3   OH240691   0.284   1.078   0.374
 5499TIP3    H140692   0.217   1.132   0.415
 5499TIP3    H240693   0.331   1.138   0.316
 5500TIP3   OH240694   1.095   0.383   1.357
 5500TIP3    H140695   1.173   0.405   1.408
 5500TIP3    H240696   1.053   0.314   1.407
 5501TIP3   OH240697   1.245   0.290   0.546
 5501TIP3    H140698   1.226   0.334   0.463
 5501TIP3    H240699   1.284   0.358   0.601
 5502TIP3   OH240700   1.000   1.540   0.340
 5502TIP3    H140701   0.905   1.548   0.348
 5502TIP3    H240702   1.031   1.536   0.431
 5503TIP3   OH240703   0.865   0.557   0.528
 5503TIP3    H140704   0.935   0.621   0.523
 5503TIP3    H240705   0.872   0.520   0.616
 5504TIP3   OH240706   1.027   0.646   1.427
 5504TIP3    H140707   0.952   0.650   1.486
 5504TIP3    H240708   1.029   0.555   1.398
 5505TIP3   OH240709   0.979   0.238   0.602
 5505TIP3    H140710   0.961   0.312   0.660
 5505TIP3    H240711   1.072   0.246   0.582
 5506TIP3   OH240712   0.733   1.610   0.360
 5506TIP3    H140713   0.748   1.694   0.317
 5506TIP3    H240714   0.706   1.633   0.449
 5507TIP3   OH240715   0.569   0.307   0.301
 5507TIP3    H140716   0.531   0.380   0.350
 5507TIP3    H240717   0.657   0.297   0.339
 5508TIP3   OH240718   1.551   0.377   1.505
 5508TIP3    H140719   1.458   0.398   1.498
 5508TIP3    H240720   1.577   0.350   1.417
 5509TIP3   OH240721   1.466   0.790   0.969
 5509TIP3    H140722   1.379   0.758   0.994
 5509TIP3    H240723   1.527   0.732   1.014
 5510TIP3   OH240724   0.403   1.263   0.204
 5510TIP3    H140725   0.472   1.320   0.238
 5510TIP3    H240726   0.448   1.204   0.143
 5511TIP3   OH240727   0.353   0.703   0.146
 5511TIP3    H140728   0.285   0.753   0.192
 5511TIP3    H240729   0.330   0.712   0.053
 5512TIP3   OH240730   1.593   1.732   1.064
 5512TIP3    H140731   1.571   1.815   1.021
 5512TIP3    H240732   1.686   1.739   1.083
 5513TIP3   OH240733   0.381   0.166   0.918
 5513TIP3    H140734   0.372   0.185   0.825
 5513TIP3    H240735   0.358   0.073   0.925
 5514TIP3   OH240736   0.174   1.512   0.512
 5514TIP3    H140737   0.118   1.575   0.558
 5514TIP3    H240738   0.234   1.567   0.461
 5515TIP3   OH240739   0.051   1.814   1.765
 5515TIP3    H140740   0.096   1.770   1.836
 5515TIP3    H240741  -0.000   1.746   1.722
 5516TIP3   OH240742   0.643   1.616   1.889
 5516TIP3    H140743   0.718   1.558   1.901
 5516TIP3    H240744   0.597   1.581   1.812
 5517TIP3   OH240745   0.995   1.551   9.942
 5517TIP3    H140746   0.972   1.458   9.935
 5517TIP3    H240747   1.060   1.554  10.012
 5518TIP3   OH240748   1.296   1.471   1.888
 5518TIP3    H140749   1.315   1.381   1.916
 5518TIP3    H240750   1.370   1.522   1.918
 5519TIP3   OH240751   1.495   1.507   0.140
 5519TIP3    H140752   1.453   1.422   0.151
 5519TIP3    H240753   1.589   1.489   0.147
 5520TIP3   OH240754   0.249   1.190   1.844
 5520TIP3    H140755   0.267   1.113   1.899
 5520TIP3    H240756   0.155   1.187   1.828
 5521TIP3   OH240757   0.618   1.135   0.088
 5521TIP3    H140758   0.683   1.073   0.120
 5521TIP3    H240759   0.649   1.221   0.118
 5522TIP3   OH240760   0.875   1.167   1.744
 5522TIP3    H140761   0.827   1.221   1.681
 5522TIP3    H240762   0.906   1.092   1.692
 5523TIP3   OH240763   1.429   1.257   1.640
 5523TIP3    H140764   1.498   1.266   1.575
 5523TIP3    H240765   1.368   1.328   1.619
 5524TIP3   OH240766   0.241   0.793   1.767
 5524TIP3    H140767   0.335   0.774   1.772
 5524TIP3    H240768   0.223   0.844   1.847
 5525TIP3   OH240769   0.794   0.968   0.230
 5525TIP3    H140770   0.726   0.904   0.253
 5525TIP3    H240771   0.875   0.917   0.228
 5526TIP3   OH240772   0.556   0.741   1.444
 5526TIP3    H140773   0.517   0.825   1.467
 5526TIP3    H240774   0.632   0.732   1.501
 5527TIP3   OH240775   0.824   0.660   0.141
 5527TIP3    H140776   0.865   0.655   0.055
 5527TIP3    H240777   0.892   0.696   0.198
 5528TIP3   OH240778   1.260   0.960   1.831
 5528TIP3    H140779   1.320   0.970   1.757
 5528TIP3    H240780   1.208   0.883   1.808
 5529TIP3   OH240781   1.779   1.165  10.094
 5529TIP3    H140782   1.798   1.081  10.052
 5529TIP3    H240783   1.819   1.230  10.036
 5530TIP3   OH240784   0.669   0.442   1.577
 5530TIP3    H140785   0.709   0.419   1.493
 5530TIP3    H240786   0.713   0.523   1.604
 5531TIP3   OH240787   0.768   0.401   1.321
 5531TIP3    H140788   0.816   0.465   1.269
 5531TIP3    H240789   0.678   0.407   1.289
 5532TIP3   OH240790   0.878   0.877   1.297
 5532TIP3    H140791   0.920   0.903   1.379
 5532TIP3    H240792   0.846   0.959   1.259
 5533TIP3   OH240793   1.341   0.669   1.909
 5533TIP3    H140794   1.333   0.588   1.959
 5533TIP3    H240795   1.401   0.647   1.838
 5534TIP3   OH240796   1.440   0.986   1.626
 5534TIP3    H140797   1.426   1.081   1.627
 5534TIP3    H240798   1.535   0.976   1.629
 5535TIP3   OH240799   0.502   0.697   1.790
 5535TIP3    H140800   0.481   0.609   1.758
 5535TIP3    H240801   0.587   0.717   1.751
 5536TIP3   OH240802   0.695   0.140   1.397
 5536TIP3    H140803   0.751   0.214   1.372
 5536TIP3    H240804   0.606   0.175   1.391
 5537TIP3   OH240805   0.864   0.473   1.874
 5537TIP3    H140806   0.777   0.476   1.914
 5537TIP3    H240807   0.861   0.539   1.805
 5538TIP3   OH240808   1.148   0.485   1.734
 5538TIP3    H140809   1.068   0.450   1.773
 5538TIP3    H240810   1.218   0.433   1.774
 5539TIP3   OH240811   1.354   0.346   1.851
 5539TIP3    H140812   1.379   0.253   1.848
 5539TIP3    H240813   1.326   0.360   1.941
 5540TIP3   OH240814   0.441   0.430   1.723
 5540TIP3    H140815   0.512   0.433   1.659
 5540TIP3    H240816   0.425   0.336   1.736
 5541TIP3   OH240817   0.789   0.056   1.645
 5541TIP3    H140818   0.767  -0.037   1.657
 5541TIP3    H240819   0.745   0.080   1.564
 5542TIP3   OH240820   0.729   0.215   1.855
 5542TIP3    H140821   0.756   0.150   1.790
 5542TIP3    H240822   0.798   0.281   1.852
 5543TIP3   OH240823   0.784   1.855   0.251
 5543TIP3    H140824   0.877   1.845   0.229
 5543TIP3    H240825   0.758   1.935   0.206
 5544TIP3   OH240826   0.147   1.370   0.177
 5544TIP3    H140827   0.237   1.340   0.190
 5544TIP3    H240828   0.140   1.383   0.083
 5545TIP3   OH240829   0.085   1.747   0.642
 5545TIP3    H140830   0.003   1.793   0.656
 5545TIP3    H240831   0.108   1.711   0.727
 5546TIP3   OH240832   0.172   1.638   0.876
 5546TIP3    H140833   0.171   1.555   0.923
 5546TIP3    H240834   0.201   1.702   0.941
 5547TIP3   OH240835   1.850   1.748   1.164
 5547TIP3    H140836   1.845   1.722   1.256
 5547TIP3    H240837   1.908   1.824   1.164
 5548TIP3   OH240838   1.819   1.665   1.425
 5548TIP3    H140839   1.763   1.599   1.385
 5548TIP3    H240840   1.864   1.619   1.496
 5549TIP3   OH240841   1.667   1.348   1.913
 5549TIP3    H140842   1.629   1.397   1.840
 5549TIP3    H240843   1.734   1.406   1.949
 5550TIP3   OH240844   1.829   1.098   0.497
 5550TIP3    H140845   1.901   1.161   0.505
 5550TIP3    H240846   1.846   1.033   0.565
 5551TIP3   OH240847   1.849   0.901   0.689
 5551TIP3    H140848   1.757   0.884   0.709
 5551TIP3    H240849   1.884   0.940   0.769
 5552TIP3   OH240850   1.828   1.232   1.125
 5552TIP3    H140851   1.775   1.231   1.045
 5552TIP3    H240852   1.868   1.319   1.126
 5553TIP3   OH240853   1.651   1.481   1.317
 5553TIP3    H140854   1.579   1.514   1.371
 5553TIP3    H240855   1.613   1.471   1.230
 5554TIP3   OH240856   1.783   0.927   0.290
 5554TIP3    H140857   1.699   0.944   0.247
 5554TIP3    H240858   1.789   0.993   0.359
 5555TIP3   OH240859   1.595   0.588   0.199
 5555TIP3    H140860   1.504   0.617   0.193
 5555TIP3    H240861   1.604   0.522   0.131
 5556TIP3   OH240862   1.583   0.821   0.719
 5556TIP3    H140863   1.578   0.734   0.679
 5556TIP3    H240864   1.539   0.811   0.803
 5557TIP3   OH240865   0.194   1.046   1.019
 5557TIP3    H140866   0.268   1.089   0.977
 5557TIP3    H240867   0.233   1.002   1.095
 5558TIP3   OH240868   1.713   0.951   1.629
 5558TIP3    H140869   1.739   0.866   1.665
 5558TIP3    H240870   1.741   0.947   1.537
 5559TIP3   OH240871   1.751   0.712   1.756
 5559TIP3    H140872   1.666   0.673   1.733
 5559TIP3    H240873   1.815   0.643   1.737
 5560TIP3   OH240874   1.637   0.378   0.025
 5560TIP3    H140875   1.707   0.329   0.068
 5560TIP3    H240876   1.573   0.311  -0.000
 5561TIP3   OH240877   1.593   0.574   0.573
 5561TIP3    H140878   1.623   0.483   0.576
 5561TIP3    H240879   1.648   0.615   0.507
 5562TIP3   OH240880   1.614   0.602   1.107
 5562TIP3    H140881   1.705   0.617   1.082
 5562TIP3    H240882   1.612   0.618   1.201
 5563TIP3   OH240883   1.635   0.688   1.369
 5563TIP3    H140884   1.547   0.701   1.404
 5563TIP3    H240885   1.672   0.776   1.364
 5564TIP3   OH240886   0.184   0.533   1.660
 5564TIP3    H140887   0.186   0.624   1.689
 5564TIP3    H240888   0.267   0.496   1.691
 5565TIP3   OH240889   1.957   0.183   1.819
 5565TIP3    H140890   2.033   0.195   1.762
 5565TIP3    H240891   1.882   0.205   1.764
 5566TIP3   OH240892   1.674   0.307   0.575
 5566TIP3    H140893   1.687   0.265   0.660
 5566TIP3    H240894   1.607   0.254   0.532
 5567TIP3   OH240895   0.234   0.353   1.053
 5567TIP3    H140896   0.284   0.286   1.008
 5567TIP3    H240897   0.293   0.428   1.057
 5568TIP3   OH240898   0.071   0.650   1.153
 5568TIP3    H140899   0.120   0.666   1.072
 5568TIP3    H240900   0.135   0.662   1.223
 5569TIP3   OH240901   1.769   0.268   1.640
 5569TIP3    H140902   1.688   0.313   1.615
 5569TIP3    H240903   1.777   0.196   1.577
 5570TIP3   OH240904   1.832   0.254   0.176
 5570TIP3    H140905   1.896   0.185   0.193
 5570TIP3    H240906   1.872   0.333   0.212
 5571TIP3   OH240907   0.179   0.271   0.440
 5571TIP3    H140908   0.089   0.304   0.451
 5571TIP3    H240909   0.224   0.341   0.393
 5572TIP3   OH240910   1.508   1.834   0.728
 5572TIP3    H140911   1.562   1.795   0.659
 5572TIP3    H240912   1.560   1.909   0.758
 5573TIP3   OH240913   0.132   0.219   1.272
 5573TIP3    H140914   0.036   0.220   1.273
 5573TIP3    H240915   0.155   0.271   1.195
 5574TIP3   OH240916   0.279   1.417   1.682
 5574TIP3    H140917   0.230   1.383   1.607
 5574TIP3    H240918   0.273   1.348   1.748
 5575TIP3   OH240919   0.592   1.633   1.415
 5575TIP3    H140920   0.593   1.728   1.402
 5575TIP3    H240921   0.679   1.605   1.387
 5576TIP3   OH240922   0.946   1.724   1.675
 5576TIP3    H140923   0.968   1.678   1.756
 5576TIP3    H240924   1.026   1.770   1.651
 5577TIP3   OH240925   1.191   1.830   1.619
 5577TIP3    H140926   1.210   1.778   1.541
 5577TIP3    H240927   1.261   1.808   1.681
 5578TIP3   OH240928   1.763   0.085   1.428
 5578TIP3    H140929   1.715   0.142   1.368
 5578TIP3    H240930   1.701   0.015   1.450
 5579TIP3   OH240931   0.308   1.922   1.414
 5579TIP3    H140932   0.249   1.979   1.364
 5579TIP3    H240933   0.289   1.943   1.506
 5580TIP3   OH240934   0.577   1.900   1.352
 5580TIP3    H140935   0.484   1.914   1.372
 5580TIP3    H240936   0.585   1.923   1.259
 5581TIP3   OH240937   0.998   1.836   1.259
 5581TIP3    H140938   0.960   1.867   1.177
 5581TIP3    H240939   1.011   1.915   1.311
 5582TIP3   OH240940   1.213   1.708   1.370
 5582TIP3    H140941   1.140   1.748   1.323
 5582TIP3    H240942   1.291   1.748   1.331
 5583TIP3   OH240943   1.462   1.797   1.299
 5583TIP3    H140944   1.499   1.885   1.303
 5583TIP3    H240945   1.496   1.760   1.218
 5584TIP3   OH240946   0.313   1.786   1.061
 5584TIP3    H140947   0.295   1.758   1.151
 5584TIP3    H240948   0.389   1.735   1.034
 5585TIP3   OH240949   0.521   1.637   0.976
 5585TIP3    H140950   0.506   1.544   0.993
 5585TIP3    H240951   0.612   1.653   1.003
 5586TIP3   OH240952   0.779   1.635   1.070
 5586TIP3    H140953   0.793   1.551   1.027
 5586TIP3    H240954   0.804   1.620   1.161
 5587TIP3   OH240955   1.050   0.272   0.934
 5587TIP3    H140956   0.982   0.209   0.959
 5587TIP3    H240957   1.112   0.220   0.883
 5588TIP3   OH240958   1.571   0.167   0.999
 5588TIP3    H140959   1.645   0.176   0.938
 5588TIP3    H240960   1.519   0.246   0.984
 5589TIP3   OH240961   1.774   0.205   0.817
 5589TIP3    H140962   1.851   0.147   0.815
 5589TIP3    H240963   1.811   0.294   0.815
 5590TIP3   OH240964   0.330   0.176   0.646
 5590TIP3    H140965   0.276   0.205   0.572
 5590TIP3    H240966   0.299   0.087   0.665
 5591TIP3   OH240967   0.142   0.112   0.220
 5591TIP3    H140968   0.229   0.114   0.180
 5591TIP3    H240969   0.153   0.154   0.305
 5592TIP3   OH240970   0.781   0.091   0.714
 5592TIP3    H140971   0.851   0.133   0.665
 5592TIP3    H240972   0.802   0.107   0.806
 5593TIP3   OH240973   1.219   0.117   0.784
 5593TIP3    H140974   1.240   0.149   0.697
 5593TIP3    H240975   1.222   0.021   0.776
 5594TIP3   OH240976   1.474   0.154   0.463
 5594TIP3    H140977   1.394   0.205   0.478
 5594TIP3    H240978   1.445   0.063   0.460
 5595TIP3   OH240979   0.262   1.785   0.437
 5595TIP3    H140980   0.198   1.769   0.505
 5595TIP3    H240981   0.218   1.842   0.374
 5596TIP3   OH240982   0.417   0.130   0.153
 5596TIP3    H140983   0.450   0.161   0.069
 5596TIP3    H240984   0.461   0.184   0.218
 5597TIP3   OH240985   0.831   0.320   0.389
 5597TIP3    H140986   0.879   0.268   0.453
 5597TIP3    H240987   0.843   0.411   0.418
 5598TIP3   OH240988   1.057   1.785   0.228
 5598TIP3    H140989   1.145   1.786   0.191
 5598TIP3    H240990   1.039   1.692   0.246
 5599TIP3   OH240991   1.687   1.736   0.542
 5599TIP3    H140992   1.677   1.644   0.517
 5599TIP3    H240993   1.690   1.783   0.459
 5600TIP3   OH240994   0.183   0.108   1.738
 5600TIP3    H140995   0.185   0.022   1.695
 5600TIP3    H240996   0.276   0.128   1.754
 5601TIP3   OH240997   0.463   0.159   1.766
 5601TIP3    H140998   0.547   0.170   1.810
 5601TIP3    H240999   0.469   0.074   1.722
 5602TIP3   OH241000   0.489   1.885   0.295
 5602TIP3    H141001   0.436   1.825   0.347
 5602TIP3    H241002   0.577   1.847   0.297
 5603TIP3   OH241003   1.437   0.087   1.852
 5603TIP3    H141004   1.371   0.017   1.859
 5603TIP3    H241005   1.513   0.044   1.814
 5604TIP3   OH241006   1.628   1.547   1.713
 5604TIP3    H141007   1.570   1.544   1.637
 5604TIP3    H241008   1.641   1.641   1.729
 5605TIP3   OH241009   3.112   1.048   0.678
 5605TIP3    H141010   3.095   1.141   0.664
 5605TIP3    H241011   3.062   1.004   0.610
 5606TIP3   OH241012   2.912   0.934   1.099
 5606TIP3    H141013   2.981   0.898   1.154
 5606TIP3    H241014   2.898   0.868   1.031
 5607TIP3   OH241015   2.213   0.841   1.156
 5607TIP3    H141016   2.244   0.798   1.236
 5607TIP3    H241017   2.290   0.888   1.123
 5608TIP3   OH241018   3.380   1.310   0.900
 5608TIP3    H141019   3.376   1.225   0.943
 5608TIP3    H241020   3.386   1.373   0.973
 5609TIP3   OH241021   2.413   1.332   0.910
 5609TIP3    H141022   2.349   1.265   0.886
 5609TIP3    H241023   2.471   1.288   0.972
 5610TIP3   OH241024   1.942   0.651   0.610
 5610TIP3    H141025   1.921   0.739   0.641
 5610TIP3    H241026   1.893   0.643   0.528
 5611TIP3   OH241027   2.010   0.995   0.896
 5611TIP3    H141028   2.043   0.905   0.898
 5611TIP3    H241029   2.086   1.048   0.874
 5612TIP3   OH241030   3.049   1.822   0.893
 5612TIP3    H141031   3.095   1.760   0.837
 5612TIP3    H241032   3.025   1.772   0.971
 5613TIP3   OH241033   2.854   1.204   1.105
 5613TIP3    H141034   2.875   1.113   1.085
 5613TIP3    H241035   2.914   1.227   1.176
 5614TIP3   OH241036   3.754   0.355   1.135
 5614TIP3    H141037   3.751   0.431   1.193
 5614TIP3    H241038   3.822   0.375   1.071
 5615TIP3   OH241039   3.130   0.672   1.046
 5615TIP3    H141040   3.126   0.581   1.078
 5615TIP3    H241041   3.098   0.667   0.956
 5616TIP3   OH241042   2.504   0.397   0.837
 5616TIP3    H141043   2.513   0.485   0.800
 5616TIP3    H241044   2.444   0.352   0.778
 5617TIP3   OH241045   3.269   0.473   0.699
 5617TIP3    H141046   3.302   0.457   0.788
 5617TIP3    H241047   3.343   0.514   0.653
 5618TIP3   OH241048   2.094   0.734   0.918
 5618TIP3    H141049   2.157   0.740   0.990
 5618TIP3    H241050   2.138   0.680   0.853
 5619TIP3   OH241051   2.596   0.848   0.850
 5619TIP3    H141052   2.683   0.816   0.875
 5619TIP3    H241053   2.553   0.772   0.811
 5620TIP3   OH241054   3.762   0.554   1.334
 5620TIP3    H141055   3.675   0.590   1.351
 5620TIP3    H241056   3.799   0.540   1.421
 5621TIP3   OH241057   2.343   0.395   1.221
 5621TIP3    H141058   2.327   0.458   1.151
 5621TIP3    H241059   2.270   0.407   1.282
 5622TIP3   OH241060   3.072   1.303   0.580
 5622TIP3    H141061   3.054   1.294   0.486
 5622TIP3    H241062   3.027   1.384   0.604
 5623TIP3   OH241063   2.575   1.180   1.131
 5623TIP3    H141064   2.536   1.241   1.193
 5623TIP3    H241065   2.665   1.212   1.119
 5624TIP3   OH241066   3.339   0.441   0.958
 5624TIP3    H141067   3.273   0.420   1.025
 5624TIP3    H241068   3.408   0.485   1.007
 5625TIP3   OH241069   2.335   0.571   1.012
 5625TIP3    H141070   2.392   0.632   1.059
 5625TIP3    H241071   2.389   0.538   0.941
 5626TIP3   OH241072   2.455   1.354   1.305
 5626TIP3    H141073   2.466   1.449   1.318
 5626TIP3    H241074   2.363   1.338   1.327
 5627TIP3   OH241075   2.034   1.283   0.481
 5627TIP3    H141076   2.011   1.315   0.394
 5627TIP3    H241077   2.052   1.362   0.532
 5628TIP3   OH241078   3.375   1.498   1.106
 5628TIP3    H141079   3.292   1.496   1.153
 5628TIP3    H241080   3.388   1.590   1.084
 5629TIP3   OH241081   3.522   0.203   1.180
 5629TIP3    H141082   3.471   0.181   1.101
 5629TIP3    H241083   3.591   0.260   1.148
 5630TIP3   OH241084   2.726   0.087   0.984
 5630TIP3    H141085   2.712  -0.005   1.006
 5630TIP3    H241086   2.650   0.133   1.021
 5631TIP3   OH241087   3.215   1.648   0.749
 5631TIP3    H141088   3.248   1.562   0.725
 5631TIP3    H241089   3.293   1.698   0.772
 5632TIP3   OH241090   3.317   1.410   0.655
 5632TIP3    H141091   3.242   1.358   0.627
 5632TIP3    H241092   3.347   1.367   0.735
 5633TIP3   OH241093   3.543   1.277   1.473
 5633TIP3    H141094   3.529   1.211   1.405
 5633TIP3    H241095   3.561   1.357   1.424
 5634TIP3   OH241096   3.011   0.951   0.434
 5634TIP3    H141097   2.942   1.008   0.399
 5634TIP3    H241098   3.082   0.958   0.369
 5635TIP3   OH241099   2.837   0.697   0.192
 5635TIP3    H141100   2.902   0.724   0.258
 5635TIP3    H241101   2.843   0.601   0.191
 5636TIP3   OH241102   3.658   0.915   1.300
 5636TIP3    H141103   3.598   0.989   1.293
 5636TIP3    H241104   3.719   0.926   1.227
 5637TIP3   OH241105   3.354   0.982   0.568
 5637TIP3    H141106   3.276   1.002   0.621
 5637TIP3    H241107   3.408   0.928   0.625
 5638TIP3   OH241108   3.283   0.771   1.483
 5638TIP3    H141109   3.292   0.844   1.544
 5638TIP3    H241110   3.221   0.801   1.418
 5639TIP3   OH241111   2.476   1.028   0.669
 5639TIP3    H141112   2.454   0.978   0.591
 5639TIP3    H241113   2.526   0.967   0.724
 5640TIP3   OH241114   2.728   1.404   0.956
 5640TIP3    H141115   2.718   1.386   0.862
 5640TIP3    H241116   2.785   1.334   0.988
 5641TIP3   OH241117   2.427   0.970   1.032
 5641TIP3    H141118   2.489   0.925   0.975
 5641TIP3    H241119   2.476   1.042   1.070
 5642TIP3   OH241120   3.153   1.470   1.269
 5642TIP3    H141121   3.141   1.488   1.362
 5642TIP3    H241122   3.115   1.383   1.256
 5643TIP3   OH241123   2.590   1.336   1.550
 5643TIP3    H141124   2.525   1.390   1.595
 5643TIP3    H241125   2.552   1.318   1.465
 5644TIP3   OH241126   3.274   0.898   0.319
 5644TIP3    H141127   3.305   0.926   0.405
 5644TIP3    H241128   3.330   0.945   0.257
 5645TIP3   OH241129   2.341   0.988   1.457
 5645TIP3    H141130   2.330   1.064   1.514
 5645TIP3    H241131   2.252   0.959   1.437
 5646TIP3   OH241132   2.982   1.558   0.626
 5646TIP3    H141133   3.055   1.591   0.679
 5646TIP3    H241134   2.955   1.633   0.574
 5647TIP3   OH241135   2.397   1.526   1.632
 5647TIP3    H141136   2.418   1.567   1.548
 5647TIP3    H241137   2.304   1.547   1.646
 5648TIP3   OH241138   3.530   0.119   0.209
 5648TIP3    H141139   3.481   0.146   0.286
 5648TIP3    H241140   3.603   0.181   0.204
 5649TIP3   OH241141   2.402   0.920   0.426
 5649TIP3    H141142   2.322   0.970   0.411
 5649TIP3    H241143   2.389   0.838   0.378
 5650TIP3   OH241144   3.646   1.486   0.244
 5650TIP3    H141145   3.675   1.576   0.231
 5650TIP3    H241146   3.726   1.434   0.234
 5651TIP3   OH241147   2.001   1.165   1.346
 5651TIP3    H141148   1.947   1.171   1.267
 5651TIP3    H241149   2.019   1.071   1.355
 5652TIP3   OH241150   1.937   1.488   1.116
 5652TIP3    H141151   2.010   1.500   1.176
 5652TIP3    H241152   1.887   1.570   1.122
 5653TIP3   OH241153   3.775   1.588   1.655
 5653TIP3    H141154   3.796   1.495   1.647
 5653TIP3    H241155   3.687   1.590   1.694
 5654TIP3   OH241156   2.836   1.466   1.520
 5654TIP3    H141157   2.818   1.551   1.561
 5654TIP3    H241158   2.756   1.415   1.534
 5655TIP3   OH241159   2.964   1.801   0.488
 5655TIP3    H141160   2.947   1.804   0.393
 5655TIP3    H241161   2.912   1.873   0.524
 5656TIP3   OH241162   2.270   1.698   0.706
 5656TIP3    H141163   2.300   1.663   0.790
 5656TIP3    H241164   2.215   1.630   0.669
 5657TIP3   OH241165   3.236   1.776   0.227
 5657TIP3    H141166   3.289   1.703   0.195
 5657TIP3    H241167   3.259   1.782   0.320
 5658TIP3   OH241168   3.239   1.800   0.507
 5658TIP3    H141169   3.143   1.798   0.500
 5658TIP3    H241170   3.259   1.737   0.576
 5659TIP3   OH241171   3.423   0.618   1.671
 5659TIP3    H141172   3.383   0.664   1.597
 5659TIP3    H241173   3.432   0.527   1.641
 5660TIP3   OH241174   2.200   1.344   1.415
 5660TIP3    H141175   2.234   1.304   1.495
 5660TIP3    H241176   2.130   1.285   1.386
 5661TIP3   OH241177   2.491   0.225   1.061
 5661TIP3    H141178   2.497   0.277   0.981
 5661TIP3    H241179   2.428   0.272   1.115
 5662TIP3   OH241180   2.838   0.146   1.458
 5662TIP3    H141181   2.882   0.061   1.455
 5662TIP3    H241182   2.766   0.138   1.396
 5663TIP3   OH241183   3.185   0.497   1.484
 5663TIP3    H141184   3.132   0.476   1.560
 5663TIP3    H241185   3.204   0.591   1.492
 5664TIP3   OH241186   3.447   1.070   0.181
 5664TIP3    H141187   3.405   1.124   0.114
 5664TIP3    H241188   3.450   1.125   0.259
 5665TIP3   OH241189   2.829   0.422   0.193
 5665TIP3    H141190   2.809   0.373   0.272
 5665TIP3    H241191   2.752   0.413   0.138
 5666TIP3   OH241192   2.504   0.709   1.186
 5666TIP3    H141193   2.443   0.703   1.259
 5666TIP3    H241194   2.544   0.796   1.194
 5667TIP3   OH241195   2.458   0.645   0.729
 5667TIP3    H141196   2.362   0.642   0.729
 5667TIP3    H241197   2.483   0.627   0.639
 5668TIP3   OH241198   3.008   0.697   0.528
 5668TIP3    H141199   3.003   0.789   0.503
 5668TIP3    H241200   3.086   0.665   0.484
 5669TIP3   OH241201   2.928   0.694   1.662
 5669TIP3    H141202   2.874   0.624   1.698
 5669TIP3    H241203   3.013   0.683   1.704
 5670TIP3   OH241204   3.049   0.621   0.788
 5670TIP3    H141205   3.028   0.661   0.704
 5670TIP3    H241206   3.119   0.558   0.768
 5671TIP3   OH241207   2.305   0.688   1.373
 5671TIP3    H141208   2.312   0.712   1.466
 5671TIP3    H241209   2.248   0.612   1.372
 5672TIP3   OH241210   2.561   0.377   0.122
 5672TIP3    H141211   2.520   0.358   0.206
 5672TIP3    H241212   2.497   0.350   0.057
 5673TIP3   OH241213   1.896   0.446   0.799
 5673TIP3    H141214   1.965   0.458   0.864
 5673TIP3    H241215   1.908   0.518   0.737
 5674TIP3   OH241216   1.967   0.468   0.302
 5674TIP3    H141217   2.042   0.512   0.261
 5674TIP3    H241218   1.906   0.539   0.323
 5675TIP3   OH241219   3.090   0.808   1.281
 5675TIP3    H141220   3.119   0.758   1.204
 5675TIP3    H241221   3.022   0.753   1.320
 5676TIP3   OH241222   2.788   0.413   0.798
 5676TIP3    H141223   2.699   0.397   0.829
 5676TIP3    H241224   2.845   0.378   0.866
 5677TIP3   OH241225   2.193   0.580   0.708
 5677TIP3    H141226   2.113   0.599   0.660
 5677TIP3    H241227   2.221   0.494   0.676
 5678TIP3   OH241228   2.517   0.579   0.472
 5678TIP3    H141229   2.612   0.589   0.477
 5678TIP3    H241230   2.492   0.631   0.396
 5679TIP3   OH241231   3.101   0.408   1.113
 5679TIP3    H141232   3.062   0.394   1.199
 5679TIP3    H241233   3.049   0.353   1.054
 5680TIP3   OH241234   2.405   0.703   0.256
 5680TIP3    H141235   2.323   0.669   0.219
 5680TIP3    H241236   2.462   0.715   0.180
 5681TIP3   OH241237   3.522   1.871   1.768
 5681TIP3    H141238   3.547   1.902   1.681
 5681TIP3    H241239   3.591   1.903   1.826
 5682TIP3   OH241240   2.297   1.200   1.634
 5682TIP3    H141241   2.367   1.188   1.698
 5682TIP3    H241242   2.216   1.191   1.685
 5683TIP3   OH241243   2.831   0.722   0.933
 5683TIP3    H141244   2.897   0.678   0.879
 5683TIP3    H241245   2.808   0.658   1.000
 5684TIP3   OH241246   2.320   0.335   0.638
 5684TIP3    H141247   2.253   0.268   0.647
 5684TIP3    H241248   2.362   0.317   0.554
 5685TIP3   OH241249   2.746   0.583   1.157
 5685TIP3    H141250   2.664   0.632   1.167
 5685TIP3    H241251   2.798   0.610   1.233
 5686TIP3   OH241252   2.803   1.114   0.350
 5686TIP3    H141253   2.740   1.070   0.294
 5686TIP3    H241254   2.750   1.156   0.418
 5687TIP3   OH241255   3.503   1.136   1.238
 5687TIP3    H141256   3.574   1.186   1.197
 5687TIP3    H241257   3.442   1.119   1.166
 5688TIP3   OH241258   3.074   0.403   0.347
 5688TIP3    H141259   3.011   0.412   0.276
 5688TIP3    H241260   3.128   0.483   0.342
 5689TIP3   OH241261   2.986   1.186   1.582
 5689TIP3    H141262   3.032   1.125   1.640
 5689TIP3    H241263   2.910   1.213   1.633
 5690TIP3   OH241264   3.233   0.632   0.383
 5690TIP3    H141265   3.317   0.604   0.419
 5690TIP3    H241266   3.250   0.720   0.348
 5691TIP3   OH241267   2.271   1.097   0.847
 5691TIP3    H141268   2.326   1.081   0.770
 5691TIP3    H241269   2.311   1.046   0.917
 5692TIP3   OH241270   3.008   1.292   0.311
 5692TIP3    H141271   2.963   1.374   0.291
 5692TIP3    H241272   2.939   1.226   0.312
 5693TIP3   OH241273   2.066   0.906   1.454
 5693TIP3    H141274   2.079   0.903   1.549
 5693TIP3    H241275   2.016   0.826   1.434
 5694TIP3   OH241276   2.761   0.919   1.672
 5694TIP3    H141277   2.694   0.895   1.608
 5694TIP3    H241278   2.832   0.857   1.657
 5695TIP3   OH241279   3.115   1.468   1.547
 5695TIP3    H141280   3.024   1.445   1.530
 5695TIP3    H241281   3.121   1.473   1.643
 5696TIP3   OH241282   3.673   0.682   0.360
 5696TIP3    H141283   3.608   0.650   0.296
 5696TIP3    H241284   3.683   0.775   0.339
 5697TIP3   OH241285   3.778   1.315   1.623
 5697TIP3    H141286   3.687   1.292   1.601
 5697TIP3    H241287   3.830   1.279   1.552
 5698TIP3   OH241288   3.513   1.535   0.497
 5698TIP3    H141289   3.448   1.480   0.542
 5698TIP3    H241290   3.534   1.486   0.417
 5699TIP3   OH241291   3.331   1.064   1.023
 5699TIP3    H141292   3.242   1.068   0.989
 5699TIP3    H241293   3.359   0.974   1.008
 5700TIP3   OH241294   2.591   1.420   0.708
 5700TIP3    H141295   2.575   1.510   0.681
 5700TIP3    H241296   2.520   1.401   0.770
 5701TIP3   OH241297   2.051   0.869   0.243
 5701TIP3    H141298   2.095   0.941   0.288
 5701TIP3    H241299   1.958   0.889   0.252
 5702TIP3   OH241300   2.618   1.222   0.524
 5702TIP3    H141301   2.623   1.294   0.587
 5702TIP3    H241302   2.567   1.155   0.570
 5703TIP3   OH241303   2.752   1.609   1.297
 5703TIP3    H141304   2.812   1.681   1.280
 5703TIP3    H241305   2.801   1.548   1.352
 5704TIP3   OH241306   2.535   1.680   0.625
 5704TIP3    H141307   2.443   1.703   0.641
 5704TIP3    H241308   2.585   1.752   0.663
 5705TIP3   OH241309   3.044   1.214   1.313
 5705TIP3    H141310   3.016   1.212   1.404
 5705TIP3    H241311   3.099   1.137   1.303
 5706TIP3   OH241312   3.276   1.307   0.237
 5706TIP3    H141313   3.322   1.281   0.317
 5706TIP3    H241314   3.183   1.299   0.260
 5707TIP3   OH241315   3.351   1.607   1.508
 5707TIP3    H141316   3.266   1.565   1.519
 5707TIP3    H241317   3.335   1.682   1.452
 5708TIP3   OH241318   3.725   1.749   0.235
 5708TIP3    H141319   3.794   1.815   0.238
 5708TIP3    H241320   3.645   1.798   0.252
 5709TIP3   OH241321   2.128   0.478   1.380
 5709TIP3    H141322   2.055   0.540   1.387
 5709TIP3    H241323   2.088   0.392   1.392
 5710TIP3   OH241324   3.449   1.195   0.426
 5710TIP3    H141325   3.408   1.132   0.485
 5710TIP3    H241326   3.542   1.193   0.449
 5711TIP3   OH241327   2.135   1.587   1.293
 5711TIP3    H141328   2.162   1.509   1.341
 5711TIP3    H241329   2.152   1.659   1.353
 5712TIP3   OH241330   2.513   1.376   0.316
 5712TIP3    H141331   2.548   1.322   0.387
 5712TIP3    H241332   2.551   1.463   0.331
 5713TIP3   OH241333   2.185   1.081   0.364
 5713TIP3    H141334   2.136   1.136   0.425
 5713TIP3    H241335   2.223   1.143   0.301
 5714TIP3   OH241336   2.974   0.368   1.358
 5714TIP3    H141337   3.050   0.385   1.412
 5714TIP3    H241338   2.929   0.296   1.401
 5715TIP3   OH241339   3.158   0.263   0.564
 5715TIP3    H141340   3.127   0.303   0.483
 5715TIP3    H241341   3.196   0.335   0.614
 5716TIP3   OH241342   2.862   1.521   0.269
 5716TIP3    H141343   2.777   1.540   0.308
 5716TIP3    H241344   2.908   1.605   0.270
 5717TIP3   OH241345   2.780   0.551   0.556
 5717TIP3    H141346   2.859   0.604   0.545
 5717TIP3    H241347   2.786   0.517   0.645
 5718TIP3   OH241348   2.900   0.635   1.385
 5718TIP3    H141349   2.902   0.656   1.479
 5718TIP3    H241350   2.922   0.542   1.380
 5719TIP3   OH241351   2.894   0.216   0.627
 5719TIP3    H141352   2.876   0.288   0.688
 5719TIP3    H241353   2.987   0.223   0.608
 5720TIP3   OH241354   2.623   1.625   0.372
 5720TIP3    H141355   2.644   1.712   0.340
 5720TIP3    H241356   2.596   1.638   0.463
 5721TIP3   OH241357   2.468   0.322   0.392
 5721TIP3    H141358   2.467   0.414   0.418
 5721TIP3    H241359   2.559   0.294   0.405
 5722TIP3   OH241360   3.430   0.381   1.533
 5722TIP3    H141361   3.344   0.401   1.496
 5722TIP3    H241362   3.457   0.299   1.491
 5723TIP3   OH241363   3.368   0.792   0.974
 5723TIP3    H141364   3.283   0.756   0.996
 5723TIP3    H241365   3.431   0.732   1.014
 5724TIP3   OH241366   2.280   1.281   0.195
 5724TIP3    H141367   2.341   1.329   0.251
 5724TIP3    H241368   2.333   1.252   0.121
 5725TIP3   OH241369   2.151   0.633   0.159
 5725TIP3    H141370   2.117   0.717   0.191
 5725TIP3    H241371   2.119   0.627   0.069
 5726TIP3   OH241372   3.457   1.766   1.082
 5726TIP3    H141373   3.446   1.854   1.048
 5726TIP3    H241374   3.551   1.759   1.100
 5727TIP3   OH241375   2.185   0.183   0.931
 5727TIP3    H141376   2.168   0.181   0.837
 5727TIP3    H241377   2.171   0.093   0.960
 5728TIP3   OH241378   2.070   1.534   0.601
 5728TIP3    H141379   2.019   1.556   0.678
 5728TIP3    H241380   2.045   1.600   0.536
 5729TIP3   OH241381   2.060   1.847   1.812
 5729TIP3    H141382   2.119   1.839   1.887
 5729TIP3    H241383   2.066   1.762   1.768
 5730TIP3   OH241384   2.469   1.583   1.892
 5730TIP3    H141385   2.553   1.538   1.907
 5730TIP3    H241386   2.447   1.563   1.801
 5731TIP3   OH241387   2.891   1.612   0.002
 5731TIP3    H141388   2.869   1.549   0.071
 5731TIP3    H241389   2.884   1.562  -0.079
 5732TIP3   OH241390   3.127   1.487   1.820
 5732TIP3    H141391   3.126   1.398   1.854
 5732TIP3    H241392   3.195   1.531   1.870
 5733TIP3   OH241393   3.385   1.551   0.172
 5733TIP3    H141394   3.337   1.468   0.181
 5733TIP3    H241395   3.477   1.528   0.187
 5734TIP3   OH241396   2.058   1.162   1.768
 5734TIP3    H141397   2.073   1.068   1.760
 5734TIP3    H241398   1.984   1.180   1.710
 5735TIP3   OH241399   2.528   1.225   0.081
 5735TIP3    H141400   2.556   1.141   0.119
 5735TIP3    H241401   2.541   1.288   0.151
 5736TIP3   OH241402   2.740   1.192   1.729
 5736TIP3    H141403   2.694   1.226   1.653
 5736TIP3    H241404   2.753   1.099   1.710
 5737TIP3   OH241405   3.301   1.229   1.598
 5737TIP3    H141406   3.382   1.259   1.557
 5737TIP3    H241407   3.235   1.293   1.569
 5738TIP3   OH241408   2.143   0.892   1.721
 5738TIP3    H141409   2.210   0.829   1.694
 5738TIP3    H241410   2.136   0.880   1.815
 5739TIP3   OH241411   2.587   0.997   0.228
 5739TIP3    H141412   2.529   0.975   0.300
 5739TIP3    H241413   2.588   0.918   0.173
 5740TIP3   OH241414   2.580   0.851   1.474
 5740TIP3    H141415   2.495   0.896   1.474
 5740TIP3    H241416   2.620   0.877   1.392
 5741TIP3   OH241417   2.603   0.767   0.073
 5741TIP3    H141418   2.619   0.758  -0.021
 5741TIP3    H241419   2.686   0.742   0.114
 5742TIP3   OH241420   3.087   1.013   1.776
 5742TIP3    H141421   3.173   0.983   1.745
 5742TIP3    H241422   3.058   0.945   1.836
 5743TIP3   OH241423   3.688   1.007   9.856
 5743TIP3    H141424   3.766   1.062   9.861
 5743TIP3    H241425   3.621   1.064   9.818
 5744TIP3   OH241426   2.566   0.592   1.570
 5744TIP3    H141427   2.573   0.532   1.496
 5744TIP3    H241428   2.579   0.679   1.532
 5745TIP3   OH241429   2.587   0.431   1.344
 5745TIP3    H141430   2.647   0.460   1.275
 5745TIP3    H241431   2.502   0.427   1.301
 5746TIP3   OH241432   2.666   0.932   1.227
 5746TIP3    H141433   2.754   0.929   1.189
 5746TIP3    H241434   2.633   1.019   1.204
 5747TIP3   OH241435   3.174   0.641   1.805
 5747TIP3    H141436   3.165   0.552   1.838
 5747TIP3    H241437   3.265   0.648   1.777
 5748TIP3   OH241438   3.350   0.973   1.674
 5748TIP3    H141439   3.332   1.064   1.649
 5748TIP3    H241440   3.445   0.966   1.673
 5749TIP3   OH241441   2.312   0.678   1.656
 5749TIP3    H141442   2.267   0.601   1.692
 5749TIP3    H241443   2.403   0.651   1.647
 5750TIP3   OH241444   2.608   0.154   1.305
 5750TIP3    H141445   2.602   0.238   1.350
 5750TIP3    H241446   2.569   0.169   1.219
 5751TIP3   OH241447   2.754   0.487   1.743
 5751TIP3    H141448   2.706   0.440   1.812
 5751TIP3    H241449   2.686   0.520   1.684
 5752TIP3   OH241450   3.011   0.404   1.669
 5752TIP3    H141451   2.919   0.410   1.694
 5752TIP3    H241452   3.056   0.380   1.750
 5753TIP3   OH241453   3.157   0.382   1.900
 5753TIP3    H141454   3.220   0.309   1.903
 5753TIP3    H241455   3.140   0.402   1.992
 5754TIP3   OH241456   2.186   0.452   1.765
 5754TIP3    H141457   2.172   0.389   1.694
 5754TIP3    H241458   2.236   0.403   1.831
 5755TIP3   OH241459   2.656   0.085   1.668
 5755TIP3    H141460   2.659  -0.010   1.657
 5755TIP3    H241461   2.726   0.118   1.612
 5756TIP3   OH241462   2.629   0.115   1.942
 5756TIP3    H141463   2.646   0.092   1.850
 5756TIP3    H241464   2.611   0.209   1.940
 5757TIP3   OH241465   2.722   1.872   0.298
 5757TIP3    H141466   2.800   1.853   0.245
 5757TIP3    H241467   2.718   1.968   0.301
 5758TIP3   OH241468   2.005   1.315   0.202
 5758TIP3    H141469   2.100   1.319   0.192
 5758TIP3    H241470   1.979   1.236   0.154
 5759TIP3   OH241471   1.876   1.825   0.718
 5759TIP3    H141472   1.814   1.791   0.653
 5759TIP3    H241473   1.900   1.749   0.771
 5760TIP3   OH241474   1.980   1.612   0.859
 5760TIP3    H141475   1.946   1.539   0.911
 5760TIP3    H241476   2.037   1.660   0.920
 5761TIP3   OH241477   3.725   1.769   1.138
 5761TIP3    H141478   3.731   1.769   1.234
 5761TIP3    H241479   3.815   1.770   1.108
 5762TIP3   OH241480   3.704   1.710   1.416
 5762TIP3    H141481   3.656   1.637   1.377
 5762TIP3    H241482   3.751   1.670   1.490
 5763TIP3   OH241483   3.592   1.374   1.882
 5763TIP3    H141484   3.511   1.351   1.927
 5763TIP3    H241485   3.566   1.440   1.817
 5764TIP3   OH241486   3.708   1.118   0.488
 5764TIP3    H141487   3.784   1.176   0.498
 5764TIP3    H241488   3.721   1.051   0.554
 5765TIP3   OH241489   3.747   0.916   0.668
 5765TIP3    H141490   3.665   0.888   0.708
 5765TIP3    H241491   3.804   0.934   0.743
 5766TIP3   OH241492   3.748   1.246   1.166
 5766TIP3    H141493   3.780   1.161   1.134
 5766TIP3    H241494   3.812   1.309   1.133
 5767TIP3   OH241495   3.540   1.510   1.330
 5767TIP3    H141496   3.467   1.537   1.385
 5767TIP3    H241497   3.501   1.493   1.244
 5768TIP3   OH241498   3.679   0.946   0.276
 5768TIP3    H141499   3.603   0.976   0.226
 5768TIP3    H241500   3.686   1.008   0.349
 5769TIP3   OH241501   3.480   0.611   0.183
 5769TIP3    H141502   3.411   0.656   0.135
 5769TIP3    H241503   3.489   0.526   0.139
 5770TIP3   OH241504   3.496   0.808   0.728
 5770TIP3    H141505   3.491   0.719   0.692
 5770TIP3    H241506   3.454   0.801   0.814
 5771TIP3   OH241507   1.953   0.930   1.164
 5771TIP3    H141508   1.949   0.977   1.081
 5771TIP3    H241509   2.044   0.902   1.171
 5772TIP3   OH241510   3.632   0.964   1.682
 5772TIP3    H141511   3.649   0.872   1.704
 5772TIP3    H241512   3.703   0.987   1.622
 5773TIP3   OH241513   3.682   0.697   1.716
 5773TIP3    H141514   3.596   0.660   1.699
 5773TIP3    H241515   3.743   0.638   1.673
 5774TIP3   OH241516   3.508   0.372   0.055
 5774TIP3    H141517   3.599   0.348   0.074
 5774TIP3    H241518   3.461   0.288   0.054
 5775TIP3   OH241519   3.484   0.575   0.547
 5775TIP3    H141520   3.520   0.487   0.549
 5775TIP3    H241521   3.545   0.624   0.491
 5776TIP3   OH241522   3.523   0.600   1.089
 5776TIP3    H141523   3.616   0.614   1.068
 5776TIP3    H241524   3.518   0.614   1.184
 5777TIP3   OH241525   3.520   0.687   1.352
 5777TIP3    H141526   3.438   0.711   1.394
 5777TIP3    H241527   3.566   0.769   1.340
 5778TIP3   OH241528   1.914   0.505   1.677
 5778TIP3    H141529   1.999   0.486   1.716
 5778TIP3    H241530   1.872   0.420   1.668
 5779TIP3   OH241531   3.853   0.143   1.811
 5779TIP3    H141532   3.939   0.132   1.771
 5779TIP3    H241533   3.807   0.203   1.753
 5780TIP3   OH241534   3.577   0.314   0.549
 5780TIP3    H141535   3.582   0.286   0.640
 5780TIP3    H241536   3.514   0.254   0.509
 5781TIP3   OH241537   2.093   0.429   0.997
 5781TIP3    H141538   2.129   0.342   0.978
 5781TIP3    H241539   2.169   0.487   0.998
 5782TIP3   OH241540   1.878   0.673   1.089
 5782TIP3    H141541   1.942   0.670   1.018
 5782TIP3    H241542   1.890   0.758   1.130
 5783TIP3   OH241543   3.686   0.288   1.653
 5783TIP3    H141544   3.620   0.327   1.710
 5783TIP3    H241545   3.635   0.243   1.585
 5784TIP3   OH241546   3.747   0.288   0.163
 5784TIP3    H141547   3.808   0.215   0.175
 5784TIP3    H241548   3.791   0.362   0.205
 5785TIP3   OH241549   1.939   0.269   0.491
 5785TIP3    H141550   1.849   0.284   0.521
 5785TIP3    H241551   1.958   0.344   0.435
 5786TIP3   OH241552   3.447   1.779   0.777
 5786TIP3    H141553   3.505   1.787   0.701
 5786TIP3    H241554   3.506   1.754   0.849
 5787TIP3   OH241555   1.991   0.238   1.377
 5787TIP3    H141556   1.924   0.174   1.399
 5787TIP3    H241557   1.955   0.286   1.303
 5788TIP3   OH241558   2.130   1.583   1.721
 5788TIP3    H141559   2.049   1.554   1.680
 5788TIP3    H241560   2.136   1.531   1.802
 5789TIP3   OH241561   2.494   1.616   1.387
 5789TIP3    H141562   2.467   1.704   1.362
 5789TIP3    H241563   2.587   1.612   1.365
 5790TIP3   OH241564   2.851   1.733   1.605
 5790TIP3    H141565   2.876   1.706   1.694
 5790TIP3    H241566   2.933   1.743   1.558
 5791TIP3   OH241567   3.139   1.995   1.575
 5791TIP3    H141568   3.119   1.917   1.524
 5791TIP3    H241569   3.173   1.961   1.658
 5792TIP3   OH241570   3.561   0.147   1.441
 5792TIP3    H141571   3.540   0.163   1.349
 5792TIP3    H241572   3.544   0.054   1.453
 5793TIP3   OH241573   2.180   1.846   1.414
 5793TIP3    H141574   2.107   1.885   1.366
 5793TIP3    H241575   2.184   1.896   1.495
 5794TIP3   OH241576   2.432   1.871   1.310
 5794TIP3    H141577   2.341   1.863   1.340
 5794TIP3    H241578   2.426   1.908   1.223
 5795TIP3   OH241579   2.882   1.844   1.224
 5795TIP3    H141580   2.816   1.865   1.158
 5795TIP3    H241581   2.885   1.922   1.281
 5796TIP3   OH241582   3.069   1.777   1.421
 5796TIP3    H141583   3.007   1.786   1.349
 5796TIP3    H241584   3.155   1.776   1.380
 5797TIP3   OH241585   3.322   1.807   1.319
 5797TIP3    H141586   3.359   1.895   1.326
 5797TIP3    H241587   3.357   1.773   1.236
 5798TIP3   OH241588   2.156   1.722   1.052
 5798TIP3    H141589   2.142   1.679   1.136
 5798TIP3    H241590   2.234   1.680   1.015
 5799TIP3   OH241591   2.374   1.600   0.943
 5799TIP3    H141592   2.376   1.504   0.934
 5799TIP3    H241593   2.458   1.623   0.982
 5800TIP3   OH241594   2.626   1.633   1.054
 5800TIP3    H141595   2.660   1.557   1.007
 5800TIP3    H241596   2.657   1.621   1.144
 5801TIP3   OH241597   2.951   0.246   0.947
 5801TIP3    H141598   2.883   0.182   0.969
 5801TIP3    H241599   3.019   0.194   0.903
 5802TIP3   OH241600   3.390   0.134   0.942
 5802TIP3    H141601   3.450   0.188   0.891
 5802TIP3    H241602   3.304   0.152   0.905
 5803TIP3   OH241603   3.610   0.247   0.815
 5803TIP3    H141604   3.670   0.187   0.859
 5803TIP3    H241605   3.656   0.331   0.815
 5804TIP3   OH241606   2.119   0.153   0.666
 5804TIP3    H141607   2.052   0.185   0.605
 5804TIP3    H241608   2.119   0.058   0.654
 5805TIP3   OH241609   2.020   0.090   0.298
 5805TIP3    H141610   2.109   0.117   0.277
 5805TIP3    H241611   1.994   0.148   0.370
 5806TIP3   OH241612   2.685   0.062   0.711
 5806TIP3    H141613   2.756   0.108   0.667
 5806TIP3    H241614   2.696   0.083   0.804
 5807TIP3   OH241615   3.145   0.107   0.804
 5807TIP3    H141616   3.155   0.138   0.714
 5807TIP3    H241617   3.135   0.013   0.796
 5808TIP3   OH241618   3.385   0.148   0.446
 5808TIP3    H141619   3.302   0.184   0.480
 5808TIP3    H241620   3.370   0.054   0.440
 5809TIP3   OH241621   2.035   1.730   0.406
 5809TIP3    H141622   1.980   1.711   0.331
 5809TIP3    H241623   2.027   1.825   0.419
 5810TIP3   OH241624   2.283   0.153   0.273
 5810TIP3    H141625   2.307   0.063   0.293
 5810TIP3    H241626   2.350   0.206   0.316
 5811TIP3   OH241627   2.738   0.313   0.427
 5811TIP3    H141628   2.791   0.254   0.482
 5811TIP3    H241629   2.748   0.399   0.467
 5812TIP3   OH241630   2.965   1.784   0.203
 5812TIP3    H141631   3.061   1.791   0.204
 5812TIP3    H241632   2.945   1.742   0.119
 5813TIP3   OH241633   3.607   1.780   0.549
 5813TIP3    H141634   3.575   1.693   0.526
 5813TIP3    H241635   3.590   1.834   0.472
 5814TIP3   OH241636   2.138   0.229   1.617
 5814TIP3    H141637   2.106   0.214   1.527
 5814TIP3    H241638   2.222   0.183   1.620
 5815TIP3   OH241639   2.379   0.112   1.679
 5815TIP3    H141640   2.474   0.123   1.670
 5815TIP3    H241641   2.365   0.018   1.675
 5816TIP3   OH241642   2.312   1.777   0.365
 5816TIP3    H141643   2.223   1.745   0.380
 5816TIP3    H241644   2.365   1.698   0.354
 5817TIP3   OH241645   3.344   0.173   1.908
 5817TIP3    H141646   3.301   0.098   1.868
 5817TIP3    H241647   3.402   0.136   1.974
 5818TIP3   OH241648   3.505   1.600   1.736
 5818TIP3    H141649   3.455   1.589   1.656
 5818TIP3    H241650   3.510   1.695   1.749
 5819TIP3   OH241651   5.002   1.038   0.682
 5819TIP3    H141652   4.987   1.131   0.670
 5819TIP3    H241653   4.948   0.996   0.614
 5820TIP3   OH241654   4.863   0.972   1.061
 5820TIP3    H141655   4.897   0.928   1.139
 5820TIP3    H241656   4.817   0.904   1.012
 5821TIP3   OH241657   4.054   0.912   1.248
 5821TIP3    H141658   4.071   0.823   1.277
 5821TIP3    H241659   4.113   0.966   1.301
 5822TIP3   OH241660   5.256   1.277   0.904
 5822TIP3    H141661   5.211   1.201   0.941
 5822TIP3    H241662   5.255   1.342   0.974
 5823TIP3   OH241663   4.224   1.341   0.988
 5823TIP3    H141664   4.201   1.257   0.948
 5823TIP3    H241665   4.318   1.334   1.006
 5824TIP3   OH241666   3.830   0.661   0.594
 5824TIP3    H141667   3.813   0.751   0.621
 5824TIP3    H241668   3.782   0.652   0.511
 5825TIP3   OH241669   3.942   0.954   0.859
 5825TIP3    H141670   3.978   0.870   0.888
 5825TIP3    H241671   4.018   1.012   0.855
 5826TIP3   OH241672   4.981   1.717   0.928
 5826TIP3    H141673   5.021   1.672   0.854
 5826TIP3    H241674   4.961   1.647   0.991
 5827TIP3   OH241675   4.718   1.213   1.083
 5827TIP3    H141676   4.760   1.131   1.055
 5827TIP3    H241677   4.782   1.253   1.142
 5828TIP3   OH241678   5.646   0.348   1.154
 5828TIP3    H141679   5.626   0.425   1.207
 5828TIP3    H241680   5.708   0.380   1.088
 5829TIP3   OH241681   5.034   0.661   1.050
 5829TIP3    H141682   5.046   0.568   1.069
 5829TIP3    H241683   4.991   0.662   0.965
 5830TIP3   OH241684   4.392   0.436   0.830
 5830TIP3    H141685   4.392   0.524   0.794
 5830TIP3    H241686   4.337   0.386   0.770
 5831TIP3   OH241687   5.152   0.491   0.692
 5831TIP3    H141688   5.200   0.479   0.774
 5831TIP3    H241689   5.216   0.530   0.632
 5832TIP3   OH241690   4.032   0.708   0.941
 5832TIP3    H141691   4.100   0.667   0.995
 5832TIP3    H241692   4.044   0.670   0.854
 5833TIP3   OH241693   4.506   0.863   0.837
 5833TIP3    H141694   4.587   0.826   0.871
 5833TIP3    H241695   4.460   0.789   0.797
 5834TIP3   OH241696   5.562   0.520   1.350
 5834TIP3    H141697   5.523   0.608   1.343
 5834TIP3    H241698   5.494   0.468   1.393
 5835TIP3   OH241699   4.250   0.355   1.253
 5835TIP3    H141700   4.225   0.418   1.185
 5835TIP3    H241701   4.178   0.357   1.315
 5836TIP3   OH241702   4.973   1.292   0.577
 5836TIP3    H141703   4.959   1.279   0.483
 5836TIP3    H241704   4.927   1.374   0.597
 5837TIP3   OH241705   4.476   1.141   1.197
 5837TIP3    H141706   4.431   1.217   1.234
 5837TIP3    H241707   4.556   1.178   1.159
 5838TIP3   OH241708   5.282   0.473   0.925
 5838TIP3    H141709   5.219   0.441   0.990
 5838TIP3    H241710   5.347   0.520   0.977
 5839TIP3   OH241711   4.224   0.519   1.031
 5839TIP3    H141712   4.275   0.584   1.079
 5839TIP3    H241713   4.285   0.483   0.967
 5840TIP3   OH241714   4.359   1.365   1.317
 5840TIP3    H141715   4.374   1.459   1.329
 5840TIP3    H241716   4.271   1.350   1.351
 5841TIP3   OH241717   3.929   1.282   0.486
 5841TIP3    H141718   3.909   1.324   0.403
 5841TIP3    H241719   3.959   1.354   0.542
 5842TIP3   OH241720   5.230   1.477   1.097
 5842TIP3    H141721   5.135   1.492   1.094
 5842TIP3    H241722   5.269   1.561   1.074
 5843TIP3   OH241723   5.400   0.232   1.223
 5843TIP3    H141724   5.348   0.206   1.148
 5843TIP3    H241725   5.480   0.268   1.186
 5844TIP3   OH241726   4.589   0.108   0.991
 5844TIP3    H141727   4.586   0.015   1.012
 5844TIP3    H241728   4.505   0.143   1.019
 5845TIP3   OH241729   5.124   1.598   0.720
 5845TIP3    H141730   5.170   1.516   0.699
 5845TIP3    H241731   5.194   1.658   0.746
 5846TIP3   OH241732   5.235   1.358   0.645
 5846TIP3    H141733   5.153   1.316   0.621
 5846TIP3    H241734   5.256   1.321   0.731
 5847TIP3   OH241735   5.364   1.238   1.451
 5847TIP3    H141736   5.355   1.188   1.370
 5847TIP3    H241737   5.373   1.329   1.423
 5848TIP3   OH241738   4.893   0.951   0.440
 5848TIP3    H141739   4.824   1.007   0.405
 5848TIP3    H241740   4.963   0.955   0.374
 5849TIP3   OH241741   4.796   0.716   0.188
 5849TIP3    H141742   4.883   0.744   0.217
 5849TIP3    H241743   4.801   0.621   0.187
 5850TIP3   OH241744   5.554   0.962   1.291
 5850TIP3    H141745   5.481   1.020   1.269
 5850TIP3    H241746   5.616   0.973   1.219
 5851TIP3   OH241747   5.236   0.974   0.557
 5851TIP3    H141748   5.162   0.993   0.614
 5851TIP3    H241749   5.296   0.923   0.612
 5852TIP3   OH241750   5.155   0.778   1.474
 5852TIP3    H141751   5.148   0.841   1.545
 5852TIP3    H241752   5.094   0.810   1.408
 5853TIP3   OH241753   4.378   1.046   0.672
 5853TIP3    H141754   4.350   0.995   0.596
 5853TIP3    H241755   4.431   0.985   0.723
 5854TIP3   OH241756   4.511   1.365   0.971
 5854TIP3    H141757   4.521   1.376   0.876
 5854TIP3    H241758   4.587   1.314   0.998
 5855TIP3   OH241759   4.347   0.950   1.047
 5855TIP3    H141760   4.414   0.926   0.981
 5855TIP3    H241761   4.390   1.016   1.101
 5856TIP3   OH241762   4.959   1.516   1.121
 5856TIP3    H141763   4.956   1.584   1.188
 5856TIP3    H241764   4.936   1.435   1.167
 5857TIP3   OH241765   4.550   1.344   1.519
 5857TIP3    H141766   4.498   1.398   1.578
 5857TIP3    H241767   4.495   1.332   1.442
 5858TIP3   OH241768   5.143   0.901   0.309
 5858TIP3    H141769   5.179   0.928   0.393
 5858TIP3    H241770   5.201   0.943   0.244
 5859TIP3   OH241771   4.213   1.038   1.441
 5859TIP3    H141772   4.244   1.101   1.505
 5859TIP3    H241773   4.182   0.964   1.492
 5860TIP3   OH241774   4.881   1.557   0.592
 5860TIP3    H141775   4.960   1.564   0.645
 5860TIP3    H241776   4.853   1.647   0.578
 5861TIP3   OH241777   4.393   1.519   1.654
 5861TIP3    H141778   4.392   1.576   1.577
 5861TIP3    H241779   4.304   1.521   1.687
 5862TIP3   OH241780   5.417   0.126   0.217
 5862TIP3    H141781   5.366   0.152   0.293
 5862TIP3    H241782   5.487   0.191   0.211
 5863TIP3   OH241783   4.291   0.932   0.434
 5863TIP3    H141784   4.212   0.982   0.415
 5863TIP3    H241785   4.278   0.848   0.390
 5864TIP3   OH241786   5.532   1.509   0.260
 5864TIP3    H141787   5.566   1.598   0.250
 5864TIP3    H241788   5.608   1.453   0.252
 5865TIP3   OH241789   3.900   1.210   1.404
 5865TIP3    H141790   3.844   1.215   1.326
 5865TIP3    H241791   3.895   1.118   1.432
 5866TIP3   OH241792   3.966   1.406   1.094
 5866TIP3    H141793   4.051   1.373   1.063
 5866TIP3    H241794   3.987   1.460   1.170
 5867TIP3   OH241795   5.632   1.454   1.661
 5867TIP3    H141796   5.620   1.363   1.634
 5867TIP3    H241797   5.562   1.469   1.725
 5868TIP3   OH241798   4.756   1.528   1.477
 5868TIP3    H141799   4.747   1.599   1.540
 5868TIP3    H241800   4.685   1.467   1.499
 5869TIP3   OH241801   4.847   1.817   0.523
 5869TIP3    H141802   4.846   1.842   0.430
 5869TIP3    H241803   4.816   1.896   0.568
 5870TIP3   OH241804   4.169   1.704   0.721
 5870TIP3    H141805   4.190   1.676   0.810
 5870TIP3    H241806   4.117   1.632   0.685
 5871TIP3   OH241807   5.130   1.792   0.208
 5871TIP3    H141808   5.179   1.718   0.172
 5871TIP3    H241809   5.145   1.786   0.303
 5872TIP3   OH241810   5.127   1.776   0.485
 5872TIP3    H141811   5.035   1.779   0.511
 5872TIP3    H241812   5.161   1.696   0.524
 5873TIP3   OH241813   5.355   0.626   1.605
 5873TIP3    H141814   5.284   0.675   1.563
 5873TIP3    H241815   5.354   0.541   1.561
 5874TIP3   OH241816   4.120   1.359   1.469
 5874TIP3    H141817   4.165   1.304   1.533
 5874TIP3    H241818   4.047   1.305   1.438
 5875TIP3   OH241819   4.325   0.171   1.061
 5875TIP3    H141820   4.258   0.184   0.995
 5875TIP3    H241821   4.304   0.235   1.130
 5876TIP3   OH241822   4.786   0.171   1.362
 5876TIP3    H141823   4.809   0.086   1.400
 5876TIP3    H241824   4.690   0.173   1.365
 5877TIP3   OH241825   5.062   0.506   1.460
 5877TIP3    H141826   5.026   0.481   1.545
 5877TIP3    H241827   5.084   0.598   1.470
 5878TIP3   OH241828   5.327   1.053   0.161
 5878TIP3    H141829   5.291   1.111   0.093
 5878TIP3    H241830   5.332   1.108   0.239
 5879TIP3   OH241831   4.765   0.442   0.177
 5879TIP3    H141832   4.731   0.391   0.251
 5879TIP3    H241833   4.694   0.444   0.114
 5880TIP3   OH241834   4.339   0.709   1.186
 5880TIP3    H141835   4.267   0.703   1.250
 5880TIP3    H241836   4.333   0.798   1.153
 5881TIP3   OH241837   4.347   0.677   0.709
 5881TIP3    H141838   4.251   0.676   0.715
 5881TIP3    H241839   4.365   0.640   0.622
 5882TIP3   OH241840   4.890   0.696   0.537
 5882TIP3    H141841   4.882   0.787   0.509
 5882TIP3    H241842   4.969   0.664   0.494
 5883TIP3   OH241843   4.818   0.713   1.669
 5883TIP3    H141844   4.772   0.641   1.712
 5883TIP3    H241845   4.903   0.719   1.713
 5884TIP3   OH241846   4.929   0.624   0.800
 5884TIP3    H141847   4.902   0.665   0.718
 5884TIP3    H241848   5.000   0.565   0.775
 5885TIP3   OH241849   4.114   0.653   1.340
 5885TIP3    H141850   4.114   0.689   1.429
 5885TIP3    H241851   4.075   0.566   1.350
 5886TIP3   OH241852   4.506   0.453   0.060
 5886TIP3    H141853   4.461   0.411   0.133
 5886TIP3    H241854   4.470   0.412  -0.018
 5887TIP3   OH241855   3.771   0.463   0.789
 5887TIP3    H141856   3.845   0.460   0.851
 5887TIP3    H241857   3.793   0.533   0.728
 5888TIP3   OH241858   3.874   0.494   0.299
 5888TIP3    H141859   3.947   0.537   0.255
 5888TIP3    H241860   3.811   0.565   0.316
 5889TIP3   OH241861   4.963   0.811   1.268
 5889TIP3    H141862   4.995   0.757   1.196
 5889TIP3    H241863   4.897   0.756   1.311
 5890TIP3   OH241864   4.668   0.421   0.788
 5890TIP3    H141865   4.578   0.416   0.821
 5890TIP3    H241866   4.722   0.388   0.860
 5891TIP3   OH241867   4.081   0.601   0.695
 5891TIP3    H141868   4.000   0.614   0.645
 5891TIP3    H241869   4.112   0.515   0.669
 5892TIP3   OH241870   4.394   0.551   0.466
 5892TIP3    H141871   4.487   0.566   0.480
 5892TIP3    H241872   4.368   0.618   0.402
 5893TIP3   OH241873   5.053   0.388   1.062
 5893TIP3    H141874   5.058   0.344   1.147
 5893TIP3    H241875   4.973   0.354   1.022
 5894TIP3   OH241876   4.290   0.712   0.272
 5894TIP3    H141877   4.213   0.682   0.223
 5894TIP3    H241878   4.359   0.717   0.206
 5895TIP3   OH241879   5.402   1.917   1.879
 5895TIP3    H141880   5.407   1.856   1.805
 5895TIP3    H241881   5.492   1.947   1.890
 5896TIP3   OH241882   4.236   1.204   1.670
 5896TIP3    H141883   4.297   1.230   1.738
 5896TIP3    H241884   4.175   1.144   1.713
 5897TIP3   OH241885   4.724   0.742   0.959
 5897TIP3    H141886   4.783   0.686   0.910
 5897TIP3    H241887   4.691   0.687   1.030
 5898TIP3   OH241888   4.212   0.365   0.630
 5898TIP3    H141889   4.160   0.285   0.622
 5898TIP3    H241890   4.259   0.371   0.547
 5899TIP3   OH241891   4.607   0.622   1.189
 5899TIP3    H141892   4.524   0.668   1.198
 5899TIP3    H241893   4.658   0.649   1.265
 5900TIP3   OH241894   4.691   1.121   0.355
 5900TIP3    H141895   4.628   1.072   0.302
 5900TIP3    H241896   4.638   1.167   0.420
 5901TIP3   OH241897   5.346   1.122   1.205
 5901TIP3    H141898   5.408   1.179   1.159
 5901TIP3    H241899   5.278   1.104   1.141
 5902TIP3   OH241900   4.988   0.397   0.346
 5902TIP3    H141901   4.927   0.407   0.272
 5902TIP3    H241902   5.035   0.480   0.349
 5903TIP3   OH241903   4.922   1.319   1.540
 5903TIP3    H141904   4.887   1.309   1.629
 5903TIP3    H241905   4.882   1.400   1.508
 5904TIP3   OH241906   5.119   0.637   0.387
 5904TIP3    H141907   5.205   0.613   0.421
 5904TIP3    H241908   5.132   0.724   0.349
 5905TIP3   OH241909   4.187   1.090   0.872
 5905TIP3    H141910   4.245   1.082   0.796
 5905TIP3    H241911   4.228   1.035   0.939
 5906TIP3   OH241912   4.905   1.286   0.308
 5906TIP3    H141913   4.858   1.369   0.306
 5906TIP3    H241914   4.837   1.219   0.309
 5907TIP3   OH241915   3.855   0.959   1.510
 5907TIP3    H141916   3.925   0.902   1.541
 5907TIP3    H241917   3.810   0.907   1.443
 5908TIP3   OH241918   4.623   0.908   1.686
 5908TIP3    H141919   4.553   0.864   1.637
 5908TIP3    H241920   4.699   0.850   1.677
 5909TIP3   OH241921   5.196   1.499   1.588
 5909TIP3    H141922   5.120   1.497   1.645
 5909TIP3    H241923   5.268   1.466   1.641
 5910TIP3   OH241924   5.562   0.678   0.354
 5910TIP3    H141925   5.498   0.647   0.290
 5910TIP3    H241926   5.574   0.770   0.334
 5911TIP3   OH241927   5.578   1.181   1.611
 5911TIP3    H141928   5.494   1.197   1.568
 5911TIP3    H241929   5.641   1.177   1.538
 5912TIP3   OH241930   5.359   1.546   0.484
 5912TIP3    H141931   5.327   1.469   0.529
 5912TIP3    H241932   5.406   1.512   0.408
 5913TIP3   OH241933   5.141   1.055   1.024
 5913TIP3    H141934   5.047   1.040   1.016
 5913TIP3    H241935   5.181   0.974   0.993
 5914TIP3   OH241936   4.457   1.451   0.707
 5914TIP3    H141937   4.468   1.543   0.682
 5914TIP3    H241938   4.364   1.443   0.728
 5915TIP3   OH241939   3.941   0.880   0.220
 5915TIP3    H141940   3.989   0.947   0.269
 5915TIP3    H241941   3.849   0.902   0.231
 5916TIP3   OH241942   4.512   1.244   0.532
 5916TIP3    H141943   4.513   1.317   0.594
 5916TIP3    H241944   4.468   1.173   0.579
 5917TIP3   OH241945   4.658   1.673   1.264
 5917TIP3    H141946   4.702   1.757   1.253
 5917TIP3    H241947   4.714   1.623   1.323
 5918TIP3   OH241948   4.425   1.718   0.624
 5918TIP3    H141949   4.332   1.722   0.646
 5918TIP3    H241950   4.459   1.805   0.647
 5919TIP3   OH241951   4.927   1.275   1.260
 5919TIP3    H141952   4.922   1.281   1.355
 5919TIP3    H241953   4.992   1.207   1.244
 5920TIP3   OH241954   5.171   1.309   0.223
 5920TIP3    H141955   5.221   1.277   0.298
 5920TIP3    H241956   5.080   1.299   0.248
 5921TIP3   OH241957   5.192   1.774   1.536
 5921TIP3    H141958   5.174   1.680   1.534
 5921TIP3    H241959   5.205   1.798   1.444
 5922TIP3   OH241960   5.635   1.765   0.255
 5922TIP3    H141961   5.704   1.832   0.259
 5922TIP3    H241962   5.554   1.814   0.269
 5923TIP3   OH241963   4.024   0.388   1.403
 5923TIP3    H141964   3.985   0.426   1.482
 5923TIP3    H241965   3.968   0.313   1.383
 5924TIP3   OH241966   5.337   1.178   0.403
 5924TIP3    H141967   5.295   1.120   0.467
 5924TIP3    H241968   5.429   1.180   0.431
 5925TIP3   OH241969   4.043   1.581   1.306
 5925TIP3    H141970   4.072   1.513   1.367
 5925TIP3    H241971   4.057   1.663   1.354
 5926TIP3   OH241972   4.391   1.372   0.319
 5926TIP3    H141973   4.431   1.322   0.389
 5926TIP3    H241974   4.424   1.461   0.330
 5927TIP3   OH241975   4.072   1.083   0.357
 5927TIP3    H141976   4.023   1.134   0.422
 5927TIP3    H241977   4.106   1.148   0.296
 5928TIP3   OH241978   5.032   0.278   1.308
 5928TIP3    H141979   5.036   0.352   1.368
 5928TIP3    H241980   4.948   0.237   1.325
 5929TIP3   OH241981   5.043   0.269   0.577
 5929TIP3    H141982   5.019   0.303   0.491
 5929TIP3    H241983   5.080   0.344   0.623
 5930TIP3   OH241984   4.745   1.507   0.352
 5930TIP3    H141985   4.654   1.534   0.368
 5930TIP3    H241986   4.789   1.522   0.435
 5931TIP3   OH241987   4.656   0.555   0.547
 5931TIP3    H141988   4.734   0.609   0.538
 5931TIP3    H241989   4.662   0.519   0.635
 5932TIP3   OH241990   4.788   0.646   1.402
 5932TIP3    H141991   4.788   0.677   1.493
 5932TIP3    H241992   4.824   0.558   1.407
 5933TIP3   OH241993   4.773   0.224   0.621
 5933TIP3    H141994   4.751   0.296   0.680
 5933TIP3    H241995   4.868   0.229   0.611
 5934TIP3   OH241996   4.485   1.625   0.375
 5934TIP3    H141997   4.509   1.701   0.323
 5934TIP3    H241998   4.470   1.660   0.463
 5935TIP3   OH241999   4.402   0.339   0.289
 5935TIP3    H142000   4.378   0.412   0.346
 5935TIP3    H242001   4.486   0.310   0.322
 5936TIP3   OH242002   5.321   0.405   1.431
 5936TIP3    H142003   5.228   0.424   1.435
 5936TIP3    H242004   5.330   0.341   1.360
 5937TIP3   OH242005   5.253   0.806   0.964
 5937TIP3    H142006   5.176   0.757   0.993
 5937TIP3    H242007   5.327   0.757   1.001
 5938TIP3   OH242008   4.155   1.294   0.196
 5938TIP3    H142009   4.221   1.337   0.251
 5938TIP3    H242010   4.205   1.256   0.124
 5939TIP3   OH242011   4.052   0.647   0.142
 5939TIP3    H142012   4.014   0.731   0.168
 5939TIP3    H242013   4.031   0.638   0.049
 5940TIP3   OH242014   5.349   1.723   1.054
 5940TIP3    H142015   5.345   1.740   0.960
 5940TIP3    H242016   5.441   1.732   1.076
 5941TIP3   OH242017   4.099   0.158   0.896
 5941TIP3    H142018   4.090   0.165   0.801
 5941TIP3    H242019   4.063   0.072   0.918
 5942TIP3   OH242020   3.990   1.514   0.629
 5942TIP3    H142021   3.936   1.525   0.707
 5942TIP3    H242022   3.953   1.577   0.566
 5943TIP3   OH242023   3.927   1.803   1.743
 5943TIP3    H142024   3.985   1.765   1.809
 5943TIP3    H242025   3.883   1.727   1.705
 5944TIP3   OH242026   4.755   1.644   0.112
 5944TIP3    H142027   4.757   1.585   0.187
 5944TIP3    H242028   4.795   1.594   0.040
 5945TIP3   OH242029   5.084   1.509   1.846
 5945TIP3    H142030   5.048   1.430   1.885
 5945TIP3    H242031   5.178   1.502   1.859
 5946TIP3   OH242032   5.273   1.559   0.155
 5946TIP3    H142033   5.230   1.474   0.167
 5946TIP3    H242034   5.364   1.544   0.180
 5947TIP3   OH242035   3.963   1.296   1.831
 5947TIP3    H142036   3.992   1.205   1.825
 5947TIP3    H242037   3.886   1.300   1.774
 5948TIP3   OH242038   4.394   1.203   0.091
 5948TIP3    H142039   4.432   1.121   0.124
 5948TIP3    H242040   4.415   1.268   0.159
 5949TIP3   OH242041   4.606   1.178   1.728
 5949TIP3    H142042   4.591   1.217   1.642
 5949TIP3    H242043   4.617   1.084   1.710
 5950TIP3   OH242044   5.130   1.132   1.560
 5950TIP3    H142045   5.210   1.176   1.529
 5950TIP3    H242046   5.062   1.199   1.553
 5951TIP3   OH242047   4.059   1.038   1.803
 5951TIP3    H142048   4.071   0.963   1.744
 5951TIP3    H242049   4.037   0.999   1.887
 5952TIP3   OH242050   4.486   0.982   0.235
 5952TIP3    H142051   4.424   0.965   0.306
 5952TIP3    H242052   4.499   0.897   0.194
 5953TIP3   OH242053   4.431   0.776   1.539
 5953TIP3    H142054   4.338   0.793   1.551
 5953TIP3    H242055   4.453   0.821   1.458
 5954TIP3   OH242056   4.528   0.723   0.133
 5954TIP3    H142057   4.523   0.636   0.093
 5954TIP3    H242058   4.621   0.736   0.150
 5955TIP3   OH242059   5.028   1.022   1.946
 5955TIP3    H142060   5.077   0.985   1.872
 5955TIP3    H242061   4.958   0.959   1.963
 5956TIP3   OH242062   5.538   0.951   9.857
 5956TIP3    H142063   5.599   1.024   9.855
 5956TIP3    H242064   5.451   0.991   9.850
 5957TIP3   OH242065   4.484   0.521   1.617
 5957TIP3    H142066   4.494   0.469   1.537
 5957TIP3    H242067   4.476   0.611   1.587
 5958TIP3   OH242068   4.499   0.414   1.356
 5958TIP3    H142069   4.547   0.469   1.294
 5958TIP3    H242070   4.411   0.408   1.320
 5959TIP3   OH242071   4.546   0.910   1.330
 5959TIP3    H142072   4.640   0.928   1.333
 5959TIP3    H242073   4.508   0.989   1.290
 5960TIP3   OH242074   5.049   0.702   1.826
 5960TIP3    H142075   5.098   0.621   1.839
 5960TIP3    H242076   5.114   0.765   1.795
 5961TIP3   OH242077   5.184   0.926   1.727
 5961TIP3    H142078   5.160   1.002   1.674
 5961TIP3    H242079   5.275   0.943   1.752
 5962TIP3   OH242080   4.287   0.602   1.799
 5962TIP3    H142081   4.239   0.669   1.751
 5962TIP3    H242082   4.352   0.570   1.736
 5963TIP3   OH242083   4.491   0.143   1.394
 5963TIP3    H142084   4.504   0.237   1.392
 5963TIP3    H242085   4.407   0.129   1.350
 5964TIP3   OH242086   4.704   0.500   1.794
 5964TIP3    H142087   4.691   0.470   1.884
 5964TIP3    H242088   4.617   0.490   1.754
 5965TIP3   OH242089   4.956   0.433   1.697
 5965TIP3    H142090   4.868   0.442   1.732
 5965TIP3    H242091   5.011   0.411   1.772
 5966TIP3   OH242092   5.120   0.401   1.921
 5966TIP3    H142093   5.124   0.306   1.926
 5966TIP3    H242094   5.076   0.428   2.002
 5967TIP3   OH242095   4.042   0.458   1.792
 5967TIP3    H142096   4.126   0.504   1.787
 5967TIP3    H242097   4.052   0.399   1.866
 5968TIP3   OH242098   4.476   0.088   1.671
 5968TIP3    H142099   4.479  -0.008   1.672
 5968TIP3    H242100   4.484   0.112   1.579
 5969TIP3   OH242101   4.587   0.198   1.901
 5969TIP3    H142102   4.566   0.171   1.812
 5969TIP3    H242103   4.522   0.264   1.923
 5970TIP3   OH242104   4.579   1.832   0.222
 5970TIP3    H142105   4.651   1.892   0.244
 5970TIP3    H242106   4.617   1.771   0.159
 5971TIP3   OH242107   3.885   1.343   0.215
 5971TIP3    H142108   3.979   1.342   0.202
 5971TIP3    H242109   3.851   1.275   0.157
 5972TIP3   OH242110   3.794   1.801   0.743
 5972TIP3    H142111   3.736   1.784   0.669
 5972TIP3    H242112   3.806   1.716   0.785
 5973TIP3   OH242113   3.873   1.572   0.876
 5973TIP3    H142114   3.865   1.487   0.920
 5973TIP3    H242115   3.910   1.630   0.942
 5974TIP3   OH242116   5.601   1.749   1.170
 5974TIP3    H142117   5.569   1.732   1.258
 5974TIP3    H242118   5.666   1.819   1.181
 5975TIP3   OH242119   5.500   1.702   1.419
 5975TIP3    H142120   5.452   1.625   1.389
 5975TIP3    H242121   5.500   1.695   1.514
 5976TIP3   OH242122   5.595   1.108   0.478
 5976TIP3    H142123   5.667   1.170   0.490
 5976TIP3    H242124   5.610   1.040   0.543
 5977TIP3   OH242125   5.641   0.906   0.660
 5977TIP3    H142126   5.556   0.882   0.698
 5977TIP3    H242127   5.693   0.937   0.734
 5978TIP3   OH242128   5.594   1.247   1.163
 5978TIP3    H142129   5.655   1.187   1.119
 5978TIP3    H242130   5.626   1.334   1.139
 5979TIP3   OH242131   5.339   1.493   1.351
 5979TIP3    H142132   5.265   1.495   1.411
 5979TIP3    H242133   5.299   1.480   1.264
 5980TIP3   OH242134   5.564   0.939   0.264
 5980TIP3    H142135   5.488   0.967   0.213
 5980TIP3    H242136   5.570   1.003   0.335
 5981TIP3   OH242137   5.370   0.614   0.175
 5981TIP3    H142138   5.313   0.666   0.117
 5981TIP3    H242139   5.373   0.527   0.133
 5982TIP3   OH242140   5.386   0.809   0.721
 5982TIP3    H142141   5.379   0.718   0.690
 5982TIP3    H242142   5.339   0.809   0.804
 5983TIP3   OH242143   3.840   0.998   1.109
 5983TIP3    H142144   3.860   0.981   1.017
 5983TIP3    H242145   3.917   0.969   1.157
 5984TIP3   OH242146   5.447   0.993   1.778
 5984TIP3    H142147   5.500   0.917   1.753
 5984TIP3    H242148   5.489   1.067   1.734
 5985TIP3   OH242149   5.575   0.765   1.684
 5985TIP3    H142150   5.498   0.718   1.651
 5985TIP3    H242151   5.643   0.698   1.691
 5986TIP3   OH242152   5.391   0.371   0.052
 5986TIP3    H142153   5.482   0.350   0.071
 5986TIP3    H242154   5.345   0.287   0.057
 5987TIP3   OH242155   5.365   0.577   0.531
 5987TIP3    H142156   5.401   0.489   0.542
 5987TIP3    H242157   5.430   0.623   0.478
 5988TIP3   OH242158   5.448   0.642   1.068
 5988TIP3    H142159   5.543   0.656   1.058
 5988TIP3    H242160   5.431   0.663   1.159
 5989TIP3   OH242161   5.396   0.740   1.318
 5989TIP3    H142162   5.316   0.760   1.366
 5989TIP3    H242163   5.445   0.822   1.318
 5990TIP3   OH242164   3.851   0.498   1.598
 5990TIP3    H142165   3.918   0.498   1.667
 5990TIP3    H242166   3.796   0.422   1.618
 5991TIP3   OH242167   5.702   0.147   1.815
 5991TIP3    H142168   5.792   0.140   1.784
 5991TIP3    H242169   5.661   0.212   1.758
 5992TIP3   OH242170   5.462   0.318   0.556
 5992TIP3    H142171   5.466   0.291   0.648
 5992TIP3    H242172   5.399   0.258   0.517
 5993TIP3   OH242173   3.978   0.396   0.971
 5993TIP3    H142174   4.013   0.310   0.946
 5993TIP3    H242175   4.055   0.447   0.994
 5994TIP3   OH242176   3.789   0.665   1.075
 5994TIP3    H142177   3.873   0.685   1.033
 5994TIP3    H242178   3.812   0.646   1.166
 5995TIP3   OH242179   5.564   0.336   1.665
 5995TIP3    H142180   5.493   0.364   1.722
 5995TIP3    H242181   5.521   0.282   1.598
 5996TIP3   OH242182   5.632   0.295   0.163
 5996TIP3    H142183   5.691   0.220   0.175
 5996TIP3    H242184   5.677   0.368   0.205
 5997TIP3   OH242185   3.846   0.281   0.478
 5997TIP3    H142186   3.756   0.293   0.508
 5997TIP3    H242187   3.865   0.360   0.427
 5998TIP3   OH242188   5.320   1.779   0.783
 5998TIP3    H142189   5.379   1.782   0.708
 5998TIP3    H242190   5.299   1.870   0.801
 5999TIP3   OH242191   3.825   0.197   1.349
 5999TIP3    H142192   3.743   0.191   1.397
 5999TIP3    H242193   3.802   0.240   1.266
 6000TIP3   OH242194   4.118   1.496   1.713
 6000TIP3    H142195   4.111   1.470   1.622
 6000TIP3    H242196   4.073   1.428   1.762
 6001TIP3   OH242197   4.418   1.627   1.393
 6001TIP3    H142198   4.380   1.714   1.381
 6001TIP3    H242199   4.505   1.633   1.356
 6002TIP3   OH242200   4.752   1.746   1.650
 6002TIP3    H142201   4.776   1.706   1.733
 6002TIP3    H242202   4.824   1.806   1.631
 6003TIP3   OH242203   4.977   1.909   1.653
 6003TIP3    H142204   5.050   1.867   1.608
 6003TIP3    H242205   5.013   1.934   1.738
 6004TIP3   OH242206   5.499   0.145   1.467
 6004TIP3    H142207   5.454   0.173   1.387
 6004TIP3    H242208   5.466   0.056   1.482
 6005TIP3   OH242209   4.069   1.848   1.399
 6005TIP3    H142210   3.991   1.888   1.361
 6005TIP3    H242211   4.081   1.894   1.482
 6006TIP3   OH242212   4.335   1.881   1.337
 6006TIP3    H142213   4.241   1.872   1.356
 6006TIP3    H242214   4.338   1.914   1.247
 6007TIP3   OH242215   4.783   1.921   1.237
 6007TIP3    H142216   4.771   1.987   1.169
 6007TIP3    H242217   4.785   1.970   1.319
 6008TIP3   OH242218   4.981   1.734   1.281
 6008TIP3    H142219   4.915   1.802   1.264
 6008TIP3    H242220   5.065   1.780   1.276
 6009TIP3   OH242221   5.231   1.852   1.269
 6009TIP3    H142222   5.267   1.940   1.257
 6009TIP3    H242223   5.267   1.802   1.196
 6010TIP3   OH242224   4.003   1.727   1.073
 6010TIP3    H142225   4.003   1.685   1.159
 6010TIP3    H242226   4.085   1.697   1.033
 6011TIP3   OH242227   4.230   1.615   0.970
 6011TIP3    H142228   4.221   1.520   0.979
 6011TIP3    H242229   4.318   1.634   1.003
 6012TIP3   OH242230   4.494   1.630   1.050
 6012TIP3    H142231   4.506   1.539   1.026
 6012TIP3    H242232   4.551   1.643   1.126
 6013TIP3   OH242233   4.825   0.264   0.953
 6013TIP3    H142234   4.755   0.205   0.982
 6013TIP3    H242235   4.890   0.206   0.914
 6014TIP3   OH242236   5.275   0.168   0.978
 6014TIP3    H142237   5.336   0.214   0.920
 6014TIP3    H242238   5.189   0.189   0.944
 6015TIP3   OH242239   5.494   0.249   0.823
 6015TIP3    H142240   5.559   0.193   0.866
 6015TIP3    H242241   5.535   0.336   0.822
 6016TIP3   OH242242   4.042   0.151   0.626
 6016TIP3    H142243   3.968   0.188   0.578
 6016TIP3    H242244   4.042   0.058   0.602
 6017TIP3   OH242245   3.925   0.108   0.278
 6017TIP3    H142246   4.017   0.133   0.267
 6017TIP3    H242247   3.896   0.158   0.354
 6018TIP3   OH242248   4.563   0.076   0.715
 6018TIP3    H142249   4.634   0.122   0.670
 6018TIP3    H242250   4.569   0.105   0.806
 6019TIP3   OH242251   5.031   0.130   0.823
 6019TIP3    H142252   5.043   0.165   0.735
 6019TIP3    H242253   5.020   0.036   0.811
 6020TIP3   OH242254   5.269   0.153   0.453
 6020TIP3    H142255   5.188   0.186   0.490
 6020TIP3    H242256   5.255   0.059   0.443
 6021TIP3   OH242257   3.917   1.692   0.436
 6021TIP3    H142258   3.845   1.661   0.380
 6021TIP3    H242259   3.917   1.787   0.423
 6022TIP3   OH242260   4.190   0.162   0.267
 6022TIP3    H142261   4.228   0.075   0.258
 6022TIP3    H242262   4.265   0.222   0.268
 6023TIP3   OH242263   4.651   0.325   0.397
 6023TIP3    H142264   4.692   0.263   0.458
 6023TIP3    H242265   4.651   0.408   0.444
 6024TIP3   OH242266   4.865   1.859   0.250
 6024TIP3    H142267   4.959   1.863   0.232
 6024TIP3    H242268   4.832   1.788   0.195
 6025TIP3   OH242269   5.474   1.781   0.554
 6025TIP3    H142270   5.436   1.698   0.525
 6025TIP3    H242271   5.466   1.839   0.477
 6026TIP3   OH242272   4.083   0.061   1.691
 6026TIP3    H142273   4.114  -0.028   1.707
 6026TIP3    H242274   4.150   0.118   1.730
 6027TIP3   OH242275   4.289   0.103   1.880
 6027TIP3    H142276   4.362   0.119   1.820
 6027TIP3    H242277   4.268   0.010   1.867
 6028TIP3   OH242278   4.193   1.766   0.390
 6028TIP3    H142279   4.118   1.708   0.401
 6028TIP3    H242280   4.264   1.707   0.363
 6029TIP3   OH242281   5.154   0.129   1.929
 6029TIP3    H142282   5.121   0.047   1.892
 6029TIP3    H242283   5.219   0.101   1.994
 6030TIP3   OH242284   5.424   1.729   1.684
 6030TIP3    H142285   5.410   1.648   1.733
 6030TIP3    H242286   5.341   1.744   1.639
 6031TIP3   OH242287   6.893   1.020   0.635
 6031TIP3    H142288   6.854   1.107   0.642
 6031TIP3    H242289   6.832   0.971   0.580
 6032TIP3   OH242290   6.763   0.949   1.063
 6032TIP3    H142291   6.789   0.902   1.142
 6032TIP3    H242292   6.714   0.885   1.012
 6033TIP3   OH242293   5.956   0.855   1.172
 6033TIP3    H142294   5.980   0.792   1.240
 6033TIP3    H242295   6.040   0.886   1.138
 6034TIP3   OH242296   7.124   1.274   0.905
 6034TIP3    H142297   7.085   1.194   0.942
 6034TIP3    H242298   7.134   1.332   0.980
 6035TIP3   OH242299   6.194   1.350   0.904
 6035TIP3    H142300   6.143   1.269   0.895
 6035TIP3    H242301   6.271   1.324   0.955
 6036TIP3   OH242302   5.723   0.650   0.587
 6036TIP3    H142303   5.711   0.741   0.616
 6036TIP3    H242304   5.672   0.644   0.506
 6037TIP3   OH242305   5.832   0.975   0.849
 6037TIP3    H142306   5.868   0.886   0.858
 6037TIP3    H242307   5.909   1.031   0.843
 6038TIP3   OH242308   6.885   1.698   1.003
 6038TIP3    H142309   6.899   1.649   0.922
 6038TIP3    H242310   6.877   1.630   1.070
 6039TIP3   OH242311   6.633   1.195   1.094
 6039TIP3    H142312   6.673   1.111   1.069
 6039TIP3    H242313   6.692   1.230   1.161
 6040TIP3   OH242314   7.356   0.352   1.153
 6040TIP3    H142315   7.361   0.397   1.237
 6040TIP3    H242316   7.407   0.407   1.093
 6041TIP3   OH242317   6.905   0.576   1.096
 6041TIP3    H142318   6.929   0.487   1.119
 6041TIP3    H242319   6.898   0.576   1.000
 6042TIP3   OH242320   6.270   0.386   0.847
 6042TIP3    H142321   6.284   0.472   0.808
 6042TIP3    H242322   6.228   0.335   0.777
 6043TIP3   OH242323   7.048   0.463   0.671
 6043TIP3    H142324   7.085   0.444   0.757
 6043TIP3    H242325   7.115   0.514   0.626
 6044TIP3   OH242326   5.924   0.717   0.876
 6044TIP3    H142327   5.984   0.672   0.936
 6044TIP3    H242328   5.936   0.672   0.792
 6045TIP3   OH242329   6.376   0.830   0.863
 6045TIP3    H142330   6.465   0.804   0.883
 6045TIP3    H242331   6.338   0.754   0.818
 6046TIP3   OH242332   7.398   0.478   1.391
 6046TIP3    H142333   7.365   0.565   1.372
 6046TIP3    H242334   7.471   0.493   1.451
 6047TIP3   OH242335   6.117   0.370   1.236
 6047TIP3    H142336   6.074   0.431   1.176
 6047TIP3    H242337   6.062   0.371   1.315
 6048TIP3   OH242338   6.797   1.275   0.594
 6048TIP3    H142339   6.802   1.272   0.498
 6048TIP3    H242340   6.757   1.360   0.613
 6049TIP3   OH242341   6.366   1.144   1.165
 6049TIP3    H142342   6.324   1.222   1.203
 6049TIP3    H242343   6.451   1.175   1.135
 6050TIP3   OH242344   7.132   0.428   0.923
 6050TIP3    H142345   7.153   0.341   0.958
 6050TIP3    H242346   7.178   0.489   0.980
 6051TIP3   OH242347   6.096   0.539   1.009
 6051TIP3    H142348   6.155   0.591   1.065
 6051TIP3    H242349   6.155   0.488   0.953
 6052TIP3   OH242350   6.234   1.348   1.300
 6052TIP3    H142351   6.244   1.442   1.310
 6052TIP3    H242352   6.144   1.330   1.327
 6053TIP3   OH242353   5.808   1.280   0.488
 6053TIP3    H142354   5.790   1.324   0.405
 6053TIP3    H242355   5.834   1.351   0.548
 6054TIP3   OH242356   7.144   1.463   1.116
 6054TIP3    H142357   7.054   1.476   1.144
 6054TIP3    H242358   7.169   1.545   1.073
 6055TIP3   OH242359   7.154   0.184   1.254
 6055TIP3    H142360   7.071   0.224   1.228
 6055TIP3    H242361   7.220   0.232   1.204
 6056TIP3   OH242362   6.506   0.093   0.983
 6056TIP3    H142363   6.489   0.000   0.997
 6056TIP3    H242364   6.433   0.138   1.024
 6057TIP3   OH242365   6.951   1.581   0.760
 6057TIP3    H142366   6.992   1.500   0.729
 6057TIP3    H242367   7.015   1.650   0.740
 6058TIP3   OH242368   7.060   1.355   0.652
 6058TIP3    H142369   6.980   1.304   0.638
 6058TIP3    H242370   7.098   1.318   0.732
 6059TIP3   OH242371   7.275   1.223   1.437
 6059TIP3    H142372   7.260   1.183   1.352
 6059TIP3    H242373   7.309   1.310   1.418
 6060TIP3   OH242374   6.765   0.898   0.396
 6060TIP3    H142375   6.708   0.973   0.376
 6060TIP3    H242376   6.849   0.921   0.356
 6061TIP3   OH242377   6.611   0.718   0.228
 6061TIP3    H142378   6.670   0.767   0.285
 6061TIP3    H242379   6.646   0.629   0.228
 6062TIP3   OH242380   7.412   0.934   1.240
 6062TIP3    H142381   7.343   0.998   1.225
 6062TIP3    H242382   7.478   0.954   1.173
 6063TIP3   OH242383   7.155   1.019   0.550
 6063TIP3    H142384   7.071   1.026   0.596
 6063TIP3    H242385   7.208   0.963   0.606
 6064TIP3   OH242386   7.029   0.755   1.465
 6064TIP3    H142387   7.021   0.831   1.522
 6064TIP3    H242388   6.966   0.772   1.394
 6065TIP3   OH242389   6.275   1.019   0.676
 6065TIP3    H142390   6.245   0.973   0.598
 6065TIP3    H242391   6.321   0.953   0.727
 6066TIP3   OH242392   6.474   1.386   0.972
 6066TIP3    H142393   6.482   1.386   0.877
 6066TIP3    H242394   6.541   1.324   1.002
 6067TIP3   OH242395   6.219   0.933   1.067
 6067TIP3    H142396   6.277   0.901   0.998
 6067TIP3    H242397   6.267   1.006   1.107
 6068TIP3   OH242398   6.889   1.510   1.213
 6068TIP3    H142399   6.882   1.567   1.289
 6068TIP3    H242400   6.848   1.428   1.241
 6069TIP3   OH242401   6.370   1.328   1.546
 6069TIP3    H142402   6.302   1.379   1.590
 6069TIP3    H242403   6.334   1.311   1.459
 6070TIP3   OH242404   7.034   0.920   0.322
 6070TIP3    H142405   7.078   0.952   0.401
 6070TIP3    H242406   7.069   0.974   0.251
 6071TIP3   OH242407   6.017   0.894   1.531
 6071TIP3    H142408   6.039   0.981   1.564
 6071TIP3    H242409   5.923   0.897   1.516
 6072TIP3   OH242410   6.729   1.549   0.598
 6072TIP3    H142411   6.797   1.559   0.664
 6072TIP3    H242412   6.712   1.639   0.568
 6073TIP3   OH242413   6.167   1.502   1.620
 6073TIP3    H142414   6.184   1.549   1.539
 6073TIP3    H242415   6.072   1.509   1.633
 6074TIP3   OH242416   7.323   0.101   0.202
 6074TIP3    H142417   7.283   0.132   0.283
 6074TIP3    H242418   7.407   0.146   0.197
 6075TIP3   OH242419   6.179   0.919   0.436
 6075TIP3    H142420   6.099   0.971   0.420
 6075TIP3    H242421   6.166   0.839   0.386
 6076TIP3   OH242422   7.596   1.516   0.263
 6076TIP3    H142423   7.611   1.611   0.266
 6076TIP3    H242424   7.681   1.479   0.240
 6077TIP3   OH242425   5.749   1.184   1.395
 6077TIP3    H142426   5.693   1.199   1.319
 6077TIP3    H242427   5.760   1.089   1.398
 6078TIP3   OH242428   5.704   1.497   1.120
 6078TIP3    H142429   5.780   1.507   1.178
 6078TIP3    H242430   5.655   1.578   1.131
 6079TIP3   OH242431   7.558   1.613   1.678
 6079TIP3    H142432   7.584   1.521   1.675
 6079TIP3    H242433   7.465   1.611   1.701
 6080TIP3   OH242434   6.602   1.476   1.543
 6080TIP3    H142435   6.585   1.557   1.591
 6080TIP3    H242436   6.519   1.428   1.547
 6081TIP3   OH242437   6.717   1.798   0.484
 6081TIP3    H142438   6.703   1.826   0.393
 6081TIP3    H242439   6.696   1.875   0.536
 6082TIP3   OH242440   6.071   1.685   0.711
 6082TIP3    H142441   6.100   1.663   0.800
 6082TIP3    H242442   6.017   1.611   0.684
 6083TIP3   OH242443   7.006   1.876   0.188
 6083TIP3    H142444   7.015   1.797   0.135
 6083TIP3    H242445   7.009   1.844   0.279
 6084TIP3   OH242446   6.992   1.777   0.446
 6084TIP3    H142447   6.898   1.768   0.463
 6084TIP3    H242448   7.033   1.746   0.527
 6085TIP3   OH242449   7.126   0.614   1.687
 6085TIP3    H142450   7.108   0.656   1.603
 6085TIP3    H242451   7.157   0.526   1.663
 6086TIP3   OH242452   5.985   1.325   1.424
 6086TIP3    H142453   6.019   1.281   1.502
 6086TIP3    H242454   5.901   1.283   1.408
 6087TIP3   OH242455   6.262   0.208   1.066
 6087TIP3    H142456   6.262   0.262   0.986
 6087TIP3    H242457   6.204   0.254   1.125
 6088TIP3   OH242458   6.609   0.137   1.489
 6088TIP3    H142459   6.661   0.056   1.490
 6088TIP3    H242460   6.545   0.123   1.420
 6089TIP3   OH242461   6.951   0.474   1.478
 6089TIP3    H142462   6.918   0.455   1.566
 6089TIP3    H242463   6.963   0.569   1.477
 6090TIP3   OH242464   7.162   1.120   0.179
 6090TIP3    H142465   7.113   1.200   0.160
 6090TIP3    H242466   7.224   1.146   0.248
 6091TIP3   OH242467   6.657   0.442   0.208
 6091TIP3    H142468   6.625   0.394   0.284
 6091TIP3    H242469   6.587   0.436   0.144
 6092TIP3   OH242470   6.247   0.684   1.189
 6092TIP3    H142471   6.187   0.678   1.264
 6092TIP3    H242472   6.242   0.776   1.163
 6093TIP3   OH242473   6.248   0.630   0.722
 6093TIP3    H142474   6.152   0.626   0.712
 6093TIP3    H242475   6.282   0.613   0.634
 6094TIP3   OH242476   6.807   0.686   0.559
 6094TIP3    H142477   6.781   0.765   0.512
 6094TIP3    H242478   6.884   0.653   0.512
 6095TIP3   OH242479   6.691   0.670   1.664
 6095TIP3    H142480   6.643   0.595   1.699
 6095TIP3    H242481   6.771   0.674   1.716
 6096TIP3   OH242482   6.869   0.621   0.820
 6096TIP3    H142483   6.838   0.667   0.742
 6096TIP3    H242484   6.923   0.549   0.787
 6097TIP3   OH242485   6.033   0.668   1.364
 6097TIP3    H142486   6.025   0.729   1.437
 6097TIP3    H242487   5.996   0.586   1.398
 6098TIP3   OH242488   6.397   0.404   0.110
 6098TIP3    H142489   6.349   0.376   0.188
 6098TIP3    H242490   6.330   0.414   0.042
 6099TIP3   OH242491   5.648   0.471   0.793
 6099TIP3    H142492   5.722   0.464   0.853
 6099TIP3    H242493   5.677   0.533   0.726
 6100TIP3   OH242494   5.766   0.493   0.303
 6100TIP3    H142495   5.840   0.534   0.259
 6100TIP3    H242496   5.703   0.564   0.316
 6101TIP3   OH242497   6.835   0.773   1.267
 6101TIP3    H142498   6.867   0.706   1.206
 6101TIP3    H242499   6.761   0.731   1.311
 6102TIP3   OH242500   6.584   0.410   0.825
 6102TIP3    H142501   6.497   0.400   0.864
 6102TIP3    H242502   6.643   0.372   0.889
 6103TIP3   OH242503   5.985   0.567   0.658
 6103TIP3    H142504   5.902   0.578   0.611
 6103TIP3    H242505   6.016   0.480   0.631
 6104TIP3   OH242506   6.318   0.582   0.463
 6104TIP3    H142507   6.411   0.602   0.472
 6104TIP3    H242508   6.288   0.638   0.392
 6105TIP3   OH242509   6.914   0.302   1.163
 6105TIP3    H142510   6.848   0.319   1.231
 6105TIP3    H242511   6.862   0.273   1.088
 6106TIP3   OH242512   6.190   0.710   0.257
 6106TIP3    H142513   6.108   0.677   0.219
 6106TIP3    H242514   6.249   0.721   0.182
 6107TIP3   OH242515   7.275   1.879   1.724
 6107TIP3    H142516   7.292   1.907   1.634
 6107TIP3    H242517   7.350   1.911   1.773
 6108TIP3   OH242518   6.046   1.151   1.645
 6108TIP3    H142519   6.108   1.143   1.718
 6108TIP3    H242520   5.961   1.160   1.686
 6109TIP3   OH242521   6.627   0.728   0.945
 6109TIP3    H142522   6.702   0.680   0.910
 6109TIP3    H242523   6.593   0.670   1.013
 6110TIP3   OH242524   6.123   0.322   0.613
 6110TIP3    H142525   6.058   0.252   0.618
 6110TIP3    H242526   6.170   0.306   0.532
 6111TIP3   OH242527   6.503   0.591   1.154
 6111TIP3    H142528   6.417   0.632   1.168
 6111TIP3    H242529   6.552   0.611   1.234
 6112TIP3   OH242530   6.584   1.103   0.351
 6112TIP3    H142531   6.516   1.065   0.295
 6112TIP3    H242532   6.536   1.150   0.420
 6113TIP3   OH242533   7.226   1.126   1.187
 6113TIP3    H142534   7.278   1.189   1.137
 6113TIP3    H242535   7.156   1.100   1.127
 6114TIP3   OH242536   6.921   0.402   0.295
 6114TIP3    H142537   6.837   0.416   0.250
 6114TIP3    H242538   6.952   0.490   0.316
 6115TIP3   OH242539   6.647   1.161   1.521
 6115TIP3    H142540   6.693   1.112   1.589
 6115TIP3    H242541   6.621   1.243   1.562
 6116TIP3   OH242542   7.019   0.647   0.383
 6116TIP3    H142543   7.103   0.632   0.425
 6116TIP3    H242544   7.024   0.735   0.348
 6117TIP3   OH242545   6.090   1.090   0.869
 6117TIP3    H142546   6.147   1.073   0.795
 6117TIP3    H242547   6.124   1.034   0.939
 6118TIP3   OH242548   6.793   1.279   0.318
 6118TIP3    H142549   6.742   1.359   0.307
 6118TIP3    H242550   6.728   1.209   0.311
 6119TIP3   OH242551   5.740   0.910   1.492
 6119TIP3    H142552   5.701   0.871   1.570
 6119TIP3    H242553   5.669   0.908   1.427
 6120TIP3   OH242554   6.504   0.881   1.682
 6120TIP3    H142555   6.435   0.854   1.621
 6120TIP3    H242556   6.576   0.820   1.666
 6121TIP3   OH242557   6.875   1.439   1.572
 6121TIP3    H142558   6.782   1.447   1.550
 6121TIP3    H242559   6.877   1.447   1.668
 6122TIP3   OH242560   7.422   0.693   0.334
 6122TIP3    H142561   7.388   0.648   0.257
 6122TIP3    H242562   7.470   0.768   0.300
 6123TIP3   OH242563   7.542   1.341   1.650
 6123TIP3    H142564   7.452   1.327   1.682
 6123TIP3    H242565   7.543   1.300   1.563
 6124TIP3   OH242566   7.359   1.489   0.401
 6124TIP3    H142567   7.336   1.396   0.406
 6124TIP3    H242568   7.439   1.491   0.349
 6125TIP3   OH242569   7.028   1.036   1.012
 6125TIP3    H142570   6.935   1.022   1.027
 6125TIP3    H242571   7.058   0.958   0.967
 6126TIP3   OH242572   6.383   1.422   0.708
 6126TIP3    H142573   6.377   1.512   0.676
 6126TIP3    H242574   6.304   1.410   0.761
 6127TIP3   OH242575   5.831   0.874   0.232
 6127TIP3    H142576   5.876   0.943   0.281
 6127TIP3    H242577   5.739   0.899   0.234
 6128TIP3   OH242578   6.404   1.221   0.527
 6128TIP3    H142579   6.413   1.293   0.589
 6128TIP3    H242580   6.359   1.152   0.576
 6129TIP3   OH242581   6.536   1.625   1.315
 6129TIP3    H142582   6.596   1.698   1.302
 6129TIP3    H242583   6.579   1.570   1.381
 6130TIP3   OH242584   6.333   1.679   0.622
 6130TIP3    H142585   6.241   1.697   0.641
 6130TIP3    H242586   6.381   1.752   0.661
 6131TIP3   OH242587   6.795   1.261   1.309
 6131TIP3    H142588   6.732   1.229   1.373
 6131TIP3    H242589   6.880   1.229   1.340
 6132TIP3   OH242590   7.046   1.371   0.254
 6132TIP3    H142591   7.099   1.372   0.334
 6132TIP3    H242592   6.962   1.334   0.281
 6133TIP3   OH242593   7.091   1.587   1.495
 6133TIP3    H142594   7.020   1.529   1.525
 6133TIP3    H242595   7.046   1.659   1.452
 6134TIP3   OH242596   7.624   1.792   0.279
 6134TIP3    H142597   7.687   1.865   0.282
 6134TIP3    H242598   7.539   1.833   0.298
 6135TIP3   OH242599   5.951   0.409   1.456
 6135TIP3    H142600   5.880   0.348   1.434
 6135TIP3    H242601   5.958   0.404   1.551
 6136TIP3   OH242602   7.299   1.209   0.403
 6136TIP3    H142603   7.245   1.160   0.465
 6136TIP3    H242604   7.388   1.176   0.418
 6137TIP3   OH242605   5.911   1.575   1.294
 6137TIP3    H142606   5.942   1.500   1.345
 6137TIP3    H242607   5.926   1.650   1.351
 6138TIP3   OH242608   6.282   1.370   0.321
 6138TIP3    H142609   6.325   1.318   0.389
 6138TIP3    H242610   6.320   1.457   0.329
 6139TIP3   OH242611   5.960   1.079   0.369
 6139TIP3    H142612   5.909   1.129   0.432
 6139TIP3    H242613   5.993   1.145   0.308
 6140TIP3   OH242614   6.733   0.354   1.369
 6140TIP3    H142615   6.812   0.380   1.416
 6140TIP3    H242616   6.694   0.286   1.424
 6141TIP3   OH242617   6.929   0.262   0.531
 6141TIP3    H142618   6.916   0.303   0.446
 6141TIP3    H242619   6.969   0.331   0.585
 6142TIP3   OH242620   6.639   1.503   0.336
 6142TIP3    H142621   6.551   1.539   0.332
 6142TIP3    H242622   6.667   1.518   0.427
 6143TIP3   OH242623   6.571   0.551   0.585
 6143TIP3    H142624   6.652   0.601   0.578
 6143TIP3    H242625   6.573   0.515   0.674
 6144TIP3   OH242626   6.644   0.617   1.391
 6144TIP3    H142627   6.653   0.638   1.484
 6144TIP3    H242628   6.669   0.525   1.384
 6145TIP3   OH242629   6.676   0.222   0.635
 6145TIP3    H142630   6.666   0.290   0.701
 6145TIP3    H242631   6.767   0.232   0.604
 6146TIP3   OH242632   6.385   1.625   0.360
 6146TIP3    H142633   6.405   1.709   0.320
 6146TIP3    H242634   6.375   1.644   0.453
 6147TIP3   OH242635   6.274   0.331   0.363
 6147TIP3    H142636   6.268   0.421   0.395
 6147TIP3    H242637   6.364   0.304   0.383
 6148TIP3   OH242638   7.201   0.382   1.558
 6148TIP3    H142639   7.118   0.386   1.510
 6148TIP3    H242640   7.268   0.402   1.493
 6149TIP3   OH242641   7.095   0.786   0.903
 6149TIP3    H142642   7.015   0.735   0.889
 6149TIP3    H242643   7.147   0.731   0.962
 6150TIP3   OH242644   6.037   1.295   0.210
 6150TIP3    H142645   6.104   1.337   0.265
 6150TIP3    H242646   6.086   1.261   0.136
 6151TIP3   OH242647   5.943   0.645   0.146
 6151TIP3    H142648   5.906   0.728   0.177
 6151TIP3    H242649   5.919   0.640   0.054
 6152TIP3   OH242650   7.230   1.710   1.021
 6152TIP3    H142651   7.196   1.774   0.958
 6152TIP3    H242652   7.318   1.690   0.990
 6153TIP3   OH242653   5.946   0.160   0.897
 6153TIP3    H142654   5.946   0.159   0.802
 6153TIP3    H242655   5.917   0.073   0.923
 6154TIP3   OH242656   5.866   1.511   0.630
 6154TIP3    H142657   5.819   1.541   0.709
 6154TIP3    H242658   5.850   1.580   0.566
 6155TIP3   OH242659   5.746   1.754   1.727
 6155TIP3    H142660   5.803   1.677   1.721
 6155TIP3    H242661   5.659   1.722   1.703
 6156TIP3   OH242662   6.260   1.601   1.861
 6156TIP3    H142663   6.327   1.538   1.890
 6156TIP3    H242664   6.227   1.565   1.779
 6157TIP3   OH242665   6.751   1.640   0.117
 6157TIP3    H142666   6.719   1.578   0.183
 6157TIP3    H242667   6.842   1.617   0.104
 6158TIP3   OH242668   6.890   1.458   1.843
 6158TIP3    H142669   6.896   1.370   1.878
 6158TIP3    H242670   6.970   1.502   1.873
 6159TIP3   OH242671   7.027   1.600   0.100
 6159TIP3    H142672   7.036   1.526   0.160
 6159TIP3    H242673   7.097   1.588   0.036
 6160TIP3   OH242674   5.801   1.150   1.773
 6160TIP3    H142675   5.813   1.056   1.785
 6160TIP3    H242676   5.718   1.158   1.727
 6161TIP3   OH242677   6.271   1.211   0.089
 6161TIP3    H142678   6.308   1.131   0.125
 6161TIP3    H242679   6.294   1.279   0.151
 6162TIP3   OH242680   6.448   1.153   1.748
 6162TIP3    H142681   6.427   1.197   1.666
 6162TIP3    H242682   6.482   1.068   1.722
 6163TIP3   OH242683   7.004   1.207   1.489
 6163TIP3    H142684   7.097   1.225   1.477
 6163TIP3    H242685   6.968   1.289   1.523
 6164TIP3   OH242686   5.859   0.886   1.799
 6164TIP3    H142687   5.929   0.833   1.762
 6164TIP3    H242688   5.858   0.864   1.892
 6165TIP3   OH242689   6.362   0.994   0.234
 6165TIP3    H142690   6.304   0.972   0.307
 6165TIP3    H242691   6.365   0.914   0.182
 6166TIP3   OH242692   6.292   0.804   1.509
 6166TIP3    H142693   6.203   0.835   1.520
 6166TIP3    H242694   6.336   0.873   1.460
 6167TIP3   OH242695   6.390   0.765   0.078
 6167TIP3    H142696   6.421   0.774  -0.012
 6167TIP3    H242697   6.469   0.742   0.128
 6168TIP3   OH242698   6.785   1.042   1.737
 6168TIP3    H142699   6.865   1.001   1.703
 6168TIP3    H242700   6.753   0.981   1.803
 6169TIP3   OH242701   7.360   1.114   9.936
 6169TIP3    H142702   7.353   1.019   9.942
 6169TIP3    H242703   7.453   1.130   9.916
 6170TIP3   OH242704   6.360   0.540   1.576
 6170TIP3    H142705   6.370   0.489   1.495
 6170TIP3    H242706   6.343   0.630   1.546
 6171TIP3   OH242707   6.373   0.406   1.332
 6171TIP3    H142708   6.425   0.450   1.265
 6171TIP3    H242709   6.285   0.404   1.297
 6172TIP3   OH242710   6.433   1.010   1.401
 6172TIP3    H142711   6.510   1.054   1.436
 6172TIP3    H242712   6.415   1.054   1.318
 6173TIP3   OH242713   6.905   0.662   1.846
 6173TIP3    H142714   6.927   0.626   1.932
 6173TIP3    H242715   6.982   0.643   1.792
 6174TIP3   OH242716   7.038   0.977   1.634
 6174TIP3    H142717   7.015   1.055   1.583
 6174TIP3    H242718   7.134   0.978   1.636
 6175TIP3   OH242719   6.197   0.532   1.797
 6175TIP3    H142720   6.116   0.489   1.771
 6175TIP3    H242721   6.249   0.537   1.717
 6176TIP3   OH242722   6.400   0.132   1.302
 6176TIP3    H142723   6.399   0.221   1.337
 6176TIP3    H242724   6.350   0.138   1.220
 6177TIP3   OH242725   6.555   0.452   1.761
 6177TIP3    H142726   6.509   0.424   1.841
 6177TIP3    H242727   6.485   0.467   1.698
 6178TIP3   OH242728   6.840   0.389   1.709
 6178TIP3    H142729   6.751   0.392   1.746
 6178TIP3    H242730   6.894   0.354   1.780
 6179TIP3   OH242731   7.020   0.286   1.909
 6179TIP3    H142732   7.060   0.200   1.896
 6179TIP3    H242733   6.994   0.288   2.001
 6180TIP3   OH242734   5.959   0.387   1.748
 6180TIP3    H142735   5.956   0.294   1.729
 6180TIP3    H242736   5.958   0.393   1.844
 6181TIP3   OH242737   6.466   0.105   1.727
 6181TIP3    H142738   6.443   0.017   1.697
 6181TIP3    H242739   6.521   0.141   1.658
 6182TIP3   OH242740   6.502   0.148   1.998
 6182TIP3    H142741   6.506   0.115   1.908
 6182TIP3    H242742   6.448   0.227   1.992
 6183TIP3   OH242743   6.447   1.878   0.274
 6183TIP3    H142744   6.538   1.893   0.247
 6183TIP3    H242745   6.406   1.964   0.268
 6184TIP3   OH242746   5.769   1.359   0.221
 6184TIP3    H142747   5.864   1.352   0.216
 6184TIP3    H242748   5.737   1.313   0.144
 6185TIP3   OH242749   5.694   1.829   0.709
 6185TIP3    H142750   5.623   1.806   0.648
 6185TIP3    H242751   5.705   1.751   0.763
 6186TIP3   OH242752   5.764   1.615   0.869
 6186TIP3    H142753   5.725   1.550   0.926
 6186TIP3    H242754   5.823   1.665   0.925
 6187TIP3   OH242755   7.601   1.745   1.180
 6187TIP3    H142756   7.566   1.719   1.265
 6187TIP3    H242757   7.607   1.840   1.185
 6188TIP3   OH242758   7.484   1.681   1.420
 6188TIP3    H142759   7.429   1.606   1.395
 6188TIP3    H242760   7.524   1.655   1.503
 6189TIP3   OH242761   7.366   1.321   1.886
 6189TIP3    H142762   7.286   1.308   1.938
 6189TIP3    H242763   7.423   1.373   1.943
 6190TIP3   OH242764   7.548   1.098   0.448
 6190TIP3    H142765   7.622   1.159   0.456
 6190TIP3    H242766   7.551   1.046   0.529
 6191TIP3   OH242767   7.542   0.920   0.658
 6191TIP3    H142768   7.455   0.897   0.691
 6191TIP3    H242769   7.600   0.908   0.733
 6192TIP3   OH242770   7.480   1.260   1.148
 6192TIP3    H142771   7.521   1.188   1.101
 6192TIP3    H242772   7.531   1.337   1.123
 6193TIP3   OH242773   7.301   1.486   1.349
 6193TIP3    H142774   7.226   1.522   1.396
 6193TIP3    H242775   7.268   1.468   1.261
 6194TIP3   OH242776   7.569   0.917   0.246
 6194TIP3    H142777   7.531   0.962   0.170
 6194TIP3    H242778   7.558   0.978   0.318
 6195TIP3   OH242779   7.311   0.570   0.117
 6195TIP3    H142780   7.273   0.605   0.036
 6195TIP3    H242781   7.263   0.489   0.133
 6196TIP3   OH242782   7.283   0.824   0.703
 6196TIP3    H142783   7.274   0.741   0.656
 6196TIP3    H242784   7.222   0.817   0.777
 6197TIP3   OH242785   5.751   1.025   1.106
 6197TIP3    H142786   5.759   1.015   1.011
 6197TIP3    H242787   5.825   0.976   1.141
 6198TIP3   OH242788   7.309   1.007   1.612
 6198TIP3    H142789   7.375   0.945   1.584
 6198TIP3    H242790   7.315   1.079   1.550
 6199TIP3   OH242791   7.480   0.764   1.615
 6199TIP3    H142792   7.427   0.766   1.695
 6199TIP3    H242793   7.516   0.676   1.612
 6200TIP3   OH242794   7.160   0.346   0.151
 6200TIP3    H142795   7.184   0.253   0.149
 6200TIP3    H242796   7.077   0.348   0.198
 6201TIP3   OH242797   7.256   0.594   0.530
 6201TIP3    H142798   7.292   0.506   0.540
 6201TIP3    H242799   7.314   0.637   0.466
 6202TIP3   OH242800   7.266   0.632   1.055
 6202TIP3    H142801   7.359   0.613   1.039
 6202TIP3    H242802   7.262   0.654   1.148
 6203TIP3   OH242803   7.273   0.710   1.321
 6203TIP3    H142804   7.194   0.737   1.368
 6203TIP3    H242805   7.319   0.792   1.303
 6204TIP3   OH242806   5.736   0.547   1.715
 6204TIP3    H142807   5.820   0.501   1.719
 6204TIP3    H242808   5.673   0.479   1.689
 6205TIP3   OH242809   7.625   0.140   1.866
 6205TIP3    H142810   7.712   0.137   1.825
 6205TIP3    H242811   7.570   0.183   1.801
 6206TIP3   OH242812   7.331   0.330   0.551
 6206TIP3    H142813   7.354   0.278   0.629
 6206TIP3    H242814   7.274   0.272   0.500
 6207TIP3   OH242815   5.852   0.407   0.971
 6207TIP3    H142816   5.883   0.319   0.949
 6207TIP3    H242817   5.932   0.458   0.984
 6208TIP3   OH242818   5.718   0.706   1.066
 6208TIP3    H142819   5.772   0.701   0.987
 6208TIP3    H242820   5.774   0.751   1.129
 6209TIP3   OH242821   7.454   0.277   1.697
 6209TIP3    H142822   7.385   0.317   1.749
 6209TIP3    H242823   7.407   0.236   1.624
 6210TIP3   OH242824   7.571   0.227   0.188
 6210TIP3    H142825   7.654   0.179   0.190
 6210TIP3    H242826   7.580   0.289   0.117
 6211TIP3   OH242827   5.731   0.284   0.485
 6211TIP3    H142828   5.641   0.297   0.516
 6211TIP3    H242829   5.750   0.363   0.433
 6212TIP3   OH242830   7.134   1.767   0.687
 6212TIP3    H142831   7.215   1.751   0.639
 6212TIP3    H242832   7.154   1.842   0.743
 6213TIP3   OH242833   5.752   0.222   1.378
 6213TIP3    H142834   5.672   0.212   1.430
 6213TIP3    H242835   5.723   0.261   1.296
 6214TIP3   OH242836   5.895   1.521   1.697
 6214TIP3    H142837   5.811   1.491   1.662
 6214TIP3    H242838   5.900   1.481   1.784
 6215TIP3   OH242839   6.269   1.612   1.381
 6215TIP3    H142840   6.241   1.702   1.368
 6215TIP3    H242841   6.363   1.613   1.365
 6216TIP3   OH242842   6.580   1.721   1.671
 6216TIP3    H142843   6.595   1.681   1.756
 6216TIP3    H242844   6.660   1.770   1.653
 6217TIP3   OH242845   6.813   1.854   1.614
 6217TIP3    H142846   6.864   1.823   1.539
 6217TIP3    H242847   6.878   1.871   1.682
 6218TIP3   OH242848   7.350   0.129   1.466
 6218TIP3    H142849   7.269   0.161   1.425
 6218TIP3    H242850   7.340   0.034   1.467
 6219TIP3   OH242851   5.949   1.832   1.412
 6219TIP3    H142852   5.877   1.880   1.369
 6219TIP3    H242853   5.951   1.867   1.501
 6220TIP3   OH242854   6.210   1.877   1.339
 6220TIP3    H142855   6.117   1.866   1.360
 6220TIP3    H242856   6.210   1.922   1.254
 6221TIP3   OH242857   6.682   1.853   1.251
 6221TIP3    H142858   6.633   1.880   1.173
 6221TIP3    H242859   6.673   1.927   1.311
 6222TIP3   OH242860   6.923   1.767   1.365
 6222TIP3    H142861   6.847   1.796   1.315
 6222TIP3    H242862   6.999   1.805   1.320
 6223TIP3   OH242863   7.164   1.849   1.253
 6223TIP3    H142864   7.176   1.934   1.211
 6223TIP3    H242865   7.187   1.785   1.185
 6224TIP3   OH242866   5.937   1.726   1.058
 6224TIP3    H142867   5.922   1.681   1.142
 6224TIP3    H242868   6.019   1.690   1.026
 6225TIP3   OH242869   6.165   1.615   0.960
 6225TIP3    H142870   6.167   1.520   0.947
 6225TIP3    H242871   6.250   1.636   0.998
 6226TIP3   OH242872   6.420   1.641   1.066
 6226TIP3    H142873   6.444   1.557   1.025
 6226TIP3    H242874   6.455   1.634   1.155
 6227TIP3   OH242875   6.752   0.225   0.951
 6227TIP3    H142876   6.678   0.167   0.967
 6227TIP3    H242877   6.810   0.176   0.894
 6228TIP3   OH242878   7.163   0.143   0.912
 6228TIP3    H142879   7.233   0.136   0.847
 6228TIP3    H242880   7.082   0.145   0.861
 6229TIP3   OH242881   7.364   0.089   0.732
 6229TIP3    H142882   7.392  -0.001   0.720
 6229TIP3    H242883   7.445   0.139   0.738
 6230TIP3   OH242884   5.923   0.137   0.623
 6230TIP3    H142885   5.850   0.178   0.578
 6230TIP3    H242886   5.920   0.046   0.596
 6231TIP3   OH242887   5.807   0.118   0.282
 6231TIP3    H142888   5.897   0.148   0.268
 6231TIP3    H242889   5.777   0.166   0.358
 6232TIP3   OH242890   6.440   0.109   0.715
 6232TIP3    H142891   6.517   0.143   0.671
 6232TIP3    H242892   6.460   0.117   0.808
 6233TIP3   OH242893   6.927   0.091   0.777
 6233TIP3    H142894   6.922   0.110   0.683
 6233TIP3    H242895   6.909  -0.003   0.783
 6234TIP3   OH242896   7.163   0.154   0.423
 6234TIP3    H142897   7.081   0.190   0.455
 6234TIP3    H242898   7.152   0.059   0.430
 6235TIP3   OH242899   5.839   1.702   0.437
 6235TIP3    H142900   5.768   1.684   0.375
 6235TIP3    H242901   5.845   1.797   0.439
 6236TIP3   OH242902   6.068   0.183   0.255
 6236TIP3    H142903   6.106   0.100   0.225
 6236TIP3    H242904   6.142   0.232   0.290
 6237TIP3   OH242905   6.539   0.330   0.427
 6237TIP3    H142906   6.582   0.266   0.485
 6237TIP3    H242907   6.540   0.412   0.477
 6238TIP3   OH242908   6.719   1.889   0.219
 6238TIP3    H142909   6.806   1.924   0.203
 6238TIP3    H242910   6.718   1.805   0.172
 6239TIP3   OH242911   7.356   1.732   0.530
 6239TIP3    H142912   7.354   1.644   0.492
 6239TIP3    H242913   7.370   1.790   0.456
 6240TIP3   OH242914   5.956   0.114   1.709
 6240TIP3    H142915   5.958   0.027   1.669
 6240TIP3    H242916   6.041   0.124   1.750
 6241TIP3   OH242917   6.205   0.159   1.827
 6241TIP3    H142918   6.294   0.182   1.803
 6241TIP3    H242919   6.199   0.065   1.810
 6242TIP3   OH242920   6.113   1.759   0.365
 6242TIP3    H142921   6.037   1.707   0.389
 6242TIP3    H242922   6.183   1.695   0.352
 6243TIP3   OH242923   7.159   0.039   1.889
 6243TIP3    H142924   7.101  -0.034   1.912
 6243TIP3    H242925   7.217   0.003   1.821
 6244TIP3   OH242926   7.282   1.608   1.697
 6244TIP3    H142927   7.221   1.589   1.625
 6244TIP3    H242928   7.272   1.702   1.713
 6245TIP3   OH242929   7.609   0.680   0.537
 6245TIP3    H142930   7.587   0.764   0.579
 6245TIP3    H242931   7.544   0.671   0.467
 6246TIP3   OH242932   7.582   1.218   1.406
 6246TIP3    H142933   7.542   1.235   1.321
 6246TIP3    H242934   7.584   1.123   1.413
 6247TIP3   OH242935   7.650   1.477   1.096
 6247TIP3    H142936   7.744   1.458   1.102
 6247TIP3    H242937   7.641   1.564   1.134
 6248TIP3   OH242938   7.585   0.240   0.715
 6248TIP3    H142939   7.629   0.301   0.774
 6248TIP3    H242940   7.609   0.270   0.627
 6249TIP3   OH242941   7.592   0.942   1.447
 6249TIP3    H142942   7.563   0.875   1.509
 6249TIP3    H242943   7.542   0.925   1.368
 6250TIP3   OH242944   7.663   1.177   1.834
 6250TIP3    H142945   7.589   1.120   1.855
 6250TIP3    H242946   7.628   1.240   1.772
 6251TIP3   OH242947   7.518   1.843   0.723
 6251TIP3    H142948   7.463   1.805   0.655
 6251TIP3    H242949   7.506   1.785   0.798
 6252TIP3   OH242950   7.491   1.670   0.939
 6252TIP3    H142951   7.525   1.581   0.932
 6252TIP3    H242952   7.533   1.706   1.017
 6253TIP3   OH242953   7.600   1.026   1.058
 6253TIP3    H142954   7.599   0.963   0.986
 6253TIP3    H242955   7.692   1.050   1.068
 6254TIP3   OH242956   7.586   0.506   1.599
 6254TIP3    H142957   7.680   0.507   1.620
 6254TIP3    H242958   7.554   0.426   1.640
 6255TIP3   OH242959   7.527   0.538   1.033
 6255TIP3    H142960   7.578   0.501   0.961
 6255TIP3    H242961   7.592   0.582   1.089
 6256TIP3   OH242962   7.590   0.326   0.447
 6256TIP3    H142963   7.503   0.352   0.479
 6256TIP3    H242964   7.575   0.296   0.358
 6257TIP3   OH242965   7.540   0.187   1.274
 6257TIP3    H142966   7.490   0.184   1.356
 6257TIP3    H242967   7.485   0.240   1.216
 6258TIP3   OH242968   1.251   2.918   0.700
 6258TIP3    H142969   1.246   3.010   0.673
 6258TIP3    H242970   1.187   2.873   0.645
 6259TIP3   OH242971   1.048   2.813   1.102
 6259TIP3    H142972   1.109   2.766   1.158
 6259TIP3    H242973   1.019   2.747   1.038
 6260TIP3   OH242974   0.397   2.800   1.185
 6260TIP3    H142975   0.351   2.720   1.209
 6260TIP3    H242976   0.435   2.832   1.267
 6261TIP3   OH242977   1.528   3.145   0.875
 6261TIP3    H142978   1.487   3.062   0.900
 6261TIP3    H242979   1.525   3.197   0.955
 6262TIP3   OH242980   0.464   3.213   0.999
 6262TIP3    H142981   0.422   3.130   0.979
 6262TIP3    H242982   0.554   3.191   1.021
 6263TIP3   OH242983   0.168   2.628   0.583
 6263TIP3    H142984   0.168   2.679   0.664
 6263TIP3    H242985   0.078   2.598   0.574
 6264TIP3   OH242986   0.191   2.756   0.828
 6264TIP3    H142987   0.228   2.677   0.870
 6264TIP3    H242988   0.245   2.828   0.861
 6265TIP3   OH242989   1.223   3.598   0.889
 6265TIP3    H142990   1.277   3.553   0.825
 6265TIP3    H242991   1.207   3.533   0.957
 6266TIP3   OH242992   1.010   3.090   1.059
 6266TIP3    H142993   1.027   2.996   1.050
 6266TIP3    H242994   1.069   3.118   1.129
 6267TIP3   OH242995   1.848   2.186   1.184
 6267TIP3    H142996   1.826   2.263   1.236
 6267TIP3    H242997   1.903   2.220   1.114
 6268TIP3   OH242998   1.251   2.492   1.093
 6268TIP3    H142999   1.263   2.397   1.100
 6268TIP3    H243000   1.234   2.507   1.000
 6269TIP3   OH243001   0.667   2.297   0.837
 6269TIP3    H143002   0.654   2.384   0.801
 6269TIP3    H243003   0.630   2.238   0.772
 6270TIP3   OH243004   1.404   2.329   0.695
 6270TIP3    H143005   1.449   2.295   0.772
 6270TIP3    H243006   1.472   2.369   0.642
 6271TIP3   OH243007   0.282   2.515   0.921
 6271TIP3    H143008   0.357   2.476   0.966
 6271TIP3    H243009   0.277   2.467   0.838
 6272TIP3   OH243010   0.729   2.723   0.883
 6272TIP3    H143011   0.817   2.687   0.890
 6272TIP3    H243012   0.679   2.654   0.840
 6273TIP3   OH243013   1.778   2.374   1.373
 6273TIP3    H143014   1.728   2.454   1.357
 6273TIP3    H243015   1.838   2.397   1.444
 6274TIP3   OH243016   0.483   2.210   1.261
 6274TIP3    H143017   0.461   2.263   1.184
 6274TIP3    H243018   0.411   2.227   1.323
 6275TIP3   OH243019   1.232   3.158   0.563
 6275TIP3    H143020   1.194   3.124   0.482
 6275TIP3    H243021   1.193   3.245   0.573
 6276TIP3   OH243022   0.711   3.055   1.215
 6276TIP3    H143023   0.650   3.108   1.268
 6276TIP3    H243024   0.740   3.115   1.146
 6277TIP3   OH243025   1.502   2.262   0.940
 6277TIP3    H143026   1.422   2.247   0.990
 6277TIP3    H243027   1.549   2.330   0.989
 6278TIP3   OH243028   0.485   2.363   1.032
 6278TIP3    H143029   0.532   2.428   1.084
 6278TIP3    H243030   0.550   2.331   0.970
 6279TIP3   OH243031   0.554   3.233   1.353
 6279TIP3    H143032   0.575   3.326   1.360
 6279TIP3    H243033   0.459   3.229   1.365
 6280TIP3   OH243034   0.047   3.129   0.442
 6280TIP3    H143035   0.050   3.171   0.356
 6280TIP3    H243036   0.075   3.197   0.503
 6281TIP3   OH243037   1.524   3.296   1.110
 6281TIP3    H143038   1.436   3.308   1.145
 6281TIP3    H243039   1.551   3.383   1.081
 6282TIP3   OH243040   1.633   2.021   1.248
 6282TIP3    H143041   1.583   2.011   1.167
 6282TIP3    H243042   1.703   2.082   1.226
 6283TIP3   OH243043   0.848   1.899   1.022
 6283TIP3    H143044   0.827   1.805   1.029
 6283TIP3    H243045   0.767   1.943   1.048
 6284TIP3   OH243046   1.388   3.488   0.696
 6284TIP3    H143047   1.433   3.407   0.672
 6284TIP3    H243048   1.456   3.543   0.735
 6285TIP3   OH243049   1.492   3.246   0.625
 6285TIP3    H143050   1.414   3.198   0.596
 6285TIP3    H243051   1.516   3.204   0.708
 6286TIP3   OH243052   1.620   3.065   1.424
 6286TIP3    H143053   1.602   3.030   1.337
 6286TIP3    H243054   1.653   3.154   1.409
 6287TIP3   OH243055   1.099   2.821   0.478
 6287TIP3    H143056   1.016   2.868   0.475
 6287TIP3    H243057   1.117   2.797   0.387
 6288TIP3   OH243058   1.072   2.669   0.225
 6288TIP3    H143059   1.168   2.676   0.220
 6288TIP3    H243060   1.055   2.575   0.223
 6289TIP3   OH243061   1.754   2.810   1.276
 6289TIP3    H143062   1.690   2.872   1.239
 6289TIP3    H243063   1.824   2.807   1.211
 6290TIP3   OH243064   1.448   2.823   0.529
 6290TIP3    H143065   1.384   2.850   0.596
 6290TIP3    H243066   1.515   2.775   0.578
 6291TIP3   OH243067   1.379   2.663   1.483
 6291TIP3    H143068   1.366   2.736   1.544
 6291TIP3    H243069   1.310   2.675   1.417
 6292TIP3   OH243070   0.549   2.898   0.757
 6292TIP3    H143071   0.505   2.849   0.687
 6292TIP3    H243072   0.615   2.838   0.791
 6293TIP3   OH243073   0.775   3.223   1.005
 6293TIP3    H143074   0.758   3.239   0.912
 6293TIP3    H243075   0.862   3.183   1.007
 6294TIP3   OH243076   0.706   2.786   1.152
 6294TIP3    H143077   0.716   2.774   1.058
 6294TIP3    H243078   0.699   2.881   1.163
 6295TIP3   OH243079   1.283   3.346   1.227
 6295TIP3    H143080   1.253   3.421   1.278
 6295TIP3    H243081   1.227   3.274   1.254
 6296TIP3   OH243082   0.717   3.224   1.585
 6296TIP3    H143083   0.654   3.284   1.627
 6296TIP3    H243084   0.673   3.196   1.505
 6297TIP3   OH243085   1.349   2.747   0.278
 6297TIP3    H143086   1.373   2.781   0.363
 6297TIP3    H243087   1.404   2.794   0.216
 6298TIP3   OH243088   0.478   2.823   1.463
 6298TIP3    H143089   0.496   2.871   1.543
 6298TIP3    H243090   0.387   2.795   1.471
 6299TIP3   OH243091   1.143   3.426   0.572
 6299TIP3    H143092   1.223   3.444   0.622
 6299TIP3    H243093   1.106   3.513   0.555
 6300TIP3   OH243094   0.512   3.391   1.655
 6300TIP3    H143095   0.518   3.438   1.571
 6300TIP3    H243096   0.423   3.354   1.655
 6301TIP3   OH243097   1.688   1.897   0.316
 6301TIP3    H143098   1.602   1.929   0.344
 6301TIP3    H243099   1.737   1.977   0.294
 6302TIP3   OH243100   0.406   2.784   0.542
 6302TIP3    H143101   0.358   2.852   0.493
 6302TIP3    H243102   0.342   2.714   0.555
 6303TIP3   OH243103   1.758   3.378   0.239
 6303TIP3    H143104   1.786   3.469   0.226
 6303TIP3    H243105   1.839   3.327   0.233
 6304TIP3   OH243106   0.177   3.017   1.356
 6304TIP3    H143107   0.086   3.033   1.382
 6304TIP3    H243108   0.199   2.934   1.399
 6305TIP3   OH243109   0.213   3.336   1.057
 6305TIP3    H143110   0.293   3.285   1.046
 6305TIP3    H243111   0.230   3.392   1.132
 6306TIP3   OH243112   1.888   3.455   1.677
 6306TIP3    H143113   1.890   3.359   1.672
 6306TIP3    H243114   1.799   3.475   1.706
 6307TIP3   OH243115   0.968   3.330   1.554
 6307TIP3    H143116   0.957   3.417   1.593
 6307TIP3    H243117   0.882   3.289   1.562
 6308TIP3   OH243118   1.079   3.681   0.486
 6308TIP3    H143119   1.068   3.687   0.391
 6308TIP3    H243120   1.026   3.753   0.521
 6309TIP3   OH243121   0.427   3.591   0.723
 6309TIP3    H143122   0.461   3.566   0.809
 6309TIP3    H243123   0.340   3.552   0.719
 6310TIP3   OH243124   1.359   3.663   0.205
 6310TIP3    H143125   1.402   3.583   0.175
 6310TIP3    H243126   1.375   3.665   0.299
 6311TIP3   OH243127   1.355   3.667   0.483
 6311TIP3    H143128   1.260   3.671   0.487
 6311TIP3    H243129   1.379   3.598   0.544
 6312TIP3   OH243130   1.551   2.542   1.671
 6312TIP3    H143131   1.499   2.581   1.600
 6312TIP3    H243132   1.557   2.449   1.648
 6313TIP3   OH243133   0.284   3.269   1.410
 6313TIP3    H143134   0.267   3.271   1.504
 6313TIP3    H243135   0.244   3.187   1.381
 6314TIP3   OH243136   0.606   2.015   1.100
 6314TIP3    H143137   0.547   2.006   1.025
 6314TIP3    H243138   0.569   2.086   1.152
 6315TIP3   OH243139   1.060   2.020   1.459
 6315TIP3    H143140   1.101   1.968   1.528
 6315TIP3    H243141   0.968   2.027   1.485
 6316TIP3   OH243142   1.316   2.386   1.509
 6316TIP3    H143143   1.241   2.376   1.567
 6316TIP3    H243144   1.324   2.481   1.497
 6317TIP3   OH243145   1.527   2.921   0.145
 6317TIP3    H143146   1.491   2.978   0.077
 6317TIP3    H243147   1.528   2.976   0.224
 6318TIP3   OH243148   0.988   2.394   0.202
 6318TIP3    H143149   0.941   2.333   0.259
 6318TIP3    H243150   0.940   2.391   0.119
 6319TIP3   OH243151   0.582   2.547   1.209
 6319TIP3    H143152   0.498   2.554   1.255
 6319TIP3    H243153   0.605   2.637   1.188
 6320TIP3   OH243154   0.580   2.544   0.743
 6320TIP3    H143155   0.492   2.507   0.739
 6320TIP3    H243156   0.614   2.535   0.654
 6321TIP3   OH243157   1.152   2.573   0.573
 6321TIP3    H143158   1.130   2.661   0.543
 6321TIP3    H243159   1.223   2.544   0.516
 6322TIP3   OH243160   1.037   2.662   1.647
 6322TIP3    H143161   0.978   2.598   1.686
 6322TIP3    H243162   1.124   2.637   1.680
 6323TIP3   OH243163   1.224   2.499   0.822
 6323TIP3    H143164   1.190   2.540   0.743
 6323TIP3    H243165   1.274   2.423   0.790
 6324TIP3   OH243166   0.314   2.555   1.314
 6324TIP3    H143167   0.276   2.614   1.379
 6324TIP3    H243168   0.302   2.467   1.351
 6325TIP3   OH243169   0.671   2.082   0.135
 6325TIP3    H143170   0.641   2.141   0.204
 6325TIP3    H243171   0.591   2.048   0.095
 6326TIP3   OH243172   0.091   2.260   0.811
 6326TIP3    H143173   0.142   2.233   0.887
 6326TIP3    H243174   0.136   2.221   0.737
 6327TIP3   OH243175   0.270   2.412   0.441
 6327TIP3    H143176   0.309   2.434   0.357
 6327TIP3    H243177   0.229   2.493   0.470
 6328TIP3   OH243178   1.177   2.651   1.296
 6328TIP3    H143179   1.217   2.602   1.224
 6328TIP3    H243180   1.110   2.592   1.331
 6329TIP3   OH243181   0.939   2.256   0.804
 6329TIP3    H143182   0.849   2.265   0.836
 6329TIP3    H243183   0.983   2.202   0.870
 6330TIP3   OH243184   0.366   2.377   0.697
 6330TIP3    H143185   0.323   2.392   0.612
 6330TIP3    H243186   0.420   2.300   0.682
 6331TIP3   OH243187   0.679   2.479   0.501
 6331TIP3    H143188   0.772   2.462   0.517
 6331TIP3    H243189   0.676   2.515   0.413
 6332TIP3   OH243190   1.263   2.219   1.069
 6332TIP3    H143191   1.241   2.208   1.161
 6332TIP3    H243192   1.197   2.168   1.022
 6333TIP3   OH243193   0.637   2.565   0.250
 6333TIP3    H143194   0.552   2.546   0.211
 6333TIP3    H243195   0.689   2.600   0.178
 6334TIP3   OH243196   1.610   3.788   1.738
 6334TIP3    H143197   1.633   3.811   1.648
 6334TIP3    H243198   1.681   3.824   1.791
 6335TIP3   OH243199   0.500   2.937   1.715
 6335TIP3    H143200   0.533   2.969   1.799
 6335TIP3    H243201   0.406   2.955   1.717
 6336TIP3   OH243202   0.968   2.592   0.946
 6336TIP3    H143203   1.036   2.542   0.902
 6336TIP3    H243204   0.929   2.531   1.008
 6337TIP3   OH243205   0.536   2.171   0.631
 6337TIP3    H143206   0.480   2.094   0.638
 6337TIP3    H243207   0.561   2.174   0.539
 6338TIP3   OH243208   0.842   2.454   1.153
 6338TIP3    H143209   0.759   2.494   1.178
 6338TIP3    H243210   0.897   2.463   1.230
 6339TIP3   OH243211   0.867   2.957   0.428
 6339TIP3    H143212   0.800   2.896   0.398
 6339TIP3    H243213   0.822   3.014   0.490
 6340TIP3   OH243214   1.571   2.984   1.164
 6340TIP3    H143215   1.608   3.064   1.126
 6340TIP3    H243216   1.506   2.955   1.100
 6341TIP3   OH243217   1.208   2.289   0.336
 6341TIP3    H143218   1.139   2.320   0.277
 6341TIP3    H243219   1.263   2.366   0.351
 6342TIP3   OH243220   1.015   3.030   1.607
 6342TIP3    H143221   1.074   3.016   1.681
 6342TIP3    H243222   1.019   3.125   1.591
 6343TIP3   OH243223   1.358   2.505   0.406
 6343TIP3    H143224   1.447   2.483   0.436
 6343TIP3    H243225   1.371   2.580   0.348
 6344TIP3   OH243226   0.362   2.951   0.957
 6344TIP3    H143227   0.430   2.932   0.892
 6344TIP3    H243228   0.386   2.896   1.032
 6345TIP3   OH243229   1.100   3.095   0.326
 6345TIP3    H143230   1.061   3.182   0.318
 6345TIP3    H243231   1.026   3.037   0.342
 6346TIP3   OH243232   0.207   2.754   1.479
 6346TIP3    H143233   0.216   2.728   1.571
 6346TIP3    H243234   0.113   2.753   1.463
 6347TIP3   OH243235   0.768   2.840   1.710
 6347TIP3    H143236   0.675   2.862   1.714
 6347TIP3    H243237   0.787   2.796   1.792
 6348TIP3   OH243238   1.247   3.337   1.575
 6348TIP3    H143239   1.155   3.339   1.549
 6348TIP3    H243240   1.245   3.352   1.670
 6349TIP3   OH243241   1.766   2.563   0.322
 6349TIP3    H143242   1.696   2.532   0.264
 6349TIP3    H243243   1.775   2.656   0.301
 6350TIP3   OH243244   1.892   3.185   1.637
 6350TIP3    H143245   1.801   3.169   1.658
 6350TIP3    H243246   1.905   3.146   1.551
 6351TIP3   OH243247   1.645   3.431   0.489
 6351TIP3    H143248   1.599   3.356   0.528
 6351TIP3    H243249   1.675   3.399   0.404
 6352TIP3   OH243250   1.409   2.903   0.939
 6352TIP3    H143251   1.341   2.913   0.873
 6352TIP3    H243252   1.435   2.811   0.934
 6353TIP3   OH243253   0.668   3.303   0.763
 6353TIP3    H143254   0.690   3.384   0.717
 6353TIP3    H243255   0.576   3.314   0.787
 6354TIP3   OH243256   0.192   2.713   0.259
 6354TIP3    H143257   0.220   2.794   0.301
 6354TIP3    H243258   0.097   2.712   0.268
 6355TIP3   OH243259   0.690   3.088   0.597
 6355TIP3    H143260   0.694   3.163   0.656
 6355TIP3    H243261   0.639   3.022   0.645
 6356TIP3   OH243262   0.872   3.490   1.334
 6356TIP3    H143263   0.924   3.570   1.322
 6356TIP3    H243264   0.924   3.435   1.392
 6357TIP3   OH243265   0.683   3.544   0.634
 6357TIP3    H143266   0.594   3.576   0.648
 6357TIP3    H243267   0.739   3.612   0.673
 6358TIP3   OH243268   1.145   3.119   1.313
 6358TIP3    H143269   1.072   3.062   1.336
 6358TIP3    H243270   1.215   3.095   1.374
 6359TIP3   OH243271   1.357   3.173   0.230
 6359TIP3    H143272   1.414   3.138   0.299
 6359TIP3    H243273   1.270   3.141   0.254
 6360TIP3   OH243274   1.471   3.481   1.485
 6360TIP3    H143275   1.385   3.444   1.504
 6360TIP3    H243276   1.453   3.551   1.422
 6361TIP3   OH243277   1.850   3.638   0.236
 6361TIP3    H143278   1.924   3.699   0.231
 6361TIP3    H243279   1.775   3.694   0.257
 6362TIP3   OH243280   0.262   2.300   1.414
 6362TIP3    H143281   0.230   2.294   1.504
 6362TIP3    H243282   0.210   2.237   1.366
 6363TIP3   OH243283   1.539   3.040   0.390
 6363TIP3    H143284   1.504   2.970   0.446
 6363TIP3    H243285   1.628   3.053   0.421
 6364TIP3   OH243286   0.257   3.512   1.267
 6364TIP3    H143287   0.266   3.440   1.330
 6364TIP3    H243288   0.260   3.591   1.321
 6365TIP3   OH243289   0.626   3.210   0.352
 6365TIP3    H143290   0.647   3.170   0.437
 6365TIP3    H243291   0.669   3.296   0.355
 6366TIP3   OH243292   0.255   2.954   0.385
 6366TIP3    H143293   0.179   3.002   0.418
 6366TIP3    H243294   0.302   3.017   0.331
 6367TIP3   OH243295   1.187   2.222   1.328
 6367TIP3    H143296   1.244   2.263   1.392
 6367TIP3    H243297   1.146   2.149   1.374
 6368TIP3   OH243298   1.255   2.142   0.556
 6368TIP3    H143299   1.234   2.190   0.476
 6368TIP3    H243300   1.301   2.205   0.611
 6369TIP3   OH243301   0.999   3.345   0.345
 6369TIP3    H143302   0.910   3.379   0.356
 6369TIP3    H243303   1.047   3.376   0.422
 6370TIP3   OH243304   0.934   2.409   0.578
 6370TIP3    H143305   1.010   2.467   0.575
 6370TIP3    H243306   0.941   2.364   0.662
 6371TIP3   OH243307   1.015   2.439   1.367
 6371TIP3    H143308   1.012   2.419   1.461
 6371TIP3    H243309   1.066   2.367   1.329
 6372TIP3   OH243310   0.999   2.060   0.613
 6372TIP3    H143311   0.973   2.128   0.675
 6372TIP3    H243312   1.092   2.077   0.597
 6373TIP3   OH243313   0.751   3.458   0.385
 6373TIP3    H143314   0.767   3.539   0.337
 6373TIP3    H243315   0.729   3.486   0.474
 6374TIP3   OH243316   0.603   2.240   0.364
 6374TIP3    H143317   0.594   2.330   0.397
 6374TIP3    H243318   0.697   2.223   0.368
 6375TIP3   OH243319   1.572   2.290   1.552
 6375TIP3    H143320   1.479   2.298   1.531
 6375TIP3    H243321   1.616   2.302   1.468
 6376TIP3   OH243322   1.464   2.634   0.901
 6376TIP3    H143323   1.381   2.589   0.882
 6376TIP3    H243324   1.507   2.578   0.966
 6377TIP3   OH243325   0.388   3.139   0.225
 6377TIP3    H143326   0.454   3.185   0.277
 6377TIP3    H243327   0.438   3.084   0.166
 6378TIP3   OH243328   0.368   2.514   0.194
 6378TIP3    H143329   0.311   2.590   0.211
 6378TIP3    H243330   0.327   2.471   0.118
 6379TIP3   OH243331   1.600   3.555   1.056
 6379TIP3    H143332   1.588   3.587   0.967
 6379TIP3    H243333   1.686   3.589   1.083
 6380TIP3   OH243334   0.405   1.995   0.912
 6380TIP3    H143335   0.389   1.983   0.819
 6380TIP3    H243336   0.364   1.919   0.954
 6381TIP3   OH243337   0.153   3.350   0.572
 6381TIP3    H143338   0.153   3.393   0.657
 6381TIP3    H243339   0.165   3.421   0.509
 6382TIP3   OH243340   0.081   3.653   1.727
 6382TIP3    H143341   0.140   3.619   1.795
 6382TIP3    H243342   0.028   3.578   1.702
 6383TIP3   OH243343   0.543   3.513   1.898
 6383TIP3    H143344   0.622   3.475   1.937
 6383TIP3    H243345   0.532   3.467   1.815
 6384TIP3   OH243346   1.065   3.441   0.093
 6384TIP3    H143347   1.041   3.397   0.174
 6384TIP3    H243348   1.134   3.387   0.056
 6385TIP3   OH243349   1.231   3.367   1.848
 6385TIP3    H143350   1.231   3.286   1.900
 6385TIP3    H243351   1.307   3.416   1.880
 6386TIP3   OH243352   1.482   3.416   0.169
 6386TIP3    H143353   1.437   3.333   0.184
 6386TIP3    H243354   1.575   3.396   0.185
 6387TIP3   OH243355   0.240   2.995   1.782
 6387TIP3    H143356   0.261   2.933   1.852
 6387TIP3    H243357   0.144   2.995   1.779
 6388TIP3   OH243358   0.629   2.994   0.173
 6388TIP3    H143359   0.629   2.924   0.240
 6388TIP3    H243360   0.648   3.074   0.222
 6389TIP3   OH243361   0.818   3.114   1.817
 6389TIP3    H143362   0.781   3.153   1.737
 6389TIP3    H243363   0.868   3.039   1.786
 6390TIP3   OH243364   1.351   3.091   1.505
 6390TIP3    H143365   1.442   3.099   1.476
 6390TIP3    H243366   1.327   3.180   1.530
 6391TIP3   OH243367   0.273   2.667   1.730
 6391TIP3    H143368   0.351   2.612   1.730
 6391TIP3    H243369   0.280   2.719   1.810
 6392TIP3   OH243370   0.636   2.808   0.381
 6392TIP3    H143371   0.562   2.801   0.441
 6392TIP3    H243372   0.640   2.723   0.338
 6393TIP3   OH243373   0.735   2.727   1.419
 6393TIP3    H143374   0.647   2.757   1.442
 6393TIP3    H243375   0.741   2.741   1.325
 6394TIP3   OH243376   0.819   2.706   0.100
 6394TIP3    H143377   0.806   2.797   0.074
 6394TIP3    H243378   0.906   2.705   0.138
 6395TIP3   OH243379   1.167   2.938   1.815
 6395TIP3    H143380   1.248   2.910   1.771
 6395TIP3    H243381   1.143   2.863   1.869
 6396TIP3   OH243382   1.631   2.767   9.975
 6396TIP3    H143383   1.703   2.829   9.965
 6396TIP3    H243384   1.553   2.816   9.949
 6397TIP3   OH243385   0.700   2.478   1.542
 6397TIP3    H143386   0.712   2.406   1.479
 6397TIP3    H243387   0.713   2.557   1.490
 6398TIP3   OH243388   0.731   2.276   1.351
 6398TIP3    H143389   0.777   2.302   1.272
 6398TIP3    H243390   0.643   2.253   1.322
 6399TIP3   OH243391   0.934   2.931   1.323
 6399TIP3    H143392   0.969   2.888   1.245
 6399TIP3    H243393   0.858   2.979   1.291
 6400TIP3   OH243394   1.278   2.562   1.785
 6400TIP3    H143395   1.269   2.480   1.834
 6400TIP3    H243396   1.372   2.570   1.768
 6401TIP3   OH243397   1.401   2.878   1.669
 6401TIP3    H143398   1.375   2.953   1.615
 6401TIP3    H243399   1.495   2.871   1.655
 6402TIP3   OH243400   0.491   2.490   1.726
 6402TIP3    H143401   0.465   2.398   1.736
 6402TIP3    H243402   0.559   2.489   1.660
 6403TIP3   OH243403   0.784   2.034   1.473
 6403TIP3    H143404   0.771   2.123   1.440
 6403TIP3    H243405   0.716   1.982   1.431
 6404TIP3   OH243406   0.848   2.474   1.771
 6404TIP3    H143407   0.802   2.413   1.828
 6404TIP3    H243408   0.793   2.478   1.692
 6405TIP3   OH243409   1.058   2.350   1.626
 6405TIP3    H143410   0.988   2.370   1.688
 6405TIP3    H243411   1.103   2.275   1.664
 6406TIP3   OH243412   1.235   2.180   1.742
 6406TIP3    H143413   1.248   2.088   1.766
 6406TIP3    H243414   1.260   2.229   1.820
 6407TIP3   OH243415   0.447   2.217   1.772
 6407TIP3    H143416   0.417   2.157   1.703
 6407TIP3    H243417   0.413   2.179   1.853
 6408TIP3   OH243418   0.764   1.924   1.721
 6408TIP3    H143419   0.813   1.843   1.710
 6408TIP3    H243420   0.765   1.965   1.634
 6409TIP3   OH243421   0.905   2.132   1.838
 6409TIP3    H143422   0.864   2.053   1.800
 6409TIP3    H243423   0.831   2.190   1.857
 6410TIP3   OH243424   0.815   3.699   0.271
 6410TIP3    H143425   0.906   3.702   0.241
 6410TIP3    H243426   0.772   3.773   0.228
 6411TIP3   OH243427   0.130   3.245   0.198
 6411TIP3    H143428   0.221   3.221   0.212
 6411TIP3    H243429   0.114   3.226   0.105
 6412TIP3   OH243430   0.101   3.713   0.660
 6412TIP3    H143431   0.015   3.755   0.663
 6412TIP3    H243432   0.094   3.639   0.721
 6413TIP3   OH243433   0.183   3.487   0.820
 6413TIP3    H143434   0.175   3.410   0.876
 6413TIP3    H243435   0.199   3.559   0.882
 6414TIP3   OH243436   1.837   3.640   1.170
 6414TIP3    H143437   1.831   3.617   1.263
 6414TIP3    H243438   1.891   3.720   1.169
 6415TIP3   OH243439   1.806   3.548   1.426
 6415TIP3    H143440   1.763   3.466   1.400
 6415TIP3    H243441   1.851   3.527   1.508
 6416TIP3   OH243442   1.701   3.200   1.849
 6416TIP3    H143443   1.619   3.196   1.898
 6416TIP3    H243444   1.752   3.268   1.892
 6417TIP3   OH243445   1.804   3.001   0.463
 6417TIP3    H143446   1.873   3.066   0.471
 6417TIP3    H243447   1.825   2.935   0.529
 6418TIP3   OH243448   1.868   2.804   0.644
 6418TIP3    H143449   1.786   2.765   0.674
 6418TIP3    H243450   1.919   2.818   0.724
 6419TIP3   OH243451   1.852   3.120   1.155
 6419TIP3    H143452   1.877   3.083   1.070
 6419TIP3    H243453   1.869   3.214   1.146
 6420TIP3   OH243454   1.656   3.327   1.356
 6420TIP3    H143455   1.587   3.377   1.400
 6420TIP3    H243456   1.624   3.315   1.266
 6421TIP3   OH243457   1.774   2.828   0.250
 6421TIP3    H143458   1.697   2.852   0.199
 6421TIP3    H243459   1.779   2.894   0.319
 6422TIP3   OH243460   1.563   2.471   0.169
 6422TIP3    H143461   1.507   2.488   0.094
 6422TIP3    H243462   1.563   2.376   0.178
 6423TIP3   OH243463   1.625   2.674   0.682
 6423TIP3    H143464   1.625   2.587   0.641
 6423TIP3    H243465   1.576   2.662   0.764
 6424TIP3   OH243466   0.103   2.975   1.084
 6424TIP3    H143467   0.181   2.979   1.029
 6424TIP3    H243468   0.136   2.987   1.173
 6425TIP3   OH243469   1.671   2.872   1.615
 6425TIP3    H143470   1.725   2.799   1.584
 6425TIP3    H243471   1.668   2.932   1.541
 6426TIP3   OH243472   1.814   2.618   1.611
 6426TIP3    H143473   1.728   2.598   1.647
 6426TIP3    H243474   1.866   2.539   1.625
 6427TIP3   OH243475   1.577   2.202   0.197
 6427TIP3    H143476   1.664   2.163   0.202
 6427TIP3    H243477   1.517   2.130   0.217
 6428TIP3   OH243478   1.608   2.440   0.523
 6428TIP3    H143479   1.632   2.347   0.523
 6428TIP3    H243480   1.669   2.480   0.460
 6429TIP3   OH243481   1.609   2.476   1.077
 6429TIP3    H143482   1.703   2.489   1.060
 6429TIP3    H243483   1.598   2.503   1.168
 6430TIP3   OH243484   1.608   2.586   1.336
 6430TIP3    H143485   1.526   2.616   1.377
 6430TIP3    H243486   1.657   2.666   1.318
 6431TIP3   OH243487   0.156   2.254   1.670
 6431TIP3    H143488   0.178   2.303   1.750
 6431TIP3    H243489   0.180   2.164   1.690
 6432TIP3   OH243490   1.804   1.993   1.886
 6432TIP3    H143491   1.891   1.953   1.889
 6432TIP3    H243492   1.809   2.056   1.814
 6433TIP3   OH243493   1.656   2.169   0.535
 6433TIP3    H143494   1.665   2.124   0.619
 6433TIP3    H243495   1.592   2.117   0.486
 6434TIP3   OH243496   0.260   2.195   1.025
 6434TIP3    H143497   0.306   2.120   0.987
 6434TIP3    H243498   0.323   2.266   1.022
 6435TIP3   OH243499   0.095   2.520   1.126
 6435TIP3    H143500   0.146   2.512   1.045
 6435TIP3    H243501   0.161   2.529   1.195
 6436TIP3   OH243502   1.780   2.141   1.650
 6436TIP3    H143503   1.699   2.188   1.631
 6436TIP3    H243504   1.778   2.066   1.589
 6437TIP3   OH243505   1.841   2.115   0.244
 6437TIP3    H143506   1.911   2.065   0.287
 6437TIP3    H243507   1.876   2.204   0.239
 6438TIP3   OH243508   0.157   2.173   0.540
 6438TIP3    H143509   0.063   2.185   0.528
 6438TIP3    H243510   0.197   2.249   0.498
 6439TIP3   OH243511   1.568   3.665   0.805
 6439TIP3    H143512   1.619   3.684   0.726
 6439TIP3    H243513   1.560   3.750   0.849
 6440TIP3   OH243514   0.147   2.099   1.266
 6440TIP3    H143515   0.056   2.069   1.257
 6440TIP3    H243516   0.172   2.126   1.178
 6441TIP3   OH243517   0.266   3.259   1.686
 6441TIP3    H143518   0.224   3.303   1.760
 6441TIP3    H243519   0.266   3.166   1.709
 6442TIP3   OH243520   0.605   3.497   1.408
 6442TIP3    H143521   0.577   3.585   1.383
 6442TIP3    H243522   0.699   3.496   1.393
 6443TIP3   OH243523   0.946   3.588   1.649
 6443TIP3    H143524   0.953   3.567   1.742
 6443TIP3    H243525   1.022   3.643   1.631
 6444TIP3   OH243526   1.173   3.733   1.611
 6444TIP3    H143527   1.225   3.682   1.549
 6444TIP3    H243528   1.231   3.747   1.686
 6445TIP3   OH243529   1.747   1.924   1.479
 6445TIP3    H143530   1.694   1.952   1.405
 6445TIP3    H243531   1.767   1.832   1.460
 6446TIP3   OH243532   0.279   3.772   1.379
 6446TIP3    H143533   0.225   3.840   1.338
 6446TIP3    H243534   0.278   3.793   1.472
 6447TIP3   OH243535   0.549   3.754   1.327
 6447TIP3    H143536   0.456   3.763   1.347
 6447TIP3    H243537   0.559   3.793   1.240
 6448TIP3   OH243538   1.006   3.721   1.258
 6448TIP3    H143539   0.955   3.746   1.181
 6448TIP3    H243540   1.015   3.802   1.309
 6449TIP3   OH243541   1.226   3.591   1.355
 6449TIP3    H143542   1.150   3.636   1.318
 6449TIP3    H243543   1.301   3.634   1.314
 6450TIP3   OH243544   1.471   3.678   1.270
 6450TIP3    H143545   1.509   3.765   1.263
 6450TIP3    H243546   1.505   3.631   1.194
 6451TIP3   OH243547   0.289   3.646   1.024
 6451TIP3    H143548   0.259   3.620   1.111
 6451TIP3    H243549   0.369   3.595   1.010
 6452TIP3   OH243550   0.506   3.487   0.968
 6452TIP3    H143551   0.486   3.395   0.986
 6452TIP3    H243552   0.591   3.502   1.008
 6453TIP3   OH243553   0.756   3.493   1.084
 6453TIP3    H143554   0.773   3.404   1.052
 6453TIP3    H243555   0.790   3.493   1.173
 6454TIP3   OH243556   1.063   2.063   0.955
 6454TIP3    H143557   0.994   2.001   0.980
 6454TIP3    H243558   1.132   2.009   0.917
 6455TIP3   OH243559   1.505   1.990   1.008
 6455TIP3    H143560   1.532   2.070   0.962
 6455TIP3    H243561   1.418   1.970   0.973
 6456TIP3   OH243562   1.699   2.032   0.771
 6456TIP3    H143563   1.767   1.965   0.762
 6456TIP3    H243564   1.746   2.109   0.802
 6457TIP3   OH243565   0.338   1.984   0.644
 6457TIP3    H143566   0.267   2.033   0.604
 6457TIP3    H243567   0.333   1.897   0.604
 6458TIP3   OH243568   0.132   1.999   0.310
 6458TIP3    H143569   0.204   2.043   0.266
 6458TIP3    H243570   0.115   2.052   0.388
 6459TIP3   OH243571   0.810   1.882   0.733
 6459TIP3    H143572   0.873   1.938   0.688
 6459TIP3    H243573   0.832   1.891   0.826
 6460TIP3   OH243574   1.276   1.914   0.869
 6460TIP3    H143575   1.337   1.894   0.798
 6460TIP3    H243576   1.248   1.829   0.901
 6461TIP3   OH243577   1.458   1.999   0.429
 6461TIP3    H143578   1.387   2.051   0.467
 6461TIP3    H243579   1.429   1.908   0.437
 6462TIP3   OH243580   0.178   3.591   0.428
 6462TIP3    H143581   0.106   3.607   0.368
 6462TIP3    H243582   0.156   3.641   0.506
 6463TIP3   OH243583   0.373   2.124   0.247
 6463TIP3    H143584   0.411   2.037   0.259
 6463TIP3    H243585   0.435   2.183   0.289
 6464TIP3   OH243586   0.875   2.219   0.393
 6464TIP3    H143587   0.911   2.137   0.426
 6464TIP3    H243588   0.900   2.284   0.458
 6465TIP3   OH243589   1.083   3.688   0.206
 6465TIP3    H143590   1.177   3.705   0.198
 6465TIP3    H243591   1.069   3.608   0.155
 6466TIP3   OH243592   1.703   3.684   0.562
 6466TIP3    H143593   1.682   3.595   0.535
 6466TIP3    H243594   1.698   3.736   0.482
 6467TIP3   OH243595   0.273   1.977   1.692
 6467TIP3    H143596   0.196   1.925   1.715
 6467TIP3    H243597   0.345   1.935   1.738
 6468TIP3   OH243598   0.516   1.867   1.829
 6468TIP3    H143599   0.598   1.896   1.789
 6468TIP3    H243600   0.535   1.778   1.859
 6469TIP3   OH243601   0.428   3.687   0.346
 6469TIP3    H143602   0.343   3.650   0.372
 6469TIP3    H243603   0.486   3.611   0.342
 6470TIP3   OH243604   1.395   1.774   1.798
 6470TIP3    H143605   1.419   1.714   1.869
 6470TIP3    H243606   1.479   1.801   1.760
 6471TIP3   OH243607   1.623   3.515   1.714
 6471TIP3    H143608   1.571   3.498   1.636
 6471TIP3    H243609   1.615   3.610   1.728
 6472TIP3   OH243610   3.080   2.910   0.719
 6472TIP3    H143611   3.060   3.002   0.701
 6472TIP3    H243612   3.047   2.863   0.643
 6473TIP3   OH243613   3.026   2.890   0.987
 6473TIP3    H143614   3.007   2.797   0.998
 6473TIP3    H243615   3.041   2.900   0.893
 6474TIP3   OH243616   2.224   2.800   1.209
 6474TIP3    H143617   2.245   2.814   1.301
 6474TIP3    H243618   2.302   2.828   1.162
 6475TIP3   OH243619   3.438   3.154   0.927
 6475TIP3    H143620   3.386   3.079   0.955
 6475TIP3    H243621   3.408   3.226   0.983
 6476TIP3   OH243622   2.399   3.215   0.905
 6476TIP3    H143623   2.351   3.133   0.893
 6476TIP3    H243624   2.477   3.190   0.953
 6477TIP3   OH243625   1.961   2.570   0.525
 6477TIP3    H143626   1.944   2.655   0.564
 6477TIP3    H243627   1.900   2.565   0.452
 6478TIP3   OH243628   2.052   2.823   0.854
 6478TIP3    H143629   2.083   2.733   0.862
 6478TIP3    H243630   2.132   2.875   0.847
 6479TIP3   OH243631   3.101   3.598   1.017
 6479TIP3    H143632   3.122   3.557   0.934
 6479TIP3    H243633   3.091   3.525   1.078
 6480TIP3   OH243634   2.855   3.057   1.131
 6480TIP3    H143635   2.909   3.000   1.077
 6480TIP3    H243636   2.916   3.099   1.191
 6481TIP3   OH243637   3.708   2.186   1.201
 6481TIP3    H143638   3.692   2.252   1.268
 6481TIP3    H243639   3.781   2.220   1.149
 6482TIP3   OH243640   3.107   2.518   1.042
 6482TIP3    H143641   3.108   2.426   1.068
 6482TIP3    H243642   3.073   2.518   0.953
 6483TIP3   OH243643   2.469   2.263   0.802
 6483TIP3    H143644   2.464   2.350   0.763
 6483TIP3    H243645   2.408   2.210   0.752
 6484TIP3   OH243646   3.262   2.367   0.740
 6484TIP3    H143647   3.296   2.335   0.824
 6484TIP3    H243648   3.338   2.402   0.695
 6485TIP3   OH243649   2.113   2.555   0.895
 6485TIP3    H143650   2.175   2.502   0.946
 6485TIP3    H243651   2.116   2.517   0.808
 6486TIP3   OH243652   2.576   2.676   0.858
 6486TIP3    H143653   2.650   2.619   0.880
 6486TIP3    H243654   2.517   2.620   0.808
 6487TIP3   OH243655   3.656   2.353   1.417
 6487TIP3    H143656   3.615   2.439   1.408
 6487TIP3    H243657   3.728   2.367   1.478
 6488TIP3   OH243658   2.338   2.229   1.239
 6488TIP3    H143659   2.298   2.278   1.167
 6488TIP3    H243660   2.275   2.236   1.311
 6489TIP3   OH243661   3.011   3.152   0.619
 6489TIP3    H143662   3.030   3.146   0.525
 6489TIP3    H243663   2.993   3.245   0.634
 6490TIP3   OH243664   2.600   2.982   1.241
 6490TIP3    H143665   2.553   3.062   1.264
 6490TIP3    H243666   2.685   3.012   1.210
 6491TIP3   OH243667   3.356   2.287   0.987
 6491TIP3    H143668   3.398   2.201   0.996
 6491TIP3    H243669   3.415   2.347   1.032
 6492TIP3   OH243670   2.302   2.372   1.001
 6492TIP3    H143671   2.356   2.437   1.046
 6492TIP3    H243672   2.361   2.331   0.938
 6493TIP3   OH243673   2.447   3.201   1.335
 6493TIP3    H143674   2.465   3.294   1.322
 6493TIP3    H243675   2.355   3.198   1.362
 6494TIP3   OH243676   2.020   3.171   0.475
 6494TIP3    H143677   2.011   3.215   0.390
 6494TIP3    H243678   2.048   3.241   0.534
 6495TIP3   OH243679   3.360   3.373   1.076
 6495TIP3    H143680   3.271   3.381   1.109
 6495TIP3    H243681   3.383   3.461   1.045
 6496TIP3   OH243682   3.461   2.046   1.304
 6496TIP3    H143683   3.425   2.127   1.338
 6496TIP3    H243684   3.518   2.072   1.232
 6497TIP3   OH243685   2.682   1.900   1.028
 6497TIP3    H143686   2.658   1.807   1.030
 6497TIP3    H243687   2.599   1.946   1.044
 6498TIP3   OH243688   3.192   3.485   0.784
 6498TIP3    H143689   3.236   3.404   0.759
 6498TIP3    H243690   3.256   3.554   0.766
 6499TIP3   OH243691   3.333   3.269   0.703
 6499TIP3    H143692   3.373   3.228   0.626
 6499TIP3    H243693   3.377   3.228   0.778
 6500TIP3   OH243694   3.523   3.128   1.426
 6500TIP3    H143695   3.518   3.069   1.350
 6500TIP3    H243696   3.538   3.215   1.388
 6501TIP3   OH243697   3.002   2.818   0.470
 6501TIP3    H143698   2.935   2.874   0.431
 6501TIP3    H243699   3.079   2.831   0.415
 6502TIP3   OH243700   2.914   2.556   0.197
 6502TIP3    H143701   3.005   2.571   0.222
 6502TIP3    H243702   2.907   2.461   0.190
 6503TIP3   OH243703   3.647   2.798   1.337
 6503TIP3    H143704   3.595   2.862   1.288
 6503TIP3    H243705   3.730   2.794   1.290
 6504TIP3   OH243706   3.340   2.888   0.607
 6504TIP3    H143707   3.262   2.898   0.662
 6504TIP3    H243708   3.396   2.829   0.657
 6505TIP3   OH243709   3.254   2.691   1.433
 6505TIP3    H143710   3.251   2.764   1.495
 6505TIP3    H243711   3.190   2.714   1.366
 6506TIP3   OH243712   2.500   2.888   0.676
 6506TIP3    H143713   2.466   2.850   0.595
 6506TIP3    H243714   2.541   2.814   0.721
 6507TIP3   OH243715   2.667   3.211   0.991
 6507TIP3    H143716   2.691   3.219   0.899
 6507TIP3    H243717   2.738   3.161   1.031
 6508TIP3   OH243718   2.460   2.821   1.064
 6508TIP3    H143719   2.514   2.781   0.996
 6508TIP3    H243720   2.520   2.876   1.114
 6509TIP3   OH243721   3.116   3.394   1.208
 6509TIP3    H143722   3.105   3.455   1.280
 6509TIP3    H243723   3.081   3.311   1.241
 6510TIP3   OH243724   2.607   3.222   1.561
 6510TIP3    H143725   2.549   3.287   1.599
 6510TIP3    H243726   2.561   3.193   1.482
 6511TIP3   OH243727   3.258   2.808   0.355
 6511TIP3    H143728   3.294   2.837   0.439
 6511TIP3    H243729   3.314   2.850   0.289
 6512TIP3   OH243730   2.245   2.799   1.488
 6512TIP3    H143731   2.258   2.847   1.570
 6512TIP3    H243732   2.150   2.798   1.476
 6513TIP3   OH243733   2.980   3.431   0.616
 6513TIP3    H143734   3.047   3.444   0.683
 6513TIP3    H243735   2.960   3.519   0.583
 6514TIP3   OH243736   2.431   3.419   1.627
 6514TIP3    H143737   2.445   3.452   1.538
 6514TIP3    H243738   2.336   3.413   1.635
 6515TIP3   OH243739   3.557   1.947   0.331
 6515TIP3    H143740   3.479   1.986   0.372
 6515TIP3    H243741   3.599   2.020   0.286
 6516TIP3   OH243742   2.396   2.803   0.435
 6516TIP3    H143743   2.319   2.857   0.418
 6516TIP3    H243744   2.379   2.721   0.389
 6517TIP3   OH243745   3.666   3.366   0.206
 6517TIP3    H143746   3.690   3.458   0.197
 6517TIP3    H243747   3.750   3.319   0.207
 6518TIP3   OH243748   1.972   3.072   1.401
 6518TIP3    H143749   1.928   3.083   1.317
 6518TIP3    H243750   1.977   2.977   1.413
 6519TIP3   OH243751   1.930   3.384   1.125
 6519TIP3    H143752   2.008   3.398   1.179
 6519TIP3    H243753   1.882   3.466   1.131
 6520TIP3   OH243754   3.747   3.361   1.626
 6520TIP3    H143755   3.744   3.265   1.626
 6520TIP3    H243756   3.666   3.387   1.671
 6521TIP3   OH243757   2.850   3.343   1.533
 6521TIP3    H143758   2.841   3.424   1.583
 6521TIP3    H243759   2.763   3.302   1.539
 6522TIP3   OH243760   2.960   3.675   0.495
 6522TIP3    H143761   2.954   3.684   0.400
 6522TIP3    H243762   2.927   3.758   0.529
 6523TIP3   OH243763   2.295   3.572   0.698
 6523TIP3    H143764   2.318   3.544   0.787
 6523TIP3    H243765   2.237   3.504   0.666
 6524TIP3   OH243766   3.234   3.629   0.201
 6524TIP3    H143767   3.287   3.555   0.171
 6524TIP3    H243768   3.251   3.635   0.295
 6525TIP3   OH243769   3.237   3.659   0.476
 6525TIP3    H143770   3.143   3.651   0.493
 6525TIP3    H243771   3.278   3.646   0.561
 6526TIP3   OH243772   3.340   2.565   1.796
 6526TIP3    H143773   3.355   2.648   1.842
 6526TIP3    H243774   3.418   2.513   1.816
 6527TIP3   OH243775   2.189   3.247   1.440
 6527TIP3    H143776   2.179   3.277   1.530
 6527TIP3    H243777   2.117   3.186   1.427
 6528TIP3   OH243778   2.437   2.021   1.081
 6528TIP3    H143779   2.359   2.006   1.026
 6528TIP3    H243780   2.414   2.097   1.134
 6529TIP3   OH243781   2.888   2.043   1.416
 6529TIP3    H143782   2.931   2.034   1.502
 6529TIP3    H243783   2.795   2.036   1.435
 6530TIP3   OH243784   3.226   2.457   1.569
 6530TIP3    H143785   3.264   2.485   1.652
 6530TIP3    H243786   3.228   2.536   1.514
 6531TIP3   OH243787   3.430   2.938   0.173
 6531TIP3    H143788   3.435   2.948   0.078
 6531TIP3    H243789   3.394   3.021   0.204
 6532TIP3   OH243790   2.865   2.284   0.179
 6532TIP3    H143791   2.828   2.222   0.243
 6532TIP3    H243792   2.795   2.296   0.115
 6533TIP3   OH243793   2.424   2.557   1.162
 6533TIP3    H143794   2.375   2.550   1.243
 6533TIP3    H243795   2.409   2.647   1.132
 6534TIP3   OH243796   2.418   2.514   0.702
 6534TIP3    H143797   2.323   2.504   0.695
 6534TIP3    H243798   2.450   2.489   0.616
 6535TIP3   OH243799   2.986   2.553   0.522
 6535TIP3    H143800   2.976   2.647   0.508
 6535TIP3    H243801   3.051   2.526   0.458
 6536TIP3   OH243802   2.846   2.591   1.671
 6536TIP3    H143803   2.792   2.520   1.706
 6536TIP3    H243804   2.923   2.593   1.727
 6537TIP3   OH243805   3.022   2.495   0.786
 6537TIP3    H143806   2.999   2.528   0.699
 6537TIP3    H243807   3.103   2.446   0.773
 6538TIP3   OH243808   2.306   2.522   1.411
 6538TIP3    H143809   2.259   2.598   1.446
 6538TIP3    H243810   2.251   2.447   1.434
 6539TIP3   OH243811   2.615   2.321   0.055
 6539TIP3    H143812   2.564   2.280   0.125
 6539TIP3    H243813   2.577   2.287  -0.026
 6540TIP3   OH243814   1.867   2.242   0.807
 6540TIP3    H143815   1.938   2.248   0.872
 6540TIP3    H243816   1.911   2.255   0.723
 6541TIP3   OH243817   1.957   2.364   0.280
 6541TIP3    H143818   2.036   2.404   0.245
 6541TIP3    H243819   1.894   2.436   0.285
 6542TIP3   OH243820   3.044   2.680   1.253
 6542TIP3    H143821   3.073   2.634   1.174
 6542TIP3    H243822   3.005   2.612   1.307
 6543TIP3   OH243823   2.750   2.241   0.790
 6543TIP3    H143824   2.656   2.226   0.800
 6543TIP3    H243825   2.791   2.183   0.854
 6544TIP3   OH243826   2.159   2.432   0.658
 6544TIP3    H143827   2.090   2.466   0.600
 6544TIP3    H243828   2.169   2.340   0.632
 6545TIP3   OH243829   2.511   2.420   0.464
 6545TIP3    H143830   2.606   2.427   0.469
 6545TIP3    H243831   2.485   2.485   0.399
 6546TIP3   OH243832   3.090   2.239   1.071
 6546TIP3    H143833   3.035   2.178   1.021
 6546TIP3    H243834   3.177   2.231   1.032
 6547TIP3   OH243835   2.397   2.581   0.274
 6547TIP3    H143836   2.318   2.554   0.228
 6547TIP3    H243837   2.464   2.585   0.206
 6548TIP3   OH243838   3.527   3.756   1.720
 6548TIP3    H143839   3.550   3.790   1.634
 6548TIP3    H243840   3.598   3.785   1.778
 6549TIP3   OH243841   2.247   2.924   1.736
 6549TIP3    H143842   2.320   2.953   1.791
 6549TIP3    H243843   2.171   2.971   1.771
 6550TIP3   OH243844   2.777   2.490   0.927
 6550TIP3    H143845   2.864   2.508   0.890
 6550TIP3    H243846   2.754   2.404   0.891
 6551TIP3   OH243847   2.265   2.163   0.640
 6551TIP3    H143848   2.212   2.091   0.674
 6551TIP3    H243849   2.288   2.135   0.551
 6552TIP3   OH243850   2.690   2.520   1.213
 6552TIP3    H143851   2.599   2.536   1.187
 6552TIP3    H243852   2.738   2.514   1.130
 6553TIP3   OH243853   2.812   2.982   0.361
 6553TIP3    H143854   2.749   2.936   0.306
 6553TIP3    H243855   2.759   3.031   0.424
 6554TIP3   OH243856   3.512   2.983   1.195
 6554TIP3    H143857   3.577   3.026   1.140
 6554TIP3    H243858   3.438   2.966   1.136
 6555TIP3   OH243859   3.081   2.294   0.357
 6555TIP3    H143860   3.019   2.279   0.286
 6555TIP3    H243861   3.126   2.375   0.331
 6556TIP3   OH243862   2.910   3.053   1.547
 6556TIP3    H143863   2.948   3.018   1.628
 6556TIP3    H243864   2.879   3.140   1.571
 6557TIP3   OH243865   3.183   2.549   0.307
 6557TIP3    H143866   3.266   2.517   0.271
 6557TIP3    H243867   3.200   2.641   0.326
 6558TIP3   OH243868   2.307   2.948   0.866
 6558TIP3    H143869   2.365   2.937   0.790
 6558TIP3    H243870   2.351   2.902   0.937
 6559TIP3   OH243871   3.039   3.138   0.338
 6559TIP3    H143872   2.995   3.223   0.333
 6559TIP3    H243873   2.968   3.074   0.330
 6560TIP3   OH243874   1.966   2.793   1.458
 6560TIP3    H143875   1.932   2.734   1.525
 6560TIP3    H243876   1.901   2.790   1.388
 6561TIP3   OH243877   2.693   2.829   1.684
 6561TIP3    H143878   2.646   2.826   1.600
 6561TIP3    H243879   2.761   2.762   1.675
 6562TIP3   OH243880   3.126   3.357   1.568
 6562TIP3    H143881   3.034   3.349   1.541
 6562TIP3    H243882   3.122   3.366   1.663
 6563TIP3   OH243883   3.626   2.547   0.374
 6563TIP3    H143884   3.555   2.518   0.316
 6563TIP3    H243885   3.634   2.641   0.354
 6564TIP3   OH243886   3.741   3.083   1.587
 6564TIP3    H143887   3.656   3.092   1.544
 6564TIP3    H243888   3.801   3.058   1.516
 6565TIP3   OH243889   3.563   3.387   0.461
 6565TIP3    H143890   3.525   3.303   0.485
 6565TIP3    H243891   3.593   3.374   0.371
 6566TIP3   OH243892   3.305   2.926   1.021
 6566TIP3    H143893   3.210   2.930   1.021
 6566TIP3    H243894   3.325   2.834   1.003
 6567TIP3   OH243895   2.605   3.291   0.725
 6567TIP3    H143896   2.603   3.380   0.691
 6567TIP3    H243897   2.520   3.280   0.768
 6568TIP3   OH243898   2.045   2.762   0.230
 6568TIP3    H143899   2.090   2.831   0.279
 6568TIP3    H243900   1.953   2.789   0.229
 6569TIP3   OH243901   2.629   3.096   0.535
 6569TIP3    H143902   2.638   3.166   0.600
 6569TIP3    H243903   2.584   3.026   0.581
 6570TIP3   OH243904   2.768   3.483   1.300
 6570TIP3    H143905   2.814   3.567   1.292
 6570TIP3    H243906   2.818   3.434   1.365
 6571TIP3   OH243907   2.562   3.547   0.629
 6571TIP3    H143908   2.471   3.572   0.644
 6571TIP3    H243909   2.613   3.617   0.671
 6572TIP3   OH243910   3.039   3.146   1.322
 6572TIP3    H143911   2.982   3.119   1.394
 6572TIP3    H243912   3.128   3.127   1.353
 6573TIP3   OH243913   3.309   3.159   0.278
 6573TIP3    H143914   3.350   3.159   0.364
 6573TIP3    H243915   3.215   3.154   0.296
 6574TIP3   OH243916   3.344   3.495   1.467
 6574TIP3    H143917   3.259   3.460   1.493
 6574TIP3    H243918   3.323   3.574   1.416
 6575TIP3   OH243919   3.731   3.631   0.221
 6575TIP3    H143920   3.802   3.695   0.227
 6575TIP3    H243921   3.652   3.681   0.240
 6576TIP3   OH243922   2.171   2.268   1.461
 6576TIP3    H143923   2.086   2.300   1.491
 6576TIP3    H243924   2.186   2.188   1.511
 6577TIP3   OH243925   3.460   3.115   0.508
 6577TIP3    H143926   3.411   3.041   0.545
 6577TIP3    H243927   3.550   3.085   0.504
 6578TIP3   OH243928   2.139   3.479   1.287
 6578TIP3    H143929   2.168   3.403   1.339
 6578TIP3    H243930   2.156   3.554   1.344
 6579TIP3   OH243931   2.528   3.250   0.323
 6579TIP3    H143932   2.563   3.199   0.396
 6579TIP3    H243933   2.568   3.336   0.333
 6580TIP3   OH243934   2.179   2.966   0.368
 6580TIP3    H143935   2.122   3.017   0.426
 6580TIP3    H243936   2.217   3.031   0.309
 6581TIP3   OH243937   3.059   2.246   1.348
 6581TIP3    H143938   3.079   2.245   1.254
 6581TIP3    H243939   2.995   2.175   1.359
 6582TIP3   OH243940   3.127   2.175   0.595
 6582TIP3    H143941   3.106   2.214   0.510
 6582TIP3    H243942   3.167   2.245   0.646
 6583TIP3   OH243943   2.883   3.360   0.365
 6583TIP3    H143944   2.797   3.401   0.365
 6583TIP3    H243945   2.920   3.382   0.450
 6584TIP3   OH243946   2.776   2.375   0.536
 6584TIP3    H143947   2.849   2.437   0.528
 6584TIP3    H243948   2.777   2.348   0.627
 6585TIP3   OH243949   2.937   2.486   1.419
 6585TIP3    H143950   2.963   2.494   1.511
 6585TIP3    H243951   2.974   2.402   1.391
 6586TIP3   OH243952   2.880   2.048   0.618
 6586TIP3    H143953   2.839   2.115   0.672
 6586TIP3    H243954   2.971   2.076   0.609
 6587TIP3   OH243955   2.646   3.500   0.375
 6587TIP3    H143956   2.672   3.586   0.343
 6587TIP3    H243957   2.617   3.516   0.465
 6588TIP3   OH243958   2.505   2.209   0.282
 6588TIP3    H143959   2.480   2.277   0.345
 6588TIP3    H243960   2.584   2.170   0.319
 6589TIP3   OH243961   3.393   2.270   1.454
 6589TIP3    H143962   3.358   2.357   1.472
 6589TIP3    H243963   3.488   2.282   1.449
 6590TIP3   OH243964   3.346   2.650   0.983
 6590TIP3    H143965   3.263   2.607   1.003
 6590TIP3    H243966   3.412   2.596   1.027
 6591TIP3   OH243967   2.277   3.178   0.215
 6591TIP3    H143968   2.342   3.224   0.268
 6591TIP3    H243969   2.329   3.136   0.146
 6592TIP3   OH243970   2.152   2.528   0.150
 6592TIP3    H143971   2.116   2.610   0.184
 6592TIP3    H243972   2.133   2.529   0.057
 6593TIP3   OH243973   3.460   3.634   1.045
 6593TIP3    H143974   3.453   3.710   0.988
 6593TIP3    H243975   3.553   3.629   1.068
 6594TIP3   OH243976   2.185   1.984   0.974
 6594TIP3    H143977   2.167   1.975   0.881
 6594TIP3    H243978   2.166   1.899   1.012
 6595TIP3   OH243979   2.087   3.396   0.626
 6595TIP3    H143980   2.042   3.419   0.707
 6595TIP3    H243981   2.061   3.464   0.564
 6596TIP3   OH243982   2.031   3.666   1.789
 6596TIP3    H143983   2.081   3.620   1.856
 6596TIP3    H243984   1.973   3.599   1.752
 6597TIP3   OH243985   2.464   3.485   1.893
 6597TIP3    H143986   2.540   3.441   1.930
 6597TIP3    H243987   2.464   3.461   1.801
 6598TIP3   OH243988   2.889   3.450   0.102
 6598TIP3    H143989   2.893   3.406   0.187
 6598TIP3    H243990   2.898   3.380   0.038
 6599TIP3   OH243991   3.110   3.373   1.843
 6599TIP3    H143992   3.113   3.286   1.883
 6599TIP3    H243993   3.191   3.415   1.872
 6600TIP3   OH243994   3.389   3.401   0.159
 6600TIP3    H143995   3.355   3.317   0.192
 6600TIP3    H243996   3.484   3.390   0.162
 6601TIP3   OH243997   2.014   3.045   1.841
 6601TIP3    H143998   1.941   2.987   1.862
 6601TIP3    H243999   1.982   3.102   1.772
 6602TIP3   OH244000   2.508   3.072   0.107
 6602TIP3    H144001   2.547   2.991   0.139
 6602TIP3    H244002   2.534   3.138   0.170
 6603TIP3   OH244003   2.683   3.088   1.786
 6603TIP3    H144004   2.660   3.133   1.705
 6603TIP3    H244005   2.707   2.999   1.758
 6604TIP3   OH244006   3.258   3.119   1.498
 6604TIP3    H144007   3.351   3.132   1.480
 6604TIP3    H244008   3.227   3.204   1.529
 6605TIP3   OH244009   2.213   2.662   1.816
 6605TIP3    H144010   2.224   2.748   1.775
 6605TIP3    H244011   2.181   2.681   1.904
 6606TIP3   OH244012   2.602   2.847   0.244
 6606TIP3    H144013   2.536   2.834   0.311
 6606TIP3    H244014   2.613   2.761   0.203
 6607TIP3   OH244015   2.557   2.783   1.436
 6607TIP3    H144016   2.463   2.789   1.451
 6607TIP3    H244017   2.576   2.852   1.372
 6608TIP3   OH244018   2.644   2.586   0.145
 6608TIP3    H144019   2.637   2.502   0.099
 6608TIP3    H244020   2.738   2.595   0.163
 6609TIP3   OH244021   3.032   2.943   1.771
 6609TIP3    H144022   3.113   2.906   1.733
 6609TIP3    H244023   3.001   2.875   1.831
 6610TIP3   OH244024   3.743   2.797   9.956
 6610TIP3    H144025   3.804   2.863   9.921
 6610TIP3    H244026   3.707   2.838  10.034
 6611TIP3   OH244027   2.557   2.484   1.514
 6611TIP3    H144028   2.574   2.393   1.489
 6611TIP3    H244029   2.471   2.504   1.477
 6612TIP3   OH244030   2.591   2.274   1.336
 6612TIP3    H144031   2.635   2.338   1.281
 6612TIP3    H244032   2.505   2.263   1.295
 6613TIP3   OH244033   2.859   2.809   1.416
 6613TIP3    H144034   2.929   2.804   1.351
 6613TIP3    H244035   2.872   2.895   1.457
 6614TIP3   OH244036   3.072   2.526   1.854
 6614TIP3    H144037   3.081   2.450   1.912
 6614TIP3    H244038   3.162   2.547   1.829
 6615TIP3   OH244039   3.280   2.885   1.640
 6615TIP3    H144040   3.269   2.969   1.595
 6615TIP3    H244041   3.372   2.862   1.628
 6616TIP3   OH244042   2.413   2.481   1.772
 6616TIP3    H144043   2.339   2.541   1.775
 6616TIP3    H244044   2.458   2.502   1.690
 6617TIP3   OH244045   2.618   2.022   1.443
 6617TIP3    H144046   2.603   2.111   1.411
 6617TIP3    H244047   2.554   1.968   1.396
 6618TIP3   OH244048   2.734   2.364   1.771
 6618TIP3    H144049   2.788   2.321   1.837
 6618TIP3    H244050   2.644   2.337   1.792
 6619TIP3   OH244051   2.960   2.242   1.659
 6619TIP3    H144052   2.875   2.287   1.659
 6619TIP3    H244053   2.969   2.210   1.749
 6620TIP3   OH244054   3.237   2.199   1.783
 6620TIP3    H144055   3.241   2.106   1.805
 6620TIP3    H244056   3.206   2.241   1.863
 6621TIP3   OH244057   2.127   2.264   1.788
 6621TIP3    H144058   2.154   2.186   1.739
 6621TIP3    H244059   2.153   2.246   1.878
 6622TIP3   OH244060   2.616   1.870   1.671
 6622TIP3    H144061   2.686   1.808   1.652
 6622TIP3    H244062   2.612   1.925   1.592
 6623TIP3   OH244063   2.661   2.019   1.895
 6623TIP3    H144064   2.646   1.961   1.820
 6623TIP3    H244065   2.598   2.090   1.884
 6624TIP3   OH244066   2.711   3.765   0.290
 6624TIP3    H144067   2.795   3.743   0.249
 6624TIP3    H244068   2.720   3.857   0.313
 6625TIP3   OH244069   2.009   3.248   0.204
 6625TIP3    H144070   2.104   3.236   0.209
 6625TIP3    H244071   1.985   3.221   0.116
 6626TIP3   OH244072   1.918   3.720   0.728
 6626TIP3    H144073   1.853   3.701   0.660
 6626TIP3    H244074   1.931   3.636   0.772
 6627TIP3   OH244075   1.987   3.491   0.868
 6627TIP3    H144076   1.949   3.428   0.929
 6627TIP3    H244077   2.047   3.543   0.922
 6628TIP3   OH244078   3.716   3.622   1.157
 6628TIP3    H144079   3.711   3.596   1.249
 6628TIP3    H244080   3.778   3.695   1.156
 6629TIP3   OH244081   3.688   3.545   1.421
 6629TIP3    H144082   3.634   3.478   1.379
 6629TIP3    H244083   3.733   3.499   1.492
 6630TIP3   OH244084   3.598   3.226   1.876
 6630TIP3    H144085   3.520   3.226   1.931
 6630TIP3    H244086   3.657   3.290   1.918
 6631TIP3   OH244087   3.704   2.989   0.508
 6631TIP3    H144088   3.778   3.050   0.504
 6631TIP3    H244089   3.729   2.928   0.578
 6632TIP3   OH244090   3.752   2.789   0.697
 6632TIP3    H144091   3.666   2.769   0.733
 6632TIP3    H244092   3.806   2.808   0.773
 6633TIP3   OH244093   3.691   3.120   1.043
 6633TIP3    H144094   3.626   3.144   0.977
 6633TIP3    H244095   3.739   3.201   1.060
 6634TIP3   OH244096   3.518   3.369   1.301
 6634TIP3    H144097   3.450   3.411   1.355
 6634TIP3    H244098   3.479   3.362   1.214
 6635TIP3   OH244099   3.641   2.814   0.308
 6635TIP3    H144100   3.572   2.855   0.255
 6635TIP3    H244101   3.658   2.878   0.377
 6636TIP3   OH244102   3.425   2.471   0.194
 6636TIP3    H144103   3.433   2.510   0.107
 6636TIP3    H244104   3.430   2.376   0.178
 6637TIP3   OH244105   3.487   2.696   0.748
 6637TIP3    H144106   3.492   2.609   0.709
 6637TIP3    H244107   3.441   2.683   0.831
 6638TIP3   OH244108   1.968   2.795   1.113
 6638TIP3    H144109   1.984   2.817   1.021
 6638TIP3    H244110   2.056   2.795   1.153
 6639TIP3   OH244111   3.545   2.816   1.595
 6639TIP3    H144112   3.590   2.738   1.628
 6639TIP3    H244113   3.581   2.829   1.507
 6640TIP3   OH244114   3.715   2.602   1.657
 6640TIP3    H144115   3.687   2.602   1.749
 6640TIP3    H244116   3.765   2.521   1.648
 6641TIP3   OH244117   3.455   2.210   0.125
 6641TIP3    H144118   3.546   2.180   0.137
 6641TIP3    H244119   3.407   2.131   0.100
 6642TIP3   OH244120   3.499   2.447   0.611
 6642TIP3    H144121   3.532   2.358   0.610
 6642TIP3    H244122   3.536   2.488   0.533
 6643TIP3   OH244123   3.517   2.475   1.110
 6643TIP3    H144124   3.607   2.495   1.086
 6643TIP3    H244125   3.510   2.497   1.203
 6644TIP3   OH244126   3.497   2.573   1.369
 6644TIP3    H144127   3.412   2.611   1.394
 6644TIP3    H244128   3.556   2.648   1.363
 6645TIP3   OH244129   1.941   2.363   1.613
 6645TIP3    H144130   2.009   2.353   1.680
 6645TIP3    H244131   1.883   2.288   1.625
 6646TIP3   OH244132   3.759   1.969   1.878
 6646TIP3    H144133   3.820   1.911   1.833
 6646TIP3    H244134   3.749   2.044   1.819
 6647TIP3   OH244135   3.578   2.180   0.590
 6647TIP3    H144136   3.598   2.130   0.669
 6647TIP3    H244137   3.504   2.136   0.550
 6648TIP3   OH244138   2.063   2.231   1.003
 6648TIP3    H144139   2.098   2.141   1.000
 6648TIP3    H244140   2.141   2.287   0.997
 6649TIP3   OH244141   1.875   2.539   1.053
 6649TIP3    H144142   1.941   2.519   0.987
 6649TIP3    H244143   1.900   2.626   1.086
 6650TIP3   OH244144   3.695   2.152   1.684
 6650TIP3    H144145   3.622   2.203   1.718
 6650TIP3    H244146   3.656   2.094   1.618
 6651TIP3   OH244147   3.712   2.135   0.195
 6651TIP3    H144148   3.784   2.073   0.197
 6651TIP3    H244149   3.751   2.219   0.220
 6652TIP3   OH244150   1.930   2.237   0.531
 6652TIP3    H144151   1.837   2.215   0.526
 6652TIP3    H244152   1.946   2.290   0.453
 6653TIP3   OH244153   3.373   3.677   0.716
 6653TIP3    H144154   3.455   3.667   0.667
 6653TIP3    H244155   3.388   3.754   0.772
 6654TIP3   OH244156   1.966   1.972   1.305
 6654TIP3    H144157   1.900   1.964   1.375
 6654TIP3    H244158   1.938   2.048   1.254
 6655TIP3   OH244159   2.162   3.392   1.683
 6655TIP3    H144160   2.072   3.420   1.667
 6655TIP3    H244161   2.176   3.410   1.776
 6656TIP3   OH244162   2.501   3.474   1.365
 6656TIP3    H144163   2.473   3.563   1.343
 6656TIP3    H244164   2.595   3.473   1.344
 6657TIP3   OH244165   2.838   3.580   1.666
 6657TIP3    H144166   2.843   3.561   1.760
 6657TIP3    H244167   2.913   3.636   1.649
 6658TIP3   OH244168   3.060   3.733   1.625
 6658TIP3    H144169   3.097   3.692   1.546
 6658TIP3    H244170   3.132   3.733   1.687
 6659TIP3   OH244171   3.607   1.946   1.513
 6659TIP3    H144172   3.552   1.979   1.442
 6659TIP3    H244173   3.639   1.861   1.482
 6660TIP3   OH244174   2.185   3.723   1.421
 6660TIP3    H144175   2.106   3.768   1.390
 6660TIP3    H244176   2.200   3.760   1.508
 6661TIP3   OH244177   2.440   3.737   1.318
 6661TIP3    H144178   2.350   3.738   1.351
 6661TIP3    H244179   2.435   3.782   1.234
 6662TIP3   OH244180   2.873   3.734   1.255
 6662TIP3    H144181   2.817   3.754   1.179
 6662TIP3    H244182   2.874   3.814   1.306
 6663TIP3   OH244183   3.100   3.629   1.364
 6663TIP3    H144184   3.024   3.666   1.321
 6663TIP3    H244185   3.175   3.671   1.323
 6664TIP3   OH244186   3.345   3.715   1.280
 6664TIP3    H144187   3.390   3.800   1.281
 6664TIP3    H244188   3.372   3.675   1.198
 6665TIP3   OH244189   2.163   3.613   1.046
 6665TIP3    H144190   2.150   3.574   1.132
 6665TIP3    H244191   2.243   3.572   1.012
 6666TIP3   OH244192   2.380   3.484   0.946
 6666TIP3    H144193   2.374   3.389   0.935
 6666TIP3    H244194   2.466   3.498   0.985
 6667TIP3   OH244195   2.635   3.483   1.058
 6667TIP3    H144196   2.647   3.394   1.024
 6667TIP3    H244197   2.682   3.484   1.141
 6668TIP3   OH244198   2.893   2.054   0.941
 6668TIP3    H144199   2.821   2.008   0.984
 6668TIP3    H244200   2.954   1.984   0.916
 6669TIP3   OH244201   3.448   2.024   0.975
 6669TIP3    H144202   3.524   2.027   0.916
 6669TIP3    H244203   3.372   2.019   0.916
 6670TIP3   OH244204   3.669   2.038   0.807
 6670TIP3    H144205   3.708   1.952   0.793
 6670TIP3    H244206   3.743   2.097   0.817
 6671TIP3   OH244207   2.129   1.936   0.712
 6671TIP3    H144208   2.038   1.907   0.702
 6671TIP3    H244209   2.181   1.857   0.695
 6672TIP3   OH244210   2.033   2.008   0.411
 6672TIP3    H144211   2.127   2.023   0.401
 6672TIP3    H244212   2.005   2.074   0.475
 6673TIP3   OH244213   2.681   1.881   0.738
 6673TIP3    H144214   2.758   1.925   0.702
 6673TIP3    H244215   2.693   1.888   0.833
 6674TIP3   OH244216   3.212   2.039   0.832
 6674TIP3    H144217   3.184   2.068   0.745
 6674TIP3    H244218   3.161   1.960   0.848
 6675TIP3   OH244219   3.357   2.045   0.493
 6675TIP3    H144220   3.280   2.098   0.514
 6675TIP3    H244221   3.326   1.955   0.500
 6676TIP3   OH244222   2.020   3.592   0.453
 6676TIP3    H144223   1.949   3.577   0.390
 6676TIP3    H244224   2.053   3.679   0.431
 6677TIP3   OH244225   2.305   2.049   0.392
 6677TIP3    H144226   2.320   1.955   0.381
 6677TIP3    H244227   2.368   2.090   0.333
 6678TIP3   OH244228   2.751   2.144   0.391
 6678TIP3    H144229   2.786   2.084   0.457
 6678TIP3    H244230   2.755   2.230   0.431
 6679TIP3   OH244231   2.964   3.687   0.215
 6679TIP3    H144232   3.059   3.688   0.202
 6679TIP3    H244233   2.934   3.612   0.164
 6680TIP3   OH244234   3.587   3.647   0.545
 6680TIP3    H144235   3.578   3.556   0.516
 6680TIP3    H244236   3.581   3.698   0.464
 6681TIP3   OH244237   2.182   2.029   1.640
 6681TIP3    H144238   2.117   1.978   1.687
 6681TIP3    H244239   2.265   2.008   1.682
 6682TIP3   OH244240   2.378   1.935   1.804
 6682TIP3    H144241   2.457   1.899   1.762
 6682TIP3    H244242   2.348   1.865   1.863
 6683TIP3   OH244243   2.438   3.721   0.292
 6683TIP3    H144244   2.430   3.626   0.292
 6683TIP3    H244245   2.532   3.738   0.284
 6684TIP3   OH244246   3.254   1.927   1.819
 6684TIP3    H144247   3.230   1.890   1.904
 6684TIP3    H244248   3.346   1.902   1.807
 6685TIP3   OH244249   3.504   3.485   1.691
 6685TIP3    H144250   3.453   3.478   1.610
 6685TIP3    H244251   3.522   3.578   1.700
 6686TIP3   OH244252   4.983   2.898   0.656
 6686TIP3    H144253   4.976   2.993   0.646
 6686TIP3    H244254   4.920   2.863   0.593
 6687TIP3   OH244255   4.902   2.825   1.076
 6687TIP3    H144256   4.929   2.780   1.156
 6687TIP3    H244257   4.848   2.760   1.030
 6688TIP3   OH244258   4.106   2.697   1.205
 6688TIP3    H144259   4.127   2.641   1.279
 6688TIP3    H244260   4.189   2.741   1.184
 6689TIP3   OH244261   5.266   3.146   0.898
 6689TIP3    H144262   5.230   3.069   0.943
 6689TIP3    H244263   5.275   3.212   0.967
 6690TIP3   OH244264   4.301   3.207   0.917
 6690TIP3    H144265   4.252   3.125   0.919
 6690TIP3    H244266   4.382   3.187   0.963
 6691TIP3   OH244267   3.831   2.551   0.573
 6691TIP3    H144268   3.817   2.635   0.617
 6691TIP3    H244269   3.765   2.548   0.504
 6692TIP3   OH244270   3.945   2.812   0.898
 6692TIP3    H144271   3.977   2.721   0.896
 6692TIP3    H244272   4.025   2.865   0.894
 6693TIP3   OH244273   5.001   3.572   0.999
 6693TIP3    H144274   5.031   3.530   0.918
 6693TIP3    H244275   4.999   3.502   1.063
 6694TIP3   OH244276   4.769   3.069   1.103
 6694TIP3    H144277   4.811   2.987   1.079
 6694TIP3    H244278   4.828   3.107   1.169
 6695TIP3   OH244279   5.622   2.187   1.164
 6695TIP3    H144280   5.619   2.262   1.224
 6695TIP3    H244281   5.692   2.208   1.103
 6696TIP3   OH244282   5.039   2.479   1.068
 6696TIP3    H144283   5.046   2.387   1.095
 6696TIP3    H244284   4.994   2.475   0.983
 6697TIP3   OH244285   4.352   2.366   0.816
 6697TIP3    H144286   4.328   2.434   0.753
 6697TIP3    H244287   4.336   2.284   0.770
 6698TIP3   OH244288   5.159   2.357   0.707
 6698TIP3    H144289   5.209   2.335   0.785
 6698TIP3    H244290   5.223   2.398   0.649
 6699TIP3   OH244291   4.002   2.534   0.895
 6699TIP3    H144292   4.066   2.499   0.957
 6699TIP3    H244293   4.022   2.490   0.812
 6700TIP3   OH244294   4.496   2.684   0.871
 6700TIP3    H144295   4.587   2.678   0.899
 6700TIP3    H244296   4.470   2.594   0.853
 6701TIP3   OH244297   5.599   2.378   1.362
 6701TIP3    H144298   5.553   2.461   1.346
 6701TIP3    H244299   5.540   2.328   1.418
 6702TIP3   OH244300   4.251   2.219   1.253
 6702TIP3    H144301   4.223   2.288   1.193
 6702TIP3    H244302   4.187   2.221   1.324
 6703TIP3   OH244303   4.977   3.162   0.571
 6703TIP3    H144304   4.964   3.151   0.477
 6703TIP3    H244305   4.937   3.247   0.591
 6704TIP3   OH244306   4.504   3.006   1.185
 6704TIP3    H144307   4.454   3.080   1.219
 6704TIP3    H244308   4.584   3.044   1.150
 6705TIP3   OH244309   5.275   2.299   0.948
 6705TIP3    H144310   5.211   2.283   1.017
 6705TIP3    H244311   5.339   2.358   0.987
 6706TIP3   OH244312   4.199   2.398   1.044
 6706TIP3    H144313   4.251   2.458   1.098
 6706TIP3    H244314   4.255   2.378   0.970
 6707TIP3   OH244315   4.350   3.203   1.304
 6707TIP3    H144316   4.360   3.298   1.311
 6707TIP3    H244317   4.259   3.187   1.328
 6708TIP3   OH244318   3.911   3.165   0.471
 6708TIP3    H144319   3.903   3.208   0.386
 6708TIP3    H244320   3.938   3.234   0.531
 6709TIP3   OH244321   5.277   3.355   1.089
 6709TIP3    H144322   5.187   3.364   1.121
 6709TIP3    H244323   5.299   3.442   1.055
 6710TIP3   OH244324   5.360   2.104   1.237
 6710TIP3    H144325   5.292   2.143   1.182
 6710TIP3    H244326   5.442   2.126   1.193
 6711TIP3   OH244327   4.535   1.892   0.962
 6711TIP3    H144328   4.530   1.799   0.985
 6711TIP3    H244329   4.466   1.934   1.013
 6712TIP3   OH244330   5.108   3.466   0.765
 6712TIP3    H144331   5.158   3.391   0.733
 6712TIP3    H244332   5.165   3.541   0.750
 6713TIP3   OH244333   5.233   3.248   0.647
 6713TIP3    H144334   5.154   3.202   0.619
 6713TIP3    H244335   5.258   3.204   0.729
 6714TIP3   OH244336   5.416   3.127   1.460
 6714TIP3    H144337   5.395   3.071   1.385
 6714TIP3    H244338   5.438   3.212   1.422
 6715TIP3   OH244339   4.864   2.779   0.406
 6715TIP3    H144340   4.812   2.855   0.383
 6715TIP3    H244341   4.950   2.796   0.366
 6716TIP3   OH244342   4.676   2.591   0.268
 6716TIP3    H144343   4.746   2.638   0.312
 6716TIP3    H244344   4.711   2.503   0.252
 6717TIP3   OH244345   5.548   2.813   1.274
 6717TIP3    H144346   5.477   2.878   1.267
 6717TIP3    H244347   5.604   2.832   1.199
 6718TIP3   OH244348   5.241   2.866   0.570
 6718TIP3    H144349   5.159   2.876   0.619
 6718TIP3    H244350   5.298   2.815   0.628
 6719TIP3   OH244351   5.179   2.641   1.480
 6719TIP3    H144352   5.171   2.719   1.535
 6719TIP3    H244353   5.116   2.654   1.409
 6720TIP3   OH244354   4.390   2.884   0.699
 6720TIP3    H144355   4.353   2.841   0.621
 6720TIP3    H244356   4.437   2.815   0.745
 6721TIP3   OH244357   4.579   3.230   0.979
 6721TIP3    H144358   4.591   3.240   0.885
 6721TIP3    H244359   4.657   3.181   1.008
 6722TIP3   OH244360   4.360   2.791   1.094
 6722TIP3    H144361   4.414   2.762   1.020
 6722TIP3    H244362   4.409   2.864   1.132
 6723TIP3   OH244363   5.023   3.379   1.202
 6723TIP3    H144364   5.007   3.444   1.270
 6723TIP3    H244365   4.988   3.297   1.237
 6724TIP3   OH244366   4.478   3.187   1.555
 6724TIP3    H144367   4.410   3.242   1.595
 6724TIP3    H244368   4.444   3.167   1.467
 6725TIP3   OH244369   5.136   2.787   0.328
 6725TIP3    H144370   5.176   2.819   0.409
 6725TIP3    H244371   5.188   2.826   0.258
 6726TIP3   OH244372   4.206   2.814   1.499
 6726TIP3    H144373   4.205   2.895   1.550
 6726TIP3    H244374   4.114   2.787   1.495
 6727TIP3   OH244375   4.891   3.427   0.598
 6727TIP3    H144376   4.958   3.439   0.665
 6727TIP3    H244377   4.862   3.516   0.577
 6728TIP3   OH244378   4.278   3.370   1.617
 6728TIP3    H144379   4.302   3.415   1.536
 6728TIP3    H244380   4.184   3.386   1.627
 6729TIP3   OH244381   5.444   1.948   0.331
 6729TIP3    H144382   5.363   1.986   0.366
 6729TIP3    H244383   5.489   2.021   0.288
 6730TIP3   OH244384   4.264   2.778   0.471
 6730TIP3    H144385   4.195   2.841   0.453
 6730TIP3    H244386   4.260   2.716   0.398
 6731TIP3   OH244387   5.545   3.392   0.255
 6731TIP3    H144388   5.576   3.482   0.249
 6731TIP3    H244389   5.624   3.339   0.248
 6732TIP3   OH244390   3.908   2.988   1.387
 6732TIP3    H144391   3.889   2.956   1.299
 6732TIP3    H244392   3.918   2.909   1.440
 6733TIP3   OH244393   3.811   3.366   1.096
 6733TIP3    H144394   3.884   3.369   1.158
 6733TIP3    H244395   3.763   3.448   1.112
 6734TIP3   OH244396   5.615   3.342   1.726
 6734TIP3    H144397   5.582   3.261   1.766
 6734TIP3    H244398   5.538   3.397   1.718
 6735TIP3   OH244399   4.722   3.314   1.539
 6735TIP3    H144400   4.711   3.399   1.582
 6735TIP3    H244401   4.636   3.273   1.545
 6736TIP3   OH244402   4.843   3.681   0.506
 6736TIP3    H144403   4.830   3.698   0.412
 6736TIP3    H244404   4.809   3.759   0.549
 6737TIP3   OH244405   4.178   3.564   0.703
 6737TIP3    H144406   4.203   3.535   0.790
 6737TIP3    H244407   4.122   3.494   0.669
 6738TIP3   OH244408   5.096   3.608   0.201
 6738TIP3    H144409   5.168   3.554   0.169
 6738TIP3    H244410   5.119   3.627   0.292
 6739TIP3   OH244411   5.119   3.674   0.469
 6739TIP3    H144412   5.026   3.668   0.493
 6739TIP3    H244413   5.166   3.656   0.551
 6740TIP3   OH244414   5.379   2.496   1.636
 6740TIP3    H144415   5.313   2.550   1.593
 6740TIP3    H244416   5.378   2.413   1.589
 6741TIP3   OH244417   4.097   3.189   1.421
 6741TIP3    H144418   4.130   3.162   1.507
 6741TIP3    H244419   4.028   3.126   1.400
 6742TIP3   OH244420   4.319   2.008   1.091
 6742TIP3    H144421   4.234   1.997   1.049
 6742TIP3    H244422   4.309   2.085   1.146
 6743TIP3   OH244423   4.800   2.042   1.482
 6743TIP3    H144424   4.856   2.007   1.551
 6743TIP3    H244425   4.711   2.028   1.513
 6744TIP3   OH244426   5.114   2.369   1.506
 6744TIP3    H144427   5.055   2.345   1.577
 6744TIP3    H244428   5.119   2.464   1.510
 6745TIP3   OH244429   5.311   2.932   0.163
 6745TIP3    H144430   5.272   2.991   0.098
 6745TIP3    H244431   5.322   2.988   0.241
 6746TIP3   OH244432   4.717   2.324   0.207
 6746TIP3    H144433   4.708   2.255   0.272
 6746TIP3    H244434   4.642   2.312   0.149
 6747TIP3   OH244435   4.372   2.538   1.210
 6747TIP3    H144436   4.325   2.534   1.293
 6747TIP3    H244437   4.373   2.631   1.187
 6748TIP3   OH244438   4.273   2.538   0.614
 6748TIP3    H144439   4.260   2.629   0.587
 6748TIP3    H244440   4.332   2.501   0.548
 6749TIP3   OH244441   4.885   2.555   0.558
 6749TIP3    H144442   4.867   2.641   0.519
 6749TIP3    H244443   4.967   2.527   0.517
 6750TIP3   OH244444   4.803   2.542   1.675
 6750TIP3    H144445   4.755   2.468   1.712
 6750TIP3    H244446   4.887   2.540   1.719
 6751TIP3   OH244447   4.934   2.474   0.814
 6751TIP3    H144448   4.905   2.520   0.736
 6751TIP3    H244449   5.009   2.422   0.785
 6752TIP3   OH244450   4.178   2.508   1.407
 6752TIP3    H144451   4.193   2.543   1.494
 6752TIP3    H244452   4.141   2.421   1.421
 6753TIP3   OH244453   4.468   2.251   0.108
 6753TIP3    H144454   4.419   2.214   0.182
 6753TIP3    H244455   4.437   2.203   0.032
 6754TIP3   OH244456   3.884   2.214   0.803
 6754TIP3    H144457   3.903   2.224   0.897
 6754TIP3    H244458   3.861   2.302   0.774
 6755TIP3   OH244459   3.830   2.365   0.295
 6755TIP3    H144460   3.903   2.412   0.254
 6755TIP3    H244461   3.767   2.434   0.318
 6756TIP3   OH244462   4.986   2.646   1.279
 6756TIP3    H144463   5.010   2.588   1.207
 6756TIP3    H244464   4.910   2.605   1.320
 6757TIP3   OH244465   4.648   2.251   0.822
 6757TIP3    H144466   4.566   2.285   0.859
 6757TIP3    H244467   4.690   2.205   0.895
 6758TIP3   OH244468   4.044   2.390   0.633
 6758TIP3    H144469   3.972   2.445   0.602
 6758TIP3    H244470   4.122   2.443   0.619
 6759TIP3   OH244471   4.450   2.440   0.432
 6759TIP3    H144472   4.533   2.430   0.478
 6759TIP3    H244473   4.469   2.500   0.360
 6760TIP3   OH244474   5.089   2.204   1.127
 6760TIP3    H144475   5.030   2.210   1.202
 6760TIP3    H244476   5.059   2.127   1.078
 6761TIP3   OH244477   4.268   2.610   0.259
 6761TIP3    H144478   4.191   2.566   0.225
 6761TIP3    H244479   4.329   2.613   0.186
 6762TIP3   OH244480   5.372   3.762   1.715
 6762TIP3    H144481   5.391   3.798   1.629
 6762TIP3    H244482   5.453   3.774   1.765
 6763TIP3   OH244483   4.167   3.041   1.664
 6763TIP3    H144484   4.227   3.032   1.738
 6763TIP3    H244485   4.080   3.040   1.704
 6764TIP3   OH244486   4.743   2.607   0.970
 6764TIP3    H144487   4.806   2.557   0.919
 6764TIP3    H244488   4.714   2.546   1.038
 6765TIP3   OH244489   4.289   2.150   0.650
 6765TIP3    H144490   4.349   2.081   0.682
 6765TIP3    H244491   4.316   2.164   0.559
 6766TIP3   OH244492   4.632   2.453   1.174
 6766TIP3    H144493   4.544   2.487   1.191
 6766TIP3    H244494   4.682   2.476   1.252
 6767TIP3   OH244495   4.690   2.985   0.358
 6767TIP3    H144496   4.618   2.946   0.308
 6767TIP3    H244497   4.646   3.031   0.430
 6768TIP3   OH244498   5.352   2.999   1.224
 6768TIP3    H144499   5.416   3.051   1.177
 6768TIP3    H244500   5.286   2.977   1.159
 6769TIP3   OH244501   4.955   2.305   0.357
 6769TIP3    H144502   4.897   2.318   0.282
 6769TIP3    H244503   5.015   2.379   0.355
 6770TIP3   OH244504   4.784   3.034   1.528
 6770TIP3    H144505   4.822   2.996   1.607
 6770TIP3    H244506   4.766   3.125   1.552
 6771TIP3   OH244507   5.116   2.522   0.407
 6771TIP3    H144508   5.203   2.500   0.438
 6771TIP3    H244509   5.125   2.610   0.370
 6772TIP3   OH244510   4.204   2.933   0.902
 6772TIP3    H144511   4.263   2.925   0.828
 6772TIP3    H244512   4.248   2.886   0.973
 6773TIP3   OH244513   4.913   3.139   0.303
 6773TIP3    H144514   4.872   3.226   0.299
 6773TIP3    H244515   4.839   3.078   0.305
 6774TIP3   OH244516   3.922   2.765   1.544
 6774TIP3    H144517   3.967   2.758   1.629
 6774TIP3    H244518   3.842   2.714   1.555
 6775TIP3   OH244519   4.615   2.754   1.707
 6775TIP3    H144520   4.551   2.728   1.641
 6775TIP3    H244521   4.689   2.695   1.692
 6776TIP3   OH244522   5.002   3.343   1.566
 6776TIP3    H144523   4.910   3.333   1.539
 6776TIP3    H244524   4.998   3.348   1.662
 6777TIP3   OH244525   5.530   2.551   0.329
 6777TIP3    H144526   5.462   2.515   0.271
 6777TIP3    H244527   5.538   2.643   0.303
 6778TIP3   OH244528   5.626   3.043   1.621
 6778TIP3    H144529   5.550   3.090   1.586
 6778TIP3    H244530   5.693   3.051   1.552
 6779TIP3   OH244531   5.395   3.424   0.497
 6779TIP3    H144532   5.344   3.356   0.540
 6779TIP3    H244533   5.428   3.384   0.417
 6780TIP3   OH244534   5.172   2.913   1.028
 6780TIP3    H144535   5.077   2.902   1.035
 6780TIP3    H244536   5.204   2.829   0.994
 6781TIP3   OH244537   4.488   3.295   0.721
 6781TIP3    H144538   4.481   3.385   0.688
 6781TIP3    H244539   4.409   3.282   0.773
 6782TIP3   OH244540   3.914   2.754   0.264
 6782TIP3    H144541   3.966   2.823   0.305
 6782TIP3    H244542   3.823   2.782   0.274
 6783TIP3   OH244543   4.518   3.090   0.547
 6783TIP3    H144544   4.522   3.165   0.607
 6783TIP3    H244545   4.474   3.022   0.598
 6784TIP3   OH244546   4.646   3.474   1.313
 6784TIP3    H144547   4.697   3.554   1.302
 6784TIP3    H244548   4.698   3.421   1.374
 6785TIP3   OH244549   4.443   3.549   0.625
 6785TIP3    H144550   4.351   3.571   0.641
 6785TIP3    H244551   4.492   3.619   0.669
 6786TIP3   OH244552   4.938   3.134   1.318
 6786TIP3    H144553   4.875   3.097   1.379
 6786TIP3    H244554   5.024   3.113   1.356
 6787TIP3   OH244555   5.175   3.186   0.220
 6787TIP3    H144556   5.223   3.159   0.298
 6787TIP3    H244557   5.083   3.169   0.242
 6788TIP3   OH244558   5.226   3.480   1.471
 6788TIP3    H144559   5.141   3.444   1.496
 6788TIP3    H244560   5.205   3.559   1.421
 6789TIP3   OH244561   5.641   3.653   0.256
 6789TIP3    H144562   5.707   3.722   0.262
 6789TIP3    H244563   5.557   3.699   0.264
 6790TIP3   OH244564   4.069   2.247   1.461
 6790TIP3    H144565   3.989   2.288   1.495
 6790TIP3    H244566   4.076   2.164   1.508
 6791TIP3   OH244567   5.340   3.060   0.404
 6791TIP3    H144568   5.300   3.008   0.473
 6791TIP3    H244569   5.433   3.059   0.424
 6792TIP3   OH244570   4.015   3.436   1.280
 6792TIP3    H144571   4.046   3.360   1.330
 6792TIP3    H244572   4.035   3.511   1.337
 6793TIP3   OH244573   4.427   3.254   0.331
 6793TIP3    H144574   4.462   3.203   0.404
 6793TIP3    H244575   4.467   3.341   0.341
 6794TIP3   OH244576   4.070   2.956   0.383
 6794TIP3    H144577   4.014   3.013   0.435
 6794TIP3    H244578   4.116   3.015   0.323
 6795TIP3   OH244579   4.929   2.242   1.348
 6795TIP3    H144580   4.999   2.273   1.406
 6795TIP3    H244581   4.884   2.174   1.398
 6796TIP3   OH244582   5.005   2.166   0.582
 6796TIP3    H144583   4.985   2.210   0.500
 6796TIP3    H244584   5.056   2.229   0.632
 6797TIP3   OH244585   4.786   3.377   0.344
 6797TIP3    H144586   4.700   3.418   0.348
 6797TIP3    H244587   4.824   3.394   0.430
 6798TIP3   OH244588   4.672   2.385   0.579
 6798TIP3    H144589   4.749   2.442   0.573
 6798TIP3    H244590   4.675   2.350   0.668
 6799TIP3   OH244591   4.792   2.487   1.396
 6799TIP3    H144592   4.789   2.507   1.490
 6799TIP3    H244593   4.830   2.400   1.392
 6800TIP3   OH244594   4.765   2.058   0.650
 6800TIP3    H144595   4.733   2.122   0.714
 6800TIP3    H244596   4.855   2.084   0.634
 6801TIP3   OH244597   4.543   3.508   0.375
 6801TIP3    H144598   4.554   3.597   0.343
 6801TIP3    H244599   4.509   3.518   0.464
 6802TIP3   OH244600   4.373   2.182   0.379
 6802TIP3    H144601   4.383   2.277   0.388
 6802TIP3    H244602   4.463   2.148   0.384
 6803TIP3   OH244603   5.363   2.270   1.466
 6803TIP3    H144604   5.271   2.294   1.479
 6803TIP3    H244605   5.361   2.206   1.395
 6804TIP3   OH244606   5.244   2.645   0.962
 6804TIP3    H144607   5.165   2.600   0.993
 6804TIP3    H244608   5.316   2.596   1.002
 6805TIP3   OH244609   4.181   3.162   0.233
 6805TIP3    H144610   4.242   3.211   0.287
 6805TIP3    H244611   4.233   3.130   0.160
 6806TIP3   OH244612   4.017   2.526   0.163
 6806TIP3    H144613   3.984   2.607   0.202
 6806TIP3    H244614   4.010   2.540   0.069
 6807TIP3   OH244615   5.360   3.620   1.039
 6807TIP3    H144616   5.348   3.698   0.984
 6807TIP3    H244617   5.453   3.620   1.060
 6808TIP3   OH244618   4.061   1.988   0.993
 6808TIP3    H144619   4.048   1.978   0.899
 6808TIP3    H244620   4.029   1.907   1.031
 6809TIP3   OH244621   3.974   3.389   0.620
 6809TIP3    H144622   3.930   3.417   0.700
 6809TIP3    H244623   3.948   3.454   0.554
 6810TIP3   OH244624   3.967   3.668   1.782
 6810TIP3    H144625   4.025   3.659   1.858
 6810TIP3    H244626   3.974   3.585   1.736
 6811TIP3   OH244627   4.329   3.426   1.882
 6811TIP3    H144628   4.411   3.382   1.905
 6811TIP3    H244629   4.316   3.406   1.790
 6812TIP3   OH244630   4.861   3.481   0.097
 6812TIP3    H144631   4.840   3.429   0.174
 6812TIP3    H244632   4.953   3.506   0.109
 6813TIP3   OH244633   4.982   3.340   1.840
 6813TIP3    H144634   4.977   3.257   1.887
 6813TIP3    H244635   5.061   3.382   1.874
 6814TIP3   OH244636   5.290   3.424   0.144
 6814TIP3    H144637   5.248   3.340   0.159
 6814TIP3    H244638   5.380   3.412   0.175
 6815TIP3   OH244639   3.921   3.030   1.792
 6815TIP3    H144640   3.917   2.936   1.810
 6815TIP3    H244641   3.848   3.045   1.732
 6816TIP3   OH244642   4.409   3.091   0.100
 6816TIP3    H144643   4.435   3.010   0.145
 6816TIP3    H244644   4.439   3.161   0.158
 6817TIP3   OH244645   4.555   3.026   1.769
 6817TIP3    H144646   4.539   3.070   1.685
 6817TIP3    H244647   4.591   2.941   1.745
 6818TIP3   OH244648   5.145   3.110   1.513
 6818TIP3    H144649   5.238   3.131   1.503
 6818TIP3    H244650   5.104   3.193   1.537
 6819TIP3   OH244651   4.043   2.730   1.783
 6819TIP3    H144652   4.114   2.671   1.761
 6819TIP3    H244653   4.028   2.716   1.876
 6820TIP3   OH244654   4.460   2.870   0.260
 6820TIP3    H144655   4.404   2.845   0.333
 6820TIP3    H244656   4.458   2.795   0.201
 6821TIP3   OH244657   4.443   2.670   1.501
 6821TIP3    H144658   4.359   2.717   1.503
 6821TIP3    H244659   4.502   2.729   1.454
 6822TIP3   OH244660   4.480   2.651   0.089
 6822TIP3    H144661   4.515   2.656  -0.000
 6822TIP3    H244662   4.555   2.626   0.143
 6823TIP3   OH244663   4.910   2.925   1.756
 6823TIP3    H144664   4.997   2.902   1.725
 6823TIP3    H244665   4.885   2.853   1.814
 6824TIP3   OH244666   5.500   2.857   9.899
 6824TIP3    H144667   5.414   2.863   9.858
 6824TIP3    H244668   5.482   2.848   9.992
 6825TIP3   OH244669   4.466   2.413   1.603
 6825TIP3    H144670   4.479   2.356   1.527
 6825TIP3    H244671   4.469   2.502   1.568
 6826TIP3   OH244672   4.500   2.265   1.365
 6826TIP3    H144673   4.556   2.300   1.297
 6826TIP3    H244674   4.415   2.252   1.322
 6827TIP3   OH244675   4.608   2.857   1.396
 6827TIP3    H144676   4.672   2.912   1.440
 6827TIP3    H244677   4.577   2.910   1.322
 6828TIP3   OH244678   5.039   2.529   1.837
 6828TIP3    H144679   5.070   2.443   1.864
 6828TIP3    H244680   5.111   2.589   1.859
 6829TIP3   OH244681   5.187   2.869   1.639
 6829TIP3    H144682   5.165   2.951   1.595
 6829TIP3    H244683   5.282   2.863   1.634
 6830TIP3   OH244684   4.216   2.523   1.686
 6830TIP3    H144685   4.164   2.453   1.725
 6830TIP3    H244686   4.303   2.486   1.677
 6831TIP3   OH244687   4.519   2.019   1.495
 6831TIP3    H144688   4.514   2.107   1.457
 6831TIP3    H244689   4.459   1.967   1.442
 6832TIP3   OH244690   4.676   2.308   1.769
 6832TIP3    H144691   4.656   2.247   1.840
 6832TIP3    H244692   4.591   2.328   1.729
 6833TIP3   OH244693   4.934   2.269   1.680
 6833TIP3    H144694   4.842   2.271   1.704
 6833TIP3    H244695   4.980   2.249   1.761
 6834TIP3   OH244696   5.078   2.229   1.911
 6834TIP3    H144697   5.082   2.134   1.911
 6834TIP3    H244698   5.048   2.253   1.998
 6835TIP3   OH244699   4.057   2.334   1.802
 6835TIP3    H144700   4.092   2.247   1.823
 6835TIP3    H244701   4.030   2.370   1.887
 6836TIP3   OH244702   4.517   1.876   1.730
 6836TIP3    H144703   4.589   1.818   1.708
 6836TIP3    H244704   4.507   1.932   1.652
 6837TIP3   OH244705   4.417   2.014   1.944
 6837TIP3    H144706   4.438   1.959   1.868
 6837TIP3    H244707   4.500   2.056   1.966
 6838TIP3   OH244708   4.581   3.778   0.297
 6838TIP3    H144709   4.670   3.767   0.261
 6838TIP3    H244710   4.582   3.864   0.338
 6839TIP3   OH244711   3.923   3.252   0.197
 6839TIP3    H144712   4.012   3.224   0.216
 6839TIP3    H244713   3.924   3.271   0.103
 6840TIP3   OH244714   3.802   3.714   0.705
 6840TIP3    H144715   3.735   3.688   0.642
 6840TIP3    H244716   3.819   3.635   0.756
 6841TIP3   OH244717   3.878   3.495   0.858
 6841TIP3    H144718   3.840   3.429   0.915
 6841TIP3    H244719   3.937   3.546   0.914
 6842TIP3   OH244720   5.619   3.624   1.139
 6842TIP3    H144721   5.599   3.616   1.232
 6842TIP3    H244722   5.688   3.689   1.134
 6843TIP3   OH244723   5.566   3.589   1.404
 6843TIP3    H144724   5.533   3.500   1.392
 6843TIP3    H244725   5.623   3.583   1.481
 6844TIP3   OH244726   5.467   3.168   1.898
 6844TIP3    H144727   5.375   3.165   1.924
 6844TIP3    H244728   5.507   3.229   1.960
 6845TIP3   OH244729   5.599   2.985   0.459
 6845TIP3    H144730   5.669   3.049   0.474
 6845TIP3    H244731   5.614   2.917   0.525
 6846TIP3   OH244732   5.637   2.781   0.640
 6846TIP3    H144733   5.556   2.756   0.684
 6846TIP3    H244734   5.698   2.800   0.711
 6847TIP3   OH244735   5.599   3.105   1.154
 6847TIP3    H144736   5.650   3.050   1.094
 6847TIP3    H244737   5.625   3.194   1.132
 6848TIP3   OH244738   5.425   3.364   1.327
 6848TIP3    H144739   5.352   3.404   1.373
 6848TIP3    H244740   5.393   3.352   1.237
 6849TIP3   OH244741   5.547   2.813   0.251
 6849TIP3    H144742   5.471   2.846   0.204
 6849TIP3    H244743   5.561   2.878   0.321
 6850TIP3   OH244744   5.336   2.447   0.172
 6850TIP3    H144745   5.271   2.480   0.111
 6850TIP3    H244746   5.340   2.353   0.154
 6851TIP3   OH244747   5.385   2.686   0.724
 6851TIP3    H144748   5.377   2.603   0.677
 6851TIP3    H244749   5.336   2.673   0.805
 6852TIP3   OH244750   3.863   2.808   1.167
 6852TIP3    H144751   3.870   2.842   1.077
 6852TIP3    H244752   3.949   2.769   1.185
 6853TIP3   OH244753   5.465   2.821   1.634
 6853TIP3    H144754   5.521   2.744   1.632
 6853TIP3    H244755   5.524   2.894   1.616
 6854TIP3   OH244756   5.639   2.581   1.649
 6854TIP3    H144757   5.550   2.545   1.649
 6854TIP3    H244758   5.696   2.505   1.653
 6855TIP3   OH244759   5.351   2.181   0.108
 6855TIP3    H144760   5.442   2.156   0.119
 6855TIP3    H244761   5.304   2.099   0.094
 6856TIP3   OH244762   5.365   2.462   0.541
 6856TIP3    H144763   5.395   2.371   0.549
 6856TIP3    H244764   5.424   2.503   0.478
 6857TIP3   OH244765   5.430   2.479   1.080
 6857TIP3    H144766   5.519   2.504   1.057
 6857TIP3    H244767   5.421   2.504   1.172
 6858TIP3   OH244768   5.415   2.584   1.333
 6858TIP3    H144769   5.335   2.606   1.380
 6858TIP3    H244770   5.457   2.668   1.316
 6859TIP3   OH244771   3.857   2.359   1.616
 6859TIP3    H144772   3.929   2.364   1.679
 6859TIP3    H244773   3.806   2.284   1.645
 6860TIP3   OH244774   5.665   1.981   1.862
 6860TIP3    H144775   5.704   1.905   1.820
 6860TIP3    H244776   5.657   2.046   1.793
 6861TIP3   OH244777   5.436   2.198   0.559
 6861TIP3    H144778   5.471   2.151   0.635
 6861TIP3    H244779   5.365   2.142   0.527
 6862TIP3   OH244780   3.958   2.237   1.066
 6862TIP3    H144781   3.997   2.150   1.064
 6862TIP3    H244782   4.032   2.297   1.075
 6863TIP3   OH244783   3.770   2.561   1.057
 6863TIP3    H144784   3.844   2.545   0.998
 6863TIP3    H244785   3.793   2.643   1.101
 6864TIP3   OH244786   5.577   2.149   1.659
 6864TIP3    H144787   5.494   2.178   1.696
 6864TIP3    H244788   5.552   2.095   1.583
 6865TIP3   OH244789   5.610   2.119   0.183
 6865TIP3    H144790   5.683   2.062   0.205
 6865TIP3    H244791   5.644   2.208   0.196
 6866TIP3   OH244792   3.842   2.175   0.495
 6866TIP3    H144793   3.754   2.178   0.531
 6866TIP3    H244794   3.844   2.245   0.430
 6867TIP3   OH244795   5.265   3.679   0.705
 6867TIP3    H144796   5.348   3.674   0.659
 6867TIP3    H244797   5.277   3.749   0.770
 6868TIP3   OH244798   3.843   1.983   1.332
 6868TIP3    H144799   3.785   1.978   1.408
 6868TIP3    H244800   3.800   2.045   1.273
 6869TIP3   OH244801   4.009   3.411   1.689
 6869TIP3    H144802   3.922   3.392   1.654
 6869TIP3    H244803   4.013   3.365   1.773
 6870TIP3   OH244804   4.380   3.469   1.378
 6870TIP3    H144805   4.354   3.558   1.353
 6870TIP3    H244806   4.475   3.468   1.366
 6871TIP3   OH244807   4.707   3.563   1.649
 6871TIP3    H144808   4.712   3.537   1.742
 6871TIP3    H244809   4.783   3.620   1.637
 6872TIP3   OH244810   4.925   3.723   1.612
 6872TIP3    H144811   4.975   3.683   1.541
 6872TIP3    H244812   4.991   3.750   1.676
 6873TIP3   OH244813   5.504   1.980   1.447
 6873TIP3    H144814   5.445   2.013   1.380
 6873TIP3    H244815   5.492   1.885   1.445
 6874TIP3   OH244816   4.063   3.696   1.390
 6874TIP3    H144817   3.993   3.741   1.342
 6874TIP3    H244818   4.073   3.746   1.470
 6875TIP3   OH244819   4.321   3.727   1.307
 6875TIP3    H144820   4.230   3.718   1.333
 6875TIP3    H244821   4.318   3.771   1.222
 6876TIP3   OH244822   4.758   3.719   1.250
 6876TIP3    H144823   4.700   3.743   1.178
 6876TIP3    H244824   4.761   3.797   1.305
 6877TIP3   OH244825   4.991   3.614   1.354
 6877TIP3    H144826   4.914   3.651   1.310
 6877TIP3    H244827   5.065   3.658   1.313
 6878TIP3   OH244828   5.230   3.707   1.266
 6878TIP3    H144829   5.271   3.794   1.266
 6878TIP3    H244830   5.265   3.664   1.189
 6879TIP3   OH244831   4.047   3.606   1.050
 6879TIP3    H144832   4.029   3.560   1.132
 6879TIP3    H244833   4.128   3.567   1.017
 6880TIP3   OH244834   4.265   3.476   0.950
 6880TIP3    H144835   4.262   3.380   0.943
 6880TIP3    H244836   4.349   3.494   0.993
 6881TIP3   OH244837   4.515   3.484   1.070
 6881TIP3    H144838   4.539   3.400   1.031
 6881TIP3    H244839   4.556   3.482   1.157
 6882TIP3   OH244840   4.762   2.061   0.989
 6882TIP3    H144841   4.703   1.987   0.972
 6882TIP3    H244842   4.849   2.027   0.970
 6883TIP3   OH244843   5.292   2.042   0.860
 6883TIP3    H144844   5.383   2.039   0.832
 6883TIP3    H244845   5.278   2.133   0.886
 6884TIP3   OH244846   5.547   2.057   0.767
 6884TIP3    H144847   5.605   1.983   0.750
 6884TIP3    H244848   5.606   2.131   0.783
 6885TIP3   OH244849   4.028   1.939   0.717
 6885TIP3    H144850   3.942   1.896   0.722
 6885TIP3    H244851   4.090   1.867   0.706
 6886TIP3   OH244852   3.895   1.958   0.329
 6886TIP3    H144853   3.989   1.977   0.332
 6886TIP3    H244854   3.856   2.018   0.391
 6887TIP3   OH244855   4.499   1.973   0.704
 6887TIP3    H144856   4.587   1.997   0.674
 6887TIP3    H244857   4.511   1.947   0.796
 6888TIP3   OH244858   5.033   1.983   0.965
 6888TIP3    H144859   5.116   1.993   0.919
 6888TIP3    H244860   5.014   1.889   0.959
 6889TIP3   OH244861   5.228   2.030   0.485
 6889TIP3    H144862   5.151   2.077   0.514
 6889TIP3    H244863   5.202   1.938   0.485
 6890TIP3   OH244864   3.902   3.574   0.436
 6890TIP3    H144865   3.831   3.560   0.374
 6890TIP3    H244866   3.931   3.663   0.419
 6891TIP3   OH244867   4.144   2.034   0.421
 6891TIP3    H144868   4.169   1.941   0.417
 6891TIP3    H244869   4.220   2.081   0.389
 6892TIP3   OH244870   4.644   2.162   0.421
 6892TIP3    H144871   4.694   2.098   0.472
 6892TIP3    H244872   4.655   2.245   0.469
 6893TIP3   OH244873   4.838   3.721   0.227
 6893TIP3    H144874   4.932   3.733   0.220
 6893TIP3    H244875   4.818   3.647   0.169
 6894TIP3   OH244876   5.491   3.671   0.548
 6894TIP3    H144877   5.462   3.584   0.523
 6894TIP3    H244878   5.482   3.724   0.468
 6895TIP3   OH244879   4.065   2.012   1.625
 6895TIP3    H144880   4.008   1.944   1.660
 6895TIP3    H244881   4.113   2.045   1.702
 6896TIP3   OH244882   4.156   2.090   1.877
 6896TIP3    H144883   4.241   2.057   1.908
 6896TIP3    H244884   4.096   2.073   1.949
 6897TIP3   OH244885   4.346   3.735   0.165
 6897TIP3    H144886   4.354   3.646   0.130
 6897TIP3    H244887   4.429   3.751   0.208
 6898TIP3   OH244888   5.125   1.958   1.891
 6898TIP3    H144889   5.097   1.908   1.968
 6898TIP3    H244890   5.218   1.938   1.882
 6899TIP3   OH244891   5.379   3.485   1.703
 6899TIP3    H144892   5.330   3.472   1.622
 6899TIP3    H244893   5.381   3.580   1.714
 6900TIP3   OH244894   6.873   2.914   0.682
 6900TIP3    H144895   6.849   3.006   0.676
 6900TIP3    H244896   6.823   2.872   0.612
 6901TIP3   OH244897   6.756   2.813   1.064
 6901TIP3    H144898   6.784   2.767   1.143
 6901TIP3    H244899   6.702   2.750   1.017
 6902TIP3   OH244900   5.978   2.798   1.155
 6902TIP3    H144901   5.992   2.728   1.219
 6902TIP3    H244902   6.065   2.818   1.121
 6903TIP3   OH244903   7.134   3.140   0.906
 6903TIP3    H144904   7.083   3.067   0.940
 6903TIP3    H244905   7.141   3.201   0.980
 6904TIP3   OH244906   6.185   3.217   0.927
 6904TIP3    H144907   6.132   3.143   0.897
 6904TIP3    H244908   6.191   3.204   1.022
 6905TIP3   OH244909   5.733   2.548   0.521
 6905TIP3    H144910   5.715   2.632   0.563
 6905TIP3    H244911   5.668   2.541   0.451
 6906TIP3   OH244912   5.838   2.819   0.827
 6906TIP3    H144913   5.874   2.733   0.846
 6906TIP3    H244914   5.914   2.877   0.825
 6907TIP3   OH244915   6.911   3.539   0.979
 6907TIP3    H144916   6.913   3.488   0.898
 6907TIP3    H244917   6.891   3.476   1.047
 6908TIP3   OH244918   6.645   3.067   1.091
 6908TIP3    H144919   6.682   2.982   1.066
 6908TIP3    H244920   6.701   3.097   1.162
 6909TIP3   OH244921   7.442   2.239   1.119
 6909TIP3    H144922   7.434   2.292   1.199
 6909TIP3    H244923   7.471   2.300   1.052
 6910TIP3   OH244924   6.881   2.470   1.083
 6910TIP3    H144925   6.904   2.378   1.094
 6910TIP3    H244926   6.857   2.479   0.991
 6911TIP3   OH244927   6.230   2.264   0.798
 6911TIP3    H144928   6.232   2.351   0.756
 6911TIP3    H244929   6.178   2.210   0.738
 6912TIP3   OH244930   7.020   2.356   0.662
 6912TIP3    H144931   7.066   2.333   0.742
 6912TIP3    H244932   7.086   2.402   0.609
 6913TIP3   OH244933   5.911   2.557   0.891
 6913TIP3    H144934   5.976   2.511   0.943
 6913TIP3    H244935   5.909   2.511   0.807
 6914TIP3   OH244936   6.360   2.693   0.833
 6914TIP3    H144937   6.443   2.656   0.862
 6914TIP3    H244938   6.315   2.621   0.789
 6915TIP3   OH244939   7.405   2.368   1.357
 6915TIP3    H144940   7.360   2.453   1.356
 6915TIP3    H244941   7.473   2.377   1.424
 6916TIP3   OH244942   6.098   2.257   1.258
 6916TIP3    H144943   6.084   2.307   1.178
 6916TIP3    H244944   6.024   2.279   1.314
 6917TIP3   OH244945   6.829   3.173   0.596
 6917TIP3    H144946   6.821   3.161   0.501
 6917TIP3    H244947   6.781   3.254   0.614
 6918TIP3   OH244948   6.392   3.003   1.184
 6918TIP3    H144949   6.336   3.081   1.189
 6918TIP3    H244950   6.474   3.035   1.146
 6919TIP3   OH244951   7.123   2.321   0.906
 6919TIP3    H144952   7.066   2.278   0.970
 6919TIP3    H244953   7.177   2.380   0.959
 6920TIP3   OH244954   6.098   2.382   1.011
 6920TIP3    H144955   6.160   2.446   1.048
 6920TIP3    H244956   6.149   2.336   0.944
 6921TIP3   OH244957   6.206   3.208   1.203
 6921TIP3    H144958   6.229   3.294   1.239
 6921TIP3    H244959   6.135   3.176   1.258
 6922TIP3   OH244960   5.807   3.163   0.479
 6922TIP3    H144961   5.792   3.208   0.396
 6922TIP3    H244962   5.838   3.232   0.538
 6923TIP3   OH244963   7.157   3.330   1.113
 6923TIP3    H144964   7.067   3.347   1.140
 6923TIP3    H244965   7.190   3.415   1.084
 6924TIP3   OH244966   7.215   2.084   1.126
 6924TIP3    H144967   7.141   2.145   1.125
 6924TIP3    H244968   7.292   2.140   1.118
 6925TIP3   OH244969   6.471   1.916   1.037
 6925TIP3    H144970   6.450   1.822   1.040
 6925TIP3    H244971   6.391   1.960   1.064
 6926TIP3   OH244972   6.986   3.461   0.707
 6926TIP3    H144973   7.044   3.387   0.689
 6926TIP3    H244974   7.045   3.533   0.728
 6927TIP3   OH244975   7.101   3.212   0.644
 6927TIP3    H144976   7.009   3.186   0.633
 6927TIP3    H244977   7.123   3.181   0.732
 6928TIP3   OH244978   7.276   3.052   1.396
 6928TIP3    H144979   7.270   3.015   1.308
 6928TIP3    H244980   7.309   3.141   1.382
 6929TIP3   OH244981   6.765   2.816   0.440
 6929TIP3    H144982   6.700   2.878   0.406
 6929TIP3    H244983   6.842   2.829   0.384
 6930TIP3   OH244984   6.599   2.577   0.235
 6930TIP3    H144985   6.658   2.615   0.301
 6930TIP3    H244986   6.626   2.486   0.229
 6931TIP3   OH244987   7.433   2.766   1.224
 6931TIP3    H144988   7.383   2.837   1.184
 6931TIP3    H244989   7.458   2.710   1.151
 6932TIP3   OH244990   7.120   2.892   0.565
 6932TIP3    H144991   7.044   2.905   0.622
 6932TIP3    H244992   7.176   2.832   0.614
 6933TIP3   OH244993   7.020   2.659   1.493
 6933TIP3    H144994   7.006   2.736   1.549
 6933TIP3    H244995   6.961   2.672   1.419
 6934TIP3   OH244996   6.265   2.892   0.658
 6934TIP3    H144997   6.232   2.848   0.580
 6934TIP3    H244998   6.308   2.822   0.708
 6935TIP3   OH244999   6.568   3.304   0.965
 6935TIP3    H145000   6.527   3.283   0.881
 6935TIP3    H245001   6.598   3.219   0.998
 6936TIP3   OH245002   6.236   2.824   1.043
 6936TIP3    H145003   6.290   2.791   0.971
 6936TIP3    H245004   6.295   2.883   1.091
 6937TIP3   OH245005   6.902   3.373   1.208
 6937TIP3    H145006   6.881   3.441   1.272
 6937TIP3    H245007   6.852   3.296   1.238
 6938TIP3   OH245008   6.349   3.276   1.548
 6938TIP3    H145009   6.280   3.296   1.611
 6938TIP3    H245010   6.320   3.316   1.466
 6939TIP3   OH245011   7.022   2.814   0.326
 6939TIP3    H145012   7.058   2.843   0.409
 6939TIP3    H245013   7.073   2.860   0.259
 6940TIP3   OH245014   6.009   2.803   1.519
 6940TIP3    H145015   6.016   2.890   1.559
 6940TIP3    H245016   5.916   2.792   1.501
 6941TIP3   OH245017   6.740   3.440   0.587
 6941TIP3    H145018   6.820   3.448   0.640
 6941TIP3    H245019   6.717   3.530   0.566
 6942TIP3   OH245020   6.140   3.351   1.711
 6942TIP3    H145021   6.111   3.421   1.651
 6942TIP3    H245022   6.059   3.311   1.741
 6943TIP3   OH245023   7.382   1.932   0.337
 6943TIP3    H145024   7.296   1.962   0.365
 6943TIP3    H245025   7.419   2.007   0.289
 6944TIP3   OH245026   6.162   2.791   0.423
 6944TIP3    H145027   6.083   2.842   0.406
 6944TIP3    H245028   6.149   2.709   0.375
 6945TIP3   OH245029   7.593   3.404   0.279
 6945TIP3    H145030   7.611   3.498   0.271
 6945TIP3    H245031   7.673   3.361   0.250
 6946TIP3   OH245032   5.758   3.033   1.377
 6946TIP3    H145033   5.696   3.055   1.308
 6946TIP3    H245034   5.756   2.938   1.382
 6947TIP3   OH245035   5.699   3.359   1.106
 6947TIP3    H145036   5.774   3.365   1.166
 6947TIP3    H245037   5.655   3.443   1.114
 6948TIP3   OH245038   7.582   3.452   1.660
 6948TIP3    H145039   7.592   3.357   1.663
 6948TIP3    H245040   7.494   3.468   1.694
 6949TIP3   OH245041   6.611   3.361   1.558
 6949TIP3    H145042   6.605   3.439   1.613
 6949TIP3    H245043   6.521   3.330   1.552
 6950TIP3   OH245044   6.726   3.693   0.481
 6950TIP3    H145045   6.707   3.715   0.389
 6950TIP3    H245046   6.696   3.769   0.530
 6951TIP3   OH245047   6.083   3.565   0.715
 6951TIP3    H145048   6.111   3.540   0.803
 6951TIP3    H245049   6.030   3.491   0.686
 6952TIP3   OH245050   6.995   3.723   0.195
 6952TIP3    H145051   7.000   3.641   0.145
 6952TIP3    H245052   7.007   3.696   0.286
 6953TIP3   OH245053   6.995   3.638   0.459
 6953TIP3    H145054   6.901   3.654   0.470
 6953TIP3    H245055   7.015   3.567   0.520
 6954TIP3   OH245056   7.210   2.528   1.668
 6954TIP3    H145057   7.144   2.579   1.620
 6954TIP3    H245058   7.202   2.439   1.632
 6955TIP3   OH245059   6.003   3.155   1.381
 6955TIP3    H145060   6.032   3.133   1.470
 6955TIP3    H245061   5.918   3.113   1.373
 6956TIP3   OH245062   6.219   2.037   1.117
 6956TIP3    H145063   6.148   2.020   1.055
 6956TIP3    H245064   6.191   2.115   1.165
 6957TIP3   OH245065   6.668   2.035   1.458
 6957TIP3    H145066   6.705   1.982   1.529
 6957TIP3    H245067   6.574   2.037   1.477
 6958TIP3   OH245068   6.917   2.394   1.506
 6958TIP3    H145069   6.883   2.382   1.594
 6958TIP3    H245070   6.947   2.485   1.504
 6959TIP3   OH245071   7.198   2.986   0.195
 6959TIP3    H145072   7.152   3.051   0.142
 6959TIP3    H245073   7.224   3.034   0.274
 6960TIP3   OH245074   6.650   2.307   0.207
 6960TIP3    H145075   6.624   2.251   0.280
 6960TIP3    H245076   6.586   2.288   0.139
 6961TIP3   OH245077   6.240   2.570   1.157
 6961TIP3    H145078   6.176   2.575   1.228
 6961TIP3    H245079   6.240   2.658   1.119
 6962TIP3   OH245080   6.197   2.512   0.688
 6962TIP3    H145081   6.101   2.506   0.682
 6962TIP3    H245082   6.227   2.485   0.601
 6963TIP3   OH245083   6.767   2.570   0.552
 6963TIP3    H145084   6.755   2.662   0.526
 6963TIP3    H245085   6.844   2.542   0.504
 6964TIP3   OH245086   6.633   2.615   1.681
 6964TIP3    H145087   6.600   2.535   1.723
 6964TIP3    H245088   6.721   2.626   1.716
 6965TIP3   OH245089   6.837   2.501   0.812
 6965TIP3    H145090   6.798   2.548   0.738
 6965TIP3    H245091   6.892   2.434   0.772
 6966TIP3   OH245092   6.036   2.594   1.336
 6966TIP3    H145093   6.030   2.654   1.410
 6966TIP3    H245094   5.980   2.520   1.360
 6967TIP3   OH245095   6.423   2.238   0.066
 6967TIP3    H145096   6.370   2.216   0.143
 6967TIP3    H245097   6.379   2.196  -0.007
 6968TIP3   OH245098   5.712   2.268   0.797
 6968TIP3    H145099   5.761   2.265   0.880
 6968TIP3    H245100   5.769   2.318   0.738
 6969TIP3   OH245101   5.723   2.362   0.251
 6969TIP3    H145102   5.801   2.406   0.217
 6969TIP3    H245103   5.662   2.434   0.269
 6970TIP3   OH245104   6.840   2.652   1.282
 6970TIP3    H145105   6.863   2.588   1.215
 6970TIP3    H245106   6.760   2.617   1.322
 6971TIP3   OH245107   6.514   2.292   0.797
 6971TIP3    H145108   6.422   2.267   0.812
 6971TIP3    H245109   6.564   2.224   0.842
 6972TIP3   OH245110   5.929   2.414   0.659
 6972TIP3    H145111   5.869   2.450   0.594
 6972TIP3    H245112   5.959   2.331   0.622
 6973TIP3   OH245113   6.282   2.411   0.447
 6973TIP3    H145114   6.374   2.432   0.462
 6973TIP3    H245115   6.255   2.474   0.380
 6974TIP3   OH245116   6.962   2.199   1.090
 6974TIP3    H145117   6.917   2.197   1.175
 6974TIP3    H245118   6.932   2.120   1.046
 6975TIP3   OH245119   6.167   2.571   0.256
 6975TIP3    H145120   6.086   2.543   0.212
 6975TIP3    H245121   6.229   2.588   0.185
 6976TIP3   OH245122   7.310   3.772   1.698
 6976TIP3    H145123   7.327   3.799   1.608
 6976TIP3    H245124   7.385   3.805   1.748
 6977TIP3   OH245125   6.019   3.049   1.647
 6977TIP3    H145126   6.073   3.026   1.722
 6977TIP3    H245127   5.960   3.117   1.680
 6978TIP3   OH245128   6.596   2.591   0.955
 6978TIP3    H145129   6.661   2.540   0.907
 6978TIP3    H245130   6.567   2.532   1.024
 6979TIP3   OH245131   6.044   2.164   0.605
 6979TIP3    H145132   6.004   2.089   0.651
 6979TIP3    H245133   6.057   2.133   0.516
 6980TIP3   OH245134   6.489   2.458   1.183
 6980TIP3    H145135   6.406   2.506   1.177
 6980TIP3    H245136   6.533   2.497   1.258
 6981TIP3   OH245137   6.574   2.993   0.354
 6981TIP3    H145138   6.508   2.949   0.300
 6981TIP3    H245139   6.523   3.039   0.421
 6982TIP3   OH245140   7.259   2.960   1.136
 6982TIP3    H145141   7.303   3.022   1.079
 6982TIP3    H245142   7.176   2.941   1.093
 6983TIP3   OH245143   6.915   2.297   0.279
 6983TIP3    H145144   6.829   2.304   0.239
 6983TIP3    H245145   6.937   2.387   0.304
 6984TIP3   OH245146   6.656   3.076   1.552
 6984TIP3    H145147   6.701   3.042   1.628
 6984TIP3    H245148   6.642   3.169   1.570
 6985TIP3   OH245149   6.988   2.544   0.383
 6985TIP3    H145150   7.073   2.524   0.422
 6985TIP3    H245151   6.997   2.634   0.352
 6986TIP3   OH245152   6.080   2.961   0.852
 6986TIP3    H145153   6.137   2.950   0.776
 6986TIP3    H245154   6.125   2.914   0.923
 6987TIP3   OH245155   6.790   3.161   0.322
 6987TIP3    H145156   6.741   3.243   0.311
 6987TIP3    H245157   6.723   3.093   0.317
 6988TIP3   OH245158   5.744   2.756   1.458
 6988TIP3    H145159   5.716   2.693   1.524
 6988TIP3    H245160   5.671   2.758   1.395
 6989TIP3   OH245161   6.424   2.782   1.757
 6989TIP3    H145162   6.361   2.759   1.688
 6989TIP3    H245163   6.504   2.736   1.732
 6990TIP3   OH245164   6.899   3.344   1.557
 6990TIP3    H145165   6.806   3.352   1.536
 6990TIP3    H245166   6.902   3.346   1.653
 6991TIP3   OH245167   7.421   2.541   0.333
 6991TIP3    H145168   7.399   2.482   0.261
 6991TIP3    H245169   7.416   2.628   0.295
 6992TIP3   OH245170   7.534   3.181   1.626
 6992TIP3    H145171   7.439   3.179   1.638
 6992TIP3    H245172   7.549   3.136   1.543
 6993TIP3   OH245173   7.361   3.400   0.428
 6993TIP3    H145174   7.323   3.312   0.422
 6993TIP3    H245175   7.441   3.395   0.375
 6994TIP3   OH245176   7.021   2.904   1.004
 6994TIP3    H145177   6.927   2.895   1.020
 6994TIP3    H245178   7.044   2.826   0.954
 6995TIP3   OH245179   6.393   3.278   0.748
 6995TIP3    H145180   6.381   3.367   0.716
 6995TIP3    H245181   6.317   3.263   0.805
 6996TIP3   OH245182   5.816   2.754   0.214
 6996TIP3    H145183   5.861   2.822   0.265
 6996TIP3    H245184   5.724   2.777   0.220
 6997TIP3   OH245185   6.399   3.104   0.537
 6997TIP3    H145186   6.411   3.167   0.608
 6997TIP3    H245187   6.351   3.031   0.578
 6998TIP3   OH245188   6.524   3.517   1.327
 6998TIP3    H145189   6.575   3.598   1.316
 6998TIP3    H245190   6.570   3.469   1.395
 6999TIP3   OH245191   6.350   3.534   0.648
 6999TIP3    H145192   6.261   3.563   0.665
 6999TIP3    H245193   6.405   3.605   0.682
 7000TIP3   OH245194   6.794   3.133   1.316
 7000TIP3    H145195   6.730   3.114   1.385
 7000TIP3    H245196   6.877   3.104   1.352
 7001TIP3   OH245197   7.047   3.232   0.242
 7001TIP3    H145198   7.107   3.217   0.315
 7001TIP3    H245199   6.963   3.200   0.273
 7002TIP3   OH245200   7.130   3.480   1.478
 7002TIP3    H145201   7.045   3.443   1.498
 7002TIP3    H245202   7.110   3.556   1.423
 7003TIP3   OH245203   7.634   3.682   0.288
 7003TIP3    H145204   7.686   3.761   0.273
 7003TIP3    H245205   7.546   3.714   0.304
 7004TIP3   OH245206   5.877   2.374   1.402
 7004TIP3    H145207   5.789   2.378   1.365
 7004TIP3    H245208   5.864   2.360   1.495
 7005TIP3   OH245209   7.255   3.138   0.422
 7005TIP3    H145210   7.207   3.147   0.504
 7005TIP3    H245211   7.331   3.083   0.445
 7006TIP3   OH245212   5.913   3.404   1.278
 7006TIP3    H145213   5.948   3.319   1.305
 7006TIP3    H245214   5.933   3.462   1.351
 7007TIP3   OH245215   6.282   3.248   0.328
 7007TIP3    H145216   6.321   3.199   0.400
 7007TIP3    H245217   6.315   3.337   0.340
 7008TIP3   OH245218   5.948   2.956   0.355
 7008TIP3    H145219   5.899   3.007   0.419
 7008TIP3    H245220   5.986   3.020   0.296
 7009TIP3   OH245221   6.841   2.201   1.328
 7009TIP3    H145222   6.865   2.269   1.391
 7009TIP3    H245223   6.778   2.146   1.375
 7010TIP3   OH245224   6.905   2.157   0.516
 7010TIP3    H145225   6.901   2.197   0.429
 7010TIP3    H245226   6.940   2.226   0.572
 7011TIP3   OH245227   6.634   3.386   0.336
 7011TIP3    H145228   6.543   3.417   0.338
 7011TIP3    H245229   6.667   3.403   0.424
 7012TIP3   OH245230   6.539   2.418   0.556
 7012TIP3    H145231   6.616   2.475   0.557
 7012TIP3    H245232   6.532   2.385   0.645
 7013TIP3   OH245233   6.629   2.530   1.414
 7013TIP3    H145234   6.615   2.575   1.497
 7013TIP3    H245235   6.664   2.444   1.439
 7014TIP3   OH245236   6.687   2.034   0.628
 7014TIP3    H145237   6.687   2.059   0.720
 7014TIP3    H245238   6.768   2.070   0.593
 7015TIP3   OH245239   6.380   3.502   0.379
 7015TIP3    H145240   6.403   3.588   0.345
 7015TIP3    H245241   6.375   3.513   0.474
 7016TIP3   OH245242   6.310   2.169   0.312
 7016TIP3    H145243   6.273   2.247   0.353
 7016TIP3    H245244   6.395   2.157   0.354
 7017TIP3   OH245245   7.187   2.294   1.527
 7017TIP3    H145246   7.097   2.299   1.493
 7017TIP3    H245247   7.242   2.299   1.449
 7018TIP3   OH245248   7.074   2.650   0.899
 7018TIP3    H145249   6.990   2.606   0.883
 7018TIP3    H245250   7.118   2.596   0.965
 7019TIP3   OH245251   6.044   3.170   0.207
 7019TIP3    H145252   6.108   3.212   0.265
 7019TIP3    H245253   6.097   3.138   0.134
 7020TIP3   OH245254   5.922   2.522   0.129
 7020TIP3    H145255   5.887   2.604   0.163
 7020TIP3    H245256   5.910   2.527   0.035
 7021TIP3   OH245257   7.281   3.581   1.083
 7021TIP3    H145258   7.268   3.651   1.019
 7021TIP3    H245259   7.375   3.580   1.100
 7022TIP3   OH245260   5.983   1.988   0.981
 7022TIP3    H145261   5.976   1.977   0.886
 7022TIP3    H245262   5.957   1.903   1.017
 7023TIP3   OH245263   5.880   3.392   0.621
 7023TIP3    H145264   5.832   3.418   0.700
 7023TIP3    H245265   5.864   3.463   0.559
 7024TIP3   OH245266   5.726   3.585   1.630
 7024TIP3    H145267   5.818   3.581   1.602
 7024TIP3    H245268   5.710   3.500   1.671
 7025TIP3   OH245269   6.301   3.481   1.895
 7025TIP3    H145270   6.377   3.423   1.896
 7025TIP3    H245271   6.242   3.440   1.831
 7026TIP3   OH245272   6.728   3.512   0.106
 7026TIP3    H145273   6.695   3.456   0.176
 7026TIP3    H245274   6.819   3.486   0.094
 7027TIP3   OH245275   6.911   3.350   1.831
 7027TIP3    H145276   6.912   3.270   1.885
 7027TIP3    H245277   6.991   3.396   1.857
 7028TIP3   OH245278   7.002   3.458   0.092
 7028TIP3    H145279   7.020   3.385   0.150
 7028TIP3    H245280   7.054   3.441   0.014
 7029TIP3   OH245281   5.752   3.003   1.870
 7029TIP3    H145282   5.758   2.908   1.871
 7029TIP3    H245283   5.708   3.024   1.788
 7030TIP3   OH245284   6.283   3.091   0.093
 7030TIP3    H145285   6.317   3.009   0.130
 7030TIP3    H245286   6.304   3.157   0.159
 7031TIP3   OH245287   6.411   3.078   1.734
 7031TIP3    H145288   6.394   3.129   1.654
 7031TIP3    H245289   6.439   2.993   1.702
 7032TIP3   OH245290   7.013   3.096   1.486
 7032TIP3    H145291   7.104   3.100   1.454
 7032TIP3    H245292   6.992   3.186   1.508
 7033TIP3   OH245293   5.742   2.727   1.869
 7033TIP3    H145294   5.707   2.670   1.800
 7033TIP3    H245295   5.682   2.714   1.943
 7034TIP3   OH245296   6.359   2.867   0.238
 7034TIP3    H145297   6.297   2.846   0.307
 7034TIP3    H245298   6.362   2.788   0.184
 7035TIP3   OH245299   6.274   2.714   1.537
 7035TIP3    H145300   6.184   2.745   1.527
 7035TIP3    H245301   6.328   2.780   1.494
 7036TIP3   OH245302   6.377   2.632   0.090
 7036TIP3    H145303   6.403   2.620  -0.002
 7036TIP3    H245304   6.455   2.610   0.140
 7037TIP3   OH245305   6.800   2.972   1.781
 7037TIP3    H145306   6.878   2.931   1.744
 7037TIP3    H245307   6.765   2.908   1.842
 7038TIP3   OH245308   7.247   2.887   9.764
 7038TIP3    H145309   7.307   2.811   9.761
 7038TIP3    H245310   7.305   2.961   9.781
 7039TIP3   OH245311   6.320   2.445   1.607
 7039TIP3    H145312   6.329   2.394   1.526
 7039TIP3    H245313   6.307   2.535   1.576
 7040TIP3   OH245314   6.346   2.294   1.370
 7040TIP3    H145315   6.401   2.329   1.300
 7040TIP3    H245316   6.259   2.285   1.332
 7041TIP3   OH245317   6.438   2.918   1.448
 7041TIP3    H145318   6.516   2.967   1.473
 7041TIP3    H245319   6.421   2.945   1.358
 7042TIP3   OH245320   6.878   2.619   1.811
 7042TIP3    H145321   6.879   2.523   1.804
 7042TIP3    H245322   6.964   2.641   1.844
 7043TIP3   OH245323   7.046   2.887   1.660
 7043TIP3    H145324   7.022   2.961   1.604
 7043TIP3    H245325   7.140   2.876   1.646
 7044TIP3   OH245326   6.145   2.401   1.821
 7044TIP3    H145327   6.082   2.335   1.792
 7044TIP3    H245328   6.196   2.421   1.742
 7045TIP3   OH245329   6.394   2.038   1.471
 7045TIP3    H145330   6.374   2.126   1.441
 7045TIP3    H245331   6.331   1.982   1.425
 7046TIP3   OH245332   6.527   2.381   1.786
 7046TIP3    H145333   6.485   2.350   1.866
 7046TIP3    H245334   6.455   2.392   1.724
 7047TIP3   OH245335   6.810   2.358   1.755
 7047TIP3    H145336   6.718   2.344   1.775
 7047TIP3    H245337   6.855   2.284   1.798
 7048TIP3   OH245338   6.952   2.159   1.878
 7048TIP3    H145339   6.950   2.064   1.867
 7048TIP3    H245340   6.939   2.172   1.972
 7049TIP3   OH245341   5.973   2.184   1.782
 7049TIP3    H145342   5.970   2.103   1.731
 7049TIP3    H245343   6.000   2.156   1.869
 7050TIP3   OH245344   6.391   1.920   1.717
 7050TIP3    H145345   6.444   1.842   1.701
 7050TIP3    H245346   6.388   1.965   1.633
 7051TIP3   OH245347   6.463   2.049   1.947
 7051TIP3    H145348   6.440   2.006   1.865
 7051TIP3    H245349   6.413   2.130   1.947
 7052TIP3   OH245350   6.453   3.752   0.295
 7052TIP3    H145351   6.540   3.766   0.257
 7052TIP3    H245352   6.407   3.835   0.280
 7053TIP3   OH245353   5.781   3.248   0.212
 7053TIP3    H145354   5.876   3.233   0.210
 7053TIP3    H245355   5.750   3.218   0.126
 7054TIP3   OH245356   5.708   3.706   0.709
 7054TIP3    H145357   5.636   3.687   0.649
 7054TIP3    H245358   5.717   3.626   0.761
 7055TIP3   OH245359   5.776   3.484   0.862
 7055TIP3    H145360   5.730   3.420   0.916
 7055TIP3    H245361   5.835   3.528   0.922
 7056TIP3   OH245362   7.554   3.623   1.160
 7056TIP3    H145363   7.545   3.589   1.249
 7056TIP3    H245364   7.563   3.718   1.171
 7057TIP3   OH245365   7.495   3.519   1.405
 7057TIP3    H145366   7.445   3.440   1.386
 7057TIP3    H245367   7.540   3.500   1.487
 7058TIP3   OH245368   7.350   3.186   1.884
 7058TIP3    H145369   7.291   3.205   1.956
 7058TIP3    H245370   7.430   3.234   1.905
 7059TIP3   OH245371   7.488   2.980   0.459
 7059TIP3    H145372   7.569   3.031   0.457
 7059TIP3    H245373   7.497   2.925   0.537
 7060TIP3   OH245374   7.496   2.803   0.674
 7060TIP3    H145375   7.407   2.772   0.686
 7060TIP3    H245376   7.531   2.811   0.763
 7061TIP3   OH245377   7.536   3.096   1.133
 7061TIP3    H145378   7.617   3.056   1.101
 7061TIP3    H245379   7.543   3.188   1.108
 7062TIP3   OH245380   7.310   3.321   1.345
 7062TIP3    H145381   7.247   3.373   1.394
 7062TIP3    H245382   7.273   3.316   1.257
 7063TIP3   OH245383   7.403   2.804   0.258
 7063TIP3    H145384   7.334   2.854   0.216
 7063TIP3    H245385   7.438   2.862   0.325
 7064TIP3   OH245386   7.319   2.346   0.140
 7064TIP3    H145387   7.288   2.387   0.059
 7064TIP3    H245388   7.254   2.279   0.160
 7065TIP3   OH245389   7.251   2.686   0.695
 7065TIP3    H145390   7.242   2.607   0.643
 7065TIP3    H245391   7.192   2.674   0.769
 7066TIP3   OH245392   5.730   2.864   1.072
 7066TIP3    H145393   5.747   2.863   0.978
 7066TIP3    H245394   5.816   2.851   1.113
 7067TIP3   OH245395   7.313   2.864   1.597
 7067TIP3    H145396   7.374   2.794   1.573
 7067TIP3    H245397   7.315   2.923   1.522
 7068TIP3   OH245398   7.460   2.609   1.586
 7068TIP3    H145399   7.375   2.587   1.623
 7068TIP3    H245400   7.513   2.530   1.596
 7069TIP3   OH245401   7.125   2.152   0.169
 7069TIP3    H145402   7.099   2.060   0.168
 7069TIP3    H245403   7.049   2.197   0.206
 7070TIP3   OH245404   7.228   2.471   0.513
 7070TIP3    H145405   7.256   2.381   0.525
 7070TIP3    H245406   7.292   2.509   0.453
 7071TIP3   OH245407   7.244   2.503   1.070
 7071TIP3    H145408   7.337   2.518   1.054
 7071TIP3    H245409   7.232   2.524   1.163
 7072TIP3   OH245410   7.247   2.591   1.334
 7072TIP3    H145411   7.174   2.627   1.385
 7072TIP3    H245412   7.300   2.668   1.313
 7073TIP3   OH245413   5.778   2.339   1.660
 7073TIP3    H145414   5.847   2.297   1.713
 7073TIP3    H245415   5.707   2.274   1.658
 7074TIP3   OH245416   7.520   1.986   1.826
 7074TIP3    H145417   7.598   1.934   1.804
 7074TIP3    H245418   7.509   2.044   1.751
 7075TIP3   OH245419   7.302   2.212   0.537
 7075TIP3    H145420   7.325   2.177   0.623
 7075TIP3    H245421   7.249   2.143   0.497
 7076TIP3   OH245422   5.862   2.231   1.025
 7076TIP3    H145423   5.900   2.144   1.017
 7076TIP3    H245424   5.936   2.291   1.022
 7077TIP3   OH245425   5.678   2.584   1.041
 7077TIP3    H145426   5.754   2.562   0.987
 7077TIP3    H245427   5.689   2.677   1.061
 7078TIP3   OH245428   7.425   2.137   1.616
 7078TIP3    H145429   7.342   2.171   1.650
 7078TIP3    H245430   7.399   2.079   1.544
 7079TIP3   OH245431   7.501   2.147   0.207
 7079TIP3    H145432   7.557   2.133   0.131
 7079TIP3    H245433   7.443   2.220   0.182
 7080TIP3   OH245434   5.707   2.189   0.470
 7080TIP3    H145435   5.618   2.202   0.504
 7080TIP3    H245436   5.718   2.259   0.405
 7081TIP3   OH245437   7.142   3.682   0.738
 7081TIP3    H145438   7.209   3.675   0.670
 7081TIP3    H245439   7.185   3.728   0.809
 7082TIP3   OH245440   5.736   1.967   1.296
 7082TIP3    H145441   5.669   1.972   1.365
 7082TIP3    H245442   5.717   2.042   1.239
 7083TIP3   OH245443   5.882   3.261   1.765
 7083TIP3    H145444   5.799   3.293   1.729
 7083TIP3    H245445   5.866   3.251   1.859
 7084TIP3   OH245446   6.250   3.438   1.347
 7084TIP3    H145447   6.181   3.486   1.392
 7084TIP3    H245448   6.321   3.502   1.337
 7085TIP3   OH245449   6.604   3.592   1.708
 7085TIP3    H145450   6.622   3.567   1.799
 7085TIP3    H245451   6.681   3.642   1.682
 7086TIP3   OH245452   6.835   3.713   1.622
 7086TIP3    H145453   6.865   3.669   1.542
 7086TIP3    H245454   6.912   3.714   1.679
 7087TIP3   OH245455   7.354   1.923   1.447
 7087TIP3    H145456   7.280   1.906   1.389
 7087TIP3    H245457   7.407   1.843   1.442
 7088TIP3   OH245458   6.004   3.828   1.378
 7088TIP3    H145459   5.919   3.837   1.336
 7088TIP3    H245460   6.001   3.742   1.420
 7089TIP3   OH245461   6.271   3.759   1.321
 7089TIP3    H145462   6.181   3.773   1.350
 7089TIP3    H245463   6.271   3.787   1.229
 7090TIP3   OH245464   6.665   3.747   1.261
 7090TIP3    H145465   6.615   3.776   1.185
 7090TIP3    H245466   6.667   3.824   1.318
 7091TIP3   OH245467   6.881   3.613   1.361
 7091TIP3    H145468   6.807   3.656   1.319
 7091TIP3    H245469   6.958   3.653   1.320
 7092TIP3   OH245470   7.133   3.700   1.283
 7092TIP3    H145471   7.126   3.789   1.248
 7092TIP3    H245472   7.173   3.649   1.212
 7093TIP3   OH245473   5.947   3.582   1.059
 7093TIP3    H145474   5.932   3.532   1.140
 7093TIP3    H245475   6.034   3.554   1.031
 7094TIP3   OH245476   6.185   3.490   0.960
 7094TIP3    H145477   6.186   3.395   0.952
 7094TIP3    H245478   6.271   3.512   0.997
 7095TIP3   OH245479   6.441   3.523   1.064
 7095TIP3    H145480   6.490   3.453   1.023
 7095TIP3    H245481   6.459   3.514   1.157
 7096TIP3   OH245482   6.658   2.071   0.901
 7096TIP3    H145483   6.598   2.024   0.959
 7096TIP3    H245484   6.745   2.039   0.924
 7097TIP3   OH245485   7.186   1.961   0.881
 7097TIP3    H145486   7.250   2.009   0.829
 7097TIP3    H245487   7.195   1.996   0.969
 7098TIP3   OH245488   7.396   2.093   0.765
 7098TIP3    H145489   7.460   2.024   0.751
 7098TIP3    H245490   7.447   2.173   0.774
 7099TIP3   OH245491   5.948   1.931   0.715
 7099TIP3    H145492   5.856   1.905   0.704
 7099TIP3    H245493   5.998   1.851   0.700
 7100TIP3   OH245494   5.807   1.974   0.334
 7100TIP3    H145495   5.900   1.995   0.330
 7100TIP3    H245496   5.771   2.039   0.394
 7101TIP3   OH245497   6.462   1.887   0.740
 7101TIP3    H145498   6.531   1.938   0.698
 7101TIP3    H245499   6.471   1.906   0.833
 7102TIP3   OH245500   6.908   1.965   0.955
 7102TIP3    H145501   6.991   1.963   0.907
 7102TIP3    H245502   6.892   1.874   0.979
 7103TIP3   OH245503   7.135   2.010   0.457
 7103TIP3    H145504   7.058   2.062   0.476
 7103TIP3    H245505   7.103   1.920   0.451
 7104TIP3   OH245506   5.848   3.593   0.437
 7104TIP3    H145507   5.778   3.577   0.374
 7104TIP3    H245508   5.846   3.688   0.450
 7105TIP3   OH245509   6.076   2.029   0.360
 7105TIP3    H145510   6.097   1.935   0.362
 7105TIP3    H245511   6.157   2.071   0.330
 7106TIP3   OH245512   6.553   2.175   0.430
 7106TIP3    H145513   6.592   2.115   0.493
 7106TIP3    H245514   6.548   2.259   0.477
 7107TIP3   OH245515   6.715   3.762   0.210
 7107TIP3    H145516   6.807   3.786   0.199
 7107TIP3    H245517   6.706   3.681   0.161
 7108TIP3   OH245518   7.337   3.644   0.545
 7108TIP3    H145519   7.341   3.553   0.513
 7108TIP3    H245520   7.352   3.697   0.467
 7109TIP3   OH245521   5.963   1.922   1.681
 7109TIP3    H145522   5.889   1.865   1.703
 7109TIP3    H245523   6.032   1.895   1.741
 7110TIP3   OH245524   6.166   1.862   1.865
 7110TIP3    H145525   6.243   1.891   1.815
 7110TIP3    H245526   6.185   1.770   1.886
 7111TIP3   OH245527   6.120   3.655   0.364
 7111TIP3    H145528   6.040   3.608   0.389
 7111TIP3    H245529   6.187   3.587   0.359
 7112TIP3   OH245530   7.007   1.893   1.811
 7112TIP3    H145531   7.002   1.843   1.892
 7112TIP3    H245532   7.098   1.886   1.783
 7113TIP3   OH245533   7.308   3.499   1.692
 7113TIP3    H145534   7.249   3.482   1.618
 7113TIP3    H245535   7.312   3.595   1.697
 7114TIP3   OH245536   7.579   2.560   0.565
 7114TIP3    H145537   7.547   2.645   0.595
 7114TIP3    H245538   7.532   2.544   0.483
 7115TIP3   OH245539   7.587   3.036   1.399
 7115TIP3    H145540   7.553   3.056   1.311
 7115TIP3    H245541   7.584   2.940   1.405
 7116TIP3   OH245542   7.617   3.354   1.070
 7116TIP3    H145543   7.712   3.340   1.065
 7116TIP3    H245544   7.608   3.438   1.115
 7117TIP3   OH245545   7.522   2.342   0.748
 7117TIP3    H145546   7.610   2.318   0.775
 7117TIP3    H245547   7.534   2.414   0.686
 7118TIP3   OH245548   7.619   2.760   1.423
 7118TIP3    H145549   7.573   2.706   1.488
 7118TIP3    H245550   7.566   2.751   1.344
 7119TIP3   OH245551   7.653   3.007   1.805
 7119TIP3    H145552   7.576   2.962   1.841
 7119TIP3    H245553   7.616   3.078   1.752
 7120TIP3   OH245554   7.517   3.775   0.705
 7120TIP3    H145555   7.455   3.734   0.644
 7120TIP3    H245556   7.529   3.710   0.774
 7121TIP3   OH245557   7.569   3.582   0.887
 7121TIP3    H145558   7.564   3.486   0.886
 7121TIP3    H245559   7.571   3.605   0.980
 7122TIP3   OH245560   7.618   2.791   0.927
 7122TIP3    H145561   7.700   2.771   0.882
 7122TIP3    H245562   7.643   2.856   0.993
 7123TIP3   OH245563   7.584   2.359   1.579
 7123TIP3    H145564   7.673   2.334   1.605
 7123TIP3    H245565   7.531   2.282   1.598
 7124TIP3   OH245566   7.514   2.560   1.049
 7124TIP3    H145567   7.598   2.531   1.086
 7124TIP3    H245568   7.538   2.621   0.980
 7125TIP3   OH245569   7.579   2.199   0.466
 7125TIP3    H145570   7.494   2.218   0.505
 7125TIP3    H245571   7.559   2.177   0.375
 7126TIP3   OH245572   7.560   2.018   1.241
 7126TIP3    H145573   7.496   2.004   1.310
 7126TIP3    H245574   7.523   2.087   1.187
 7127TIP3   OH245575   1.221   4.770   0.637
 7127TIP3    H145576   1.217   4.866   0.635
 7127TIP3    H245577   1.160   4.742   0.568
 7128TIP3   OH245578   1.125   4.735   1.062
 7128TIP3    H145579   1.150   4.694   1.144
 7128TIP3    H245580   1.080   4.666   1.013
 7129TIP3   OH245581   0.378   4.660   1.216
 7129TIP3    H145582   0.323   4.583   1.231
 7129TIP3    H245583   0.408   4.685   1.303
 7130TIP3   OH245584   1.479   5.057   0.887
 7130TIP3    H145585   1.448   4.976   0.929
 7130TIP3    H245586   1.492   5.117   0.960
 7131TIP3   OH245587   0.483   5.082   1.013
 7131TIP3    H145588   0.456   4.990   1.006
 7131TIP3    H245589   0.578   5.078   1.024
 7132TIP3   OH245590   0.143   4.478   0.493
 7132TIP3    H145591   0.124   4.520   0.409
 7132TIP3    H245592   0.068   4.500   0.548
 7133TIP3   OH245593   0.111   4.673   0.794
 7133TIP3    H145594   0.084   4.633   0.876
 7133TIP3    H245595   0.043   4.647   0.731
 7134TIP3   OH245596   1.218   5.434   0.980
 7134TIP3    H145597   1.244   5.385   0.902
 7134TIP3    H245598   1.213   5.367   1.049
 7135TIP3   OH245599   0.997   4.980   1.089
 7135TIP3    H145600   1.039   4.899   1.062
 7135TIP3    H245601   1.053   5.014   1.159
 7136TIP3   OH245602   1.869   4.073   1.209
 7136TIP3    H145603   1.852   4.161   1.242
 7136TIP3    H245604   1.939   4.084   1.145
 7137TIP3   OH245605   1.247   4.396   1.082
 7137TIP3    H145606   1.230   4.304   1.102
 7137TIP3    H245607   1.240   4.402   0.987
 7138TIP3   OH245608   0.620   4.207   0.805
 7138TIP3    H145609   0.632   4.293   0.764
 7138TIP3    H245610   0.562   4.160   0.745
 7139TIP3   OH245611   1.395   4.214   0.715
 7139TIP3    H145612   1.426   4.179   0.799
 7139TIP3    H245613   1.474   4.248   0.673
 7140TIP3   OH245614   0.345   4.496   0.882
 7140TIP3    H145615   0.388   4.437   0.945
 7140TIP3    H245616   0.336   4.443   0.803
 7141TIP3   OH245617   0.797   4.645   0.790
 7141TIP3    H145618   0.874   4.605   0.832
 7141TIP3    H245619   0.750   4.572   0.752
 7142TIP3   OH245620   1.831   4.332   1.289
 7142TIP3    H145621   1.741   4.364   1.289
 7142TIP3    H245622   1.870   4.370   1.368
 7143TIP3   OH245623   0.499   4.124   1.237
 7143TIP3    H145624   0.480   4.187   1.167
 7143TIP3    H245625   0.427   4.137   1.300
 7144TIP3   OH245626   1.209   5.038   0.560
 7144TIP3    H145627   1.186   5.016   0.470
 7144TIP3    H245628   1.165   5.121   0.577
 7145TIP3   OH245629   0.758   4.912   1.211
 7145TIP3    H145630   0.707   4.988   1.239
 7145TIP3    H245631   0.837   4.949   1.171
 7146TIP3   OH245632   1.441   4.138   0.974
 7146TIP3    H145633   1.361   4.132   1.026
 7146TIP3    H245634   1.485   4.217   1.007
 7147TIP3   OH245635   0.475   4.293   1.023
 7147TIP3    H145636   0.531   4.356   1.069
 7147TIP3    H245637   0.531   4.258   0.954
 7148TIP3   OH245638   0.609   5.124   1.308
 7148TIP3    H145639   0.617   5.218   1.325
 7148TIP3    H245640   0.515   5.107   1.313
 7149TIP3   OH245641   0.032   5.051   0.420
 7149TIP3    H145642   0.024   5.085   0.331
 7149TIP3    H245643   0.069   5.124   0.470
 7150TIP3   OH245644   1.489   5.259   1.084
 7150TIP3    H145645   1.400   5.266   1.119
 7150TIP3    H245646   1.512   5.347   1.056
 7151TIP3   OH245647   1.639   3.913   1.229
 7151TIP3    H145648   1.610   3.902   1.138
 7151TIP3    H245649   1.717   3.969   1.222
 7152TIP3   OH245650   0.826   3.766   1.044
 7152TIP3    H145651   0.801   3.673   1.046
 7152TIP3    H245652   0.745   3.813   1.062
 7153TIP3   OH245653   1.333   5.364   0.731
 7153TIP3    H145654   1.393   5.294   0.707
 7153TIP3    H245655   1.390   5.440   0.744
 7154TIP3   OH245656   1.461   5.139   0.630
 7154TIP3    H145657   1.384   5.090   0.601
 7154TIP3    H245658   1.481   5.103   0.716
 7155TIP3   OH245659   1.649   5.003   1.429
 7155TIP3    H145660   1.624   4.951   1.353
 7155TIP3    H245661   1.662   5.091   1.394
 7156TIP3   OH245662   1.070   4.681   0.421
 7156TIP3    H145663   1.003   4.747   0.400
 7156TIP3    H245664   1.088   4.638   0.337
 7157TIP3   OH245665   1.127   4.524   0.199
 7157TIP3    H145666   1.221   4.533   0.212
 7157TIP3    H245667   1.111   4.430   0.208
 7158TIP3   OH245668   1.752   4.692   1.304
 7158TIP3    H145669   1.691   4.753   1.262
 7158TIP3    H245670   1.835   4.705   1.257
 7159TIP3   OH245671   1.455   4.697   0.517
 7159TIP3    H145672   1.379   4.717   0.571
 7159TIP3    H245673   1.519   4.662   0.578
 7160TIP3   OH245674   1.387   4.534   1.482
 7160TIP3    H145675   1.379   4.606   1.544
 7160TIP3    H245676   1.324   4.555   1.413
 7161TIP3   OH245677   0.556   4.773   0.732
 7161TIP3    H145678   0.585   4.811   0.650
 7161TIP3    H245679   0.632   4.726   0.765
 7162TIP3   OH245680   0.774   5.113   0.981
 7162TIP3    H145681   0.769   5.113   0.886
 7162TIP3    H245682   0.857   5.071   1.001
 7163TIP3   OH245683   0.672   4.722   1.032
 7163TIP3    H145684   0.741   4.711   0.965
 7163TIP3    H245685   0.710   4.783   1.095
 7164TIP3   OH245686   1.240   5.271   1.207
 7164TIP3    H145687   1.224   5.335   1.276
 7164TIP3    H245688   1.205   5.189   1.240
 7165TIP3   OH245689   0.700   5.107   1.575
 7165TIP3    H145690   0.626   5.157   1.609
 7165TIP3    H245691   0.678   5.088   1.484
 7166TIP3   OH245692   1.391   4.604   0.264
 7166TIP3    H145693   1.406   4.640   0.351
 7166TIP3    H245694   1.440   4.662   0.205
 7167TIP3   OH245695   0.435   4.704   1.482
 7167TIP3    H145696   0.438   4.791   1.523
 7167TIP3    H245697   0.350   4.669   1.508
 7168TIP3   OH245698   1.111   5.301   0.581
 7168TIP3    H145699   1.180   5.319   0.645
 7168TIP3    H245700   1.076   5.387   0.559
 7169TIP3   OH245701   0.479   5.272   1.625
 7169TIP3    H145702   0.513   5.322   1.551
 7169TIP3    H245703   0.384   5.285   1.621
 7170TIP3   OH245704   1.681   3.835   0.326
 7170TIP3    H145705   1.600   3.873   0.358
 7170TIP3    H245706   1.726   3.907   0.283
 7171TIP3   OH245707   0.310   4.695   0.556
 7171TIP3    H145708   0.289   4.756   0.485
 7171TIP3    H245709   0.267   4.613   0.531
 7172TIP3   OH245710   1.758   5.277   0.239
 7172TIP3    H145711   1.792   5.366   0.228
 7172TIP3    H245712   1.834   5.221   0.233
 7173TIP3   OH245713   0.185   4.885   1.363
 7173TIP3    H145714   0.091   4.901   1.360
 7173TIP3    H245715   0.194   4.804   1.414
 7174TIP3   OH245716   0.218   5.210   1.054
 7174TIP3    H145717   0.297   5.157   1.043
 7174TIP3    H245718   0.235   5.263   1.132
 7175TIP3   OH245719   1.901   5.327   1.633
 7175TIP3    H145720   1.898   5.233   1.616
 7175TIP3    H245721   1.820   5.346   1.680
 7176TIP3   OH245722   0.945   5.232   1.572
 7176TIP3    H145723   0.933   5.316   1.615
 7176TIP3    H245724   0.860   5.189   1.578
 7177TIP3   OH245725   1.061   5.550   0.478
 7177TIP3    H145726   1.044   5.562   0.384
 7177TIP3    H245727   1.026   5.629   0.518
 7178TIP3   OH245728   0.448   5.420   0.722
 7178TIP3    H145729   0.481   5.404   0.810
 7178TIP3    H245730   0.356   5.395   0.726
 7179TIP3   OH245731   1.326   5.532   0.192
 7179TIP3    H145732   1.384   5.463   0.162
 7179TIP3    H245733   1.342   5.536   0.287
 7180TIP3   OH245734   1.338   5.533   0.468
 7180TIP3    H145735   1.243   5.538   0.481
 7180TIP3    H245736   1.366   5.460   0.524
 7181TIP3   OH245737   1.620   4.404   1.608
 7181TIP3    H145738   1.547   4.454   1.572
 7181TIP3    H245739   1.614   4.318   1.565
 7182TIP3   OH245740   0.346   5.107   1.390
 7182TIP3    H145741   0.383   5.075   1.472
 7182TIP3    H245742   0.283   5.039   1.365
 7183TIP3   OH245743   0.591   3.901   1.099
 7183TIP3    H145744   0.525   3.896   1.030
 7183TIP3    H245745   0.568   3.980   1.148
 7184TIP3   OH245746   1.042   3.919   1.452
 7184TIP3    H145747   1.083   3.864   1.519
 7184TIP3    H245748   0.948   3.912   1.469
 7185TIP3   OH245749   1.337   4.260   1.523
 7185TIP3    H145750   1.291   4.249   1.606
 7185TIP3    H245751   1.345   4.355   1.513
 7186TIP3   OH245752   1.543   4.811   0.150
 7186TIP3    H145753   1.506   4.871   0.085
 7186TIP3    H245754   1.544   4.860   0.231
 7187TIP3   OH245755   0.974   4.261   0.209
 7187TIP3    H145756   0.933   4.186   0.254
 7187TIP3    H245757   0.907   4.290   0.147
 7188TIP3   OH245758   0.630   4.475   1.155
 7188TIP3    H145759   0.627   4.495   1.249
 7188TIP3    H245760   0.628   4.561   1.113
 7189TIP3   OH245761   0.623   4.454   0.680
 7189TIP3    H145762   0.527   4.450   0.676
 7189TIP3    H245763   0.652   4.427   0.593
 7190TIP3   OH245764   1.136   4.451   0.555
 7190TIP3    H145765   1.111   4.535   0.517
 7190TIP3    H245766   1.214   4.425   0.507
 7191TIP3   OH245767   1.019   4.484   1.650
 7191TIP3    H145768   0.981   4.405   1.689
 7191TIP3    H245769   1.105   4.493   1.691
 7192TIP3   OH245770   1.220   4.405   0.809
 7192TIP3    H145771   1.182   4.438   0.727
 7192TIP3    H245772   1.273   4.330   0.782
 7193TIP3   OH245773   0.213   4.450   1.283
 7193TIP3    H145774   0.189   4.493   1.365
 7193TIP3    H245775   0.232   4.360   1.308
 7194TIP3   OH245776   0.671   4.215   0.113
 7194TIP3    H145777   0.636   4.165   0.187
 7194TIP3    H245778   0.659   4.158   0.038
 7195TIP3   OH245779   0.135   4.185   0.782
 7195TIP3    H145780   0.167   4.152   0.865
 7195TIP3    H245781   0.155   4.116   0.719
 7196TIP3   OH245782   0.230   4.241   0.385
 7196TIP3    H145783   0.275   4.272   0.306
 7196TIP3    H245784   0.190   4.320   0.421
 7197TIP3   OH245785   1.200   4.572   1.281
 7197TIP3    H145786   1.228   4.513   1.211
 7197TIP3    H245787   1.121   4.532   1.317
 7198TIP3   OH245788   0.884   4.124   0.775
 7198TIP3    H145789   0.794   4.145   0.798
 7198TIP3    H245790   0.923   4.093   0.857
 7199TIP3   OH245791   0.360   4.369   0.644
 7199TIP3    H145792   0.283   4.390   0.591
 7199TIP3    H245793   0.375   4.276   0.629
 7200TIP3   OH245794   0.678   4.357   0.432
 7200TIP3    H145795   0.773   4.349   0.444
 7200TIP3    H245796   0.668   4.412   0.354
 7201TIP3   OH245797   1.198   4.130   1.111
 7201TIP3    H145798   1.170   4.137   1.203
 7201TIP3    H245799   1.127   4.083   1.068
 7202TIP3   OH245800   0.583   4.466   0.194
 7202TIP3    H145801   0.488   4.460   0.193
 7202TIP3    H245802   0.613   4.387   0.149
 7203TIP3   OH245803   1.597   5.664   1.718
 7203TIP3    H145804   1.626   5.690   1.630
 7203TIP3    H245805   1.669   5.689   1.775
 7204TIP3   OH245806   0.421   4.952   1.613
 7204TIP3    H145807   0.483   4.938   1.685
 7204TIP3    H245808   0.341   4.981   1.656
 7205TIP3   OH245809   0.992   4.515   0.938
 7205TIP3    H145810   1.065   4.469   0.896
 7205TIP3    H245811   0.958   4.453   1.001
 7206TIP3   OH245812   0.448   4.103   0.613
 7206TIP3    H145813   0.406   4.019   0.631
 7206TIP3    H245814   0.478   4.096   0.522
 7207TIP3   OH245815   0.877   4.357   1.138
 7207TIP3    H145816   0.791   4.398   1.141
 7207TIP3    H245817   0.919   4.382   1.220
 7208TIP3   OH245818   0.879   4.866   0.341
 7208TIP3    H145819   0.818   4.817   0.287
 7208TIP3    H245820   0.837   4.873   0.426
 7209TIP3   OH245821   1.581   4.875   1.196
 7209TIP3    H145822   1.646   4.927   1.148
 7209TIP3    H245823   1.512   4.858   1.131
 7210TIP3   OH245824   1.185   4.168   0.372
 7210TIP3    H145825   1.121   4.198   0.307
 7210TIP3    H245826   1.250   4.238   0.376
 7211TIP3   OH245827   1.011   4.953   1.545
 7211TIP3    H145828   1.054   4.915   1.621
 7211TIP3    H245829   0.990   5.043   1.571
 7212TIP3   OH245830   1.361   4.375   0.413
 7212TIP3    H145831   1.441   4.352   0.460
 7212TIP3    H245832   1.388   4.441   0.350
 7213TIP3   OH245833   0.414   4.801   0.993
 7213TIP3    H145834   0.507   4.785   0.979
 7213TIP3    H245835   0.392   4.752   1.072
 7214TIP3   OH245836   1.126   4.994   0.299
 7214TIP3    H145837   1.088   5.082   0.294
 7214TIP3    H245838   1.050   4.935   0.298
 7215TIP3   OH245839   0.165   4.627   1.502
 7215TIP3    H145840   0.171   4.598   1.594
 7215TIP3    H245841   0.070   4.632   1.485
 7216TIP3   OH245842   0.838   4.690   1.698
 7216TIP3    H145843   0.817   4.719   1.609
 7216TIP3    H245844   0.902   4.620   1.686
 7217TIP3   OH245845   1.228   5.226   1.582
 7217TIP3    H145846   1.135   5.231   1.560
 7217TIP3    H245847   1.230   5.228   1.678
 7218TIP3   OH245848   1.769   4.441   0.345
 7218TIP3    H145849   1.703   4.405   0.285
 7218TIP3    H245850   1.776   4.533   0.319
 7219TIP3   OH245851   1.891   5.060   1.569
 7219TIP3    H145852   1.800   5.042   1.546
 7219TIP3    H245853   1.943   5.012   1.505
 7220TIP3   OH245854   1.610   5.318   0.480
 7220TIP3    H145855   1.566   5.244   0.523
 7220TIP3    H245856   1.647   5.280   0.401
 7221TIP3   OH245857   1.390   4.817   1.002
 7221TIP3    H145858   1.297   4.805   1.018
 7221TIP3    H245859   1.417   4.738   0.956
 7222TIP3   OH245860   0.710   5.125   0.711
 7222TIP3    H145861   0.733   5.211   0.675
 7222TIP3    H245862   0.615   5.123   0.710
 7223TIP3   OH245863   0.107   4.617   0.260
 7223TIP3    H145864   0.146   4.702   0.280
 7223TIP3    H245865   0.014   4.636   0.244
 7224TIP3   OH245866   0.787   4.880   0.598
 7224TIP3    H145867   0.774   4.966   0.639
 7224TIP3    H245868   0.821   4.824   0.667
 7225TIP3   OH245869   0.877   5.375   1.337
 7225TIP3    H145870   0.929   5.454   1.323
 7225TIP3    H245871   0.924   5.329   1.407
 7226TIP3   OH245872   0.704   5.388   0.622
 7226TIP3    H145873   0.613   5.408   0.645
 7226TIP3    H245874   0.755   5.459   0.661
 7227TIP3   OH245875   1.152   5.030   1.317
 7227TIP3    H145876   1.091   5.001   1.385
 7227TIP3    H245877   1.238   5.003   1.350
 7228TIP3   OH245878   1.388   5.062   0.228
 7228TIP3    H145879   1.440   5.028   0.301
 7228TIP3    H245880   1.299   5.033   0.247
 7229TIP3   OH245881   1.454   5.358   1.487
 7229TIP3    H145882   1.369   5.325   1.515
 7229TIP3    H245883   1.434   5.437   1.437
 7230TIP3   OH245884   1.872   5.533   0.241
 7230TIP3    H145885   1.944   5.595   0.230
 7230TIP3    H245886   1.795   5.589   0.256
 7231TIP3   OH245887   0.265   4.191   1.375
 7231TIP3    H145888   0.236   4.213   1.464
 7231TIP3    H245889   0.210   4.117   1.350
 7232TIP3   OH245890   1.556   4.923   0.398
 7232TIP3    H145891   1.515   4.853   0.449
 7232TIP3    H245892   1.645   4.930   0.434
 7233TIP3   OH245893   0.275   5.365   1.280
 7233TIP3    H145894   0.297   5.290   1.335
 7233TIP3    H245895   0.265   5.438   1.341
 7234TIP3   OH245896   0.705   5.098   0.271
 7234TIP3    H145897   0.786   5.054   0.296
 7234TIP3    H245898   0.720   5.190   0.293
 7235TIP3   OH245899   0.211   4.855   0.352
 7235TIP3    H145900   0.144   4.913   0.388
 7235TIP3    H245901   0.267   4.914   0.301
 7236TIP3   OH245902   1.125   4.167   1.374
 7236TIP3    H145903   1.203   4.185   1.426
 7236TIP3    H245904   1.094   4.082   1.405
 7237TIP3   OH245905   1.236   4.024   0.593
 7237TIP3    H145906   1.211   4.069   0.512
 7237TIP3    H245907   1.283   4.091   0.644
 7238TIP3   OH245908   1.012   5.237   0.330
 7238TIP3    H145909   0.926   5.279   0.332
 7238TIP3    H245910   1.051   5.259   0.415
 7239TIP3   OH245911   0.920   4.280   0.548
 7239TIP3    H145912   0.998   4.336   0.552
 7239TIP3    H245913   0.917   4.238   0.634
 7240TIP3   OH245914   0.998   4.413   1.379
 7240TIP3    H145915   0.991   4.441   1.470
 7240TIP3    H245916   1.034   4.324   1.384
 7241TIP3   OH245917   0.977   3.926   0.602
 7241TIP3    H145918   0.937   3.992   0.658
 7241TIP3    H245919   1.071   3.946   0.605
 7242TIP3   OH245920   0.767   5.355   0.358
 7242TIP3    H145921   0.767   5.444   0.324
 7242TIP3    H245922   0.743   5.364   0.450
 7243TIP3   OH245923   0.588   4.107   0.363
 7243TIP3    H145924   0.597   4.198   0.392
 7243TIP3    H245925   0.676   4.069   0.374
 7244TIP3   OH245926   1.586   4.155   1.470
 7244TIP3    H145927   1.494   4.176   1.486
 7244TIP3    H245928   1.585   4.104   1.389
 7245TIP3   OH245929   1.441   4.564   0.892
 7245TIP3    H145930   1.358   4.526   0.863
 7245TIP3    H245931   1.477   4.499   0.951
 7246TIP3   OH245932   0.345   5.060   0.217
 7246TIP3    H145933   0.399   5.123   0.265
 7246TIP3    H245934   0.408   5.007   0.167
 7247TIP3   OH245935   0.302   4.432   0.176
 7247TIP3    H145936   0.241   4.500   0.206
 7247TIP3    H245937   0.275   4.413   0.086
 7248TIP3   OH245938   1.588   5.521   1.056
 7248TIP3    H145939   1.583   5.601   1.004
 7248TIP3    H245940   1.681   5.512   1.077
 7249TIP3   OH245941   0.376   3.889   0.932
 7249TIP3    H145942   0.371   3.883   0.836
 7249TIP3    H245943   0.335   3.809   0.963
 7250TIP3   OH245944   0.149   5.286   0.505
 7250TIP3    H145945   0.096   5.342   0.561
 7250TIP3    H245946   0.195   5.346   0.446
 7251TIP3   OH245947   0.128   5.530   1.766
 7251TIP3    H145948   0.184   5.520   1.843
 7251TIP3    H245949   0.129   5.444   1.725
 7252TIP3   OH245950   0.527   5.324   1.894
 7252TIP3    H145951   0.609   5.282   1.920
 7252TIP3    H245952   0.516   5.301   1.802
 7253TIP3   OH245953   1.078   5.334   0.078
 7253TIP3    H145954   1.060   5.287   0.159
 7253TIP3    H245955   1.172   5.324   0.065
 7254TIP3   OH245956   1.225   5.230   1.856
 7254TIP3    H145957   1.226   5.151   1.909
 7254TIP3    H245958   1.305   5.276   1.880
 7255TIP3   OH245959   1.487   5.309   0.153
 7255TIP3    H145960   1.449   5.224   0.172
 7255TIP3    H245961   1.580   5.300   0.173
 7256TIP3   OH245962   0.213   5.028   1.789
 7256TIP3    H145963   0.281   4.985   1.841
 7256TIP3    H245964   0.150   4.958   1.771
 7257TIP3   OH245965   0.558   4.922   0.122
 7257TIP3    H145966   0.608   4.840   0.131
 7257TIP3    H245967   0.614   4.988   0.163
 7258TIP3   OH245968   0.696   4.926   1.787
 7258TIP3    H145969   0.712   4.979   1.709
 7258TIP3    H245970   0.747   4.846   1.772
 7259TIP3   OH245971   1.370   5.003   1.495
 7259TIP3    H145972   1.462   5.026   1.483
 7259TIP3    H245973   1.329   5.083   1.529
 7260TIP3   OH245974   0.211   4.528   1.760
 7260TIP3    H145975   0.292   4.547   1.809
 7260TIP3    H245976   0.141   4.559   1.817
 7261TIP3   OH245977   0.721   4.704   0.182
 7261TIP3    H145978   0.666   4.626   0.191
 7261TIP3    H245979   0.790   4.677   0.121
 7262TIP3   OH245980   0.658   4.549   1.421
 7262TIP3    H145981   0.579   4.593   1.453
 7262TIP3    H245982   0.726   4.615   1.428
 7263TIP3   OH245983   0.930   4.616   0.031
 7263TIP3    H145984   0.974   4.634  -0.052
 7263TIP3    H245985   1.001   4.586   0.089
 7264TIP3   OH245986   1.145   4.843   1.766
 7264TIP3    H145987   1.227   4.805   1.734
 7264TIP3    H245988   1.108   4.775   1.823
 7265TIP3   OH245989   1.854   4.703   9.901
 7265TIP3    H145990   1.917   4.768   9.872
 7265TIP3    H245991   1.780   4.754   9.935
 7266TIP3   OH245992   0.715   4.297   1.538
 7266TIP3    H145993   0.737   4.243   1.462
 7266TIP3    H245994   0.698   4.384   1.501
 7267TIP3   OH245995   0.762   4.145   1.308
 7267TIP3    H145996   0.811   4.188   1.238
 7267TIP3    H245997   0.672   4.144   1.276
 7268TIP3   OH245998   0.825   4.774   1.438
 7268TIP3    H145999   0.895   4.831   1.468
 7268TIP3    H246000   0.794   4.814   1.357
 7269TIP3   OH246001   1.256   4.493   1.798
 7269TIP3    H146002   1.255   4.397   1.798
 7269TIP3    H246003   1.341   4.516   1.836
 7270TIP3   OH246004   1.405   4.770   1.637
 7270TIP3    H146005   1.376   4.847   1.589
 7270TIP3    H246006   1.499   4.763   1.618
 7271TIP3   OH246007   0.508   4.292   1.733
 7271TIP3    H146008   0.453   4.215   1.720
 7271TIP3    H246009   0.570   4.290   1.661
 7272TIP3   OH246010   0.767   3.896   1.433
 7272TIP3    H146011   0.763   3.983   1.392
 7272TIP3    H246012   0.692   3.849   1.396
 7273TIP3   OH246013   0.904   4.251   1.740
 7273TIP3    H146014   0.853   4.226   1.818
 7273TIP3    H246015   0.839   4.258   1.670
 7274TIP3   OH246016   1.190   4.230   1.751
 7274TIP3    H146017   1.096   4.216   1.762
 7274TIP3    H246018   1.231   4.159   1.800
 7275TIP3   OH246019   1.337   4.039   1.885
 7275TIP3    H146020   1.320   3.945   1.882
 7275TIP3    H246021   1.310   4.066   1.972
 7276TIP3   OH246022   0.323   4.082   1.750
 7276TIP3    H146023   0.310   3.998   1.705
 7276TIP3    H246024   0.340   4.058   1.841
 7277TIP3   OH246025   0.755   3.786   1.682
 7277TIP3    H146026   0.809   3.709   1.668
 7277TIP3    H246027   0.755   3.831   1.597
 7278TIP3   OH246028   0.820   3.929   1.908
 7278TIP3    H146029   0.799   3.880   1.829
 7278TIP3    H246030   0.767   4.009   1.902
 7279TIP3   OH246031   0.784   5.620   0.280
 7279TIP3    H146032   0.871   5.614   0.239
 7279TIP3    H246033   0.767   5.714   0.286
 7280TIP3   OH246034   0.090   5.155   0.166
 7280TIP3    H146035   0.179   5.126   0.185
 7280TIP3    H246036   0.087   5.163   0.071
 7281TIP3   OH246037   0.116   5.559   0.637
 7281TIP3    H146038   0.026   5.591   0.649
 7281TIP3    H246039   0.131   5.503   0.713
 7282TIP3   OH246040   0.197   5.399   0.843
 7282TIP3    H146041   0.177   5.316   0.887
 7282TIP3    H246042   0.222   5.458   0.913
 7283TIP3   OH246043   1.849   5.521   1.146
 7283TIP3    H146044   1.840   5.503   1.240
 7283TIP3    H246045   1.904   5.600   1.142
 7284TIP3   OH246046   1.803   5.446   1.403
 7284TIP3    H146047   1.749   5.374   1.370
 7284TIP3    H246048   1.847   5.409   1.480
 7285TIP3   OH246049   1.689   5.045   1.844
 7285TIP3    H146050   1.614   5.055   1.903
 7285TIP3    H246051   1.747   5.118   1.866
 7286TIP3   OH246052   1.817   4.869   0.477
 7286TIP3    H146053   1.888   4.933   0.482
 7286TIP3    H246054   1.838   4.805   0.545
 7287TIP3   OH246055   1.884   4.680   0.665
 7287TIP3    H146056   1.798   4.648   0.692
 7287TIP3    H246057   1.929   4.699   0.747
 7288TIP3   OH246058   1.805   5.005   1.118
 7288TIP3    H146059   1.881   4.947   1.120
 7288TIP3    H246060   1.842   5.093   1.106
 7289TIP3   OH246061   1.637   5.249   1.317
 7289TIP3    H146062   1.565   5.285   1.370
 7289TIP3    H246063   1.600   5.241   1.229
 7290TIP3   OH246064   1.779   4.703   0.260
 7290TIP3    H146065   1.704   4.734   0.209
 7290TIP3    H246066   1.786   4.766   0.332
 7291TIP3   OH246067   1.579   4.343   0.180
 7291TIP3    H146068   1.523   4.384   0.114
 7291TIP3    H246069   1.578   4.250   0.158
 7292TIP3   OH246070   1.629   4.575   0.694
 7292TIP3    H146071   1.625   4.484   0.664
 7292TIP3    H246072   1.573   4.577   0.771
 7293TIP3   OH246073   0.161   4.879   1.085
 7293TIP3    H146074   0.246   4.861   1.044
 7293TIP3    H246075   0.181   4.878   1.179
 7294TIP3   OH246076   1.673   4.764   1.565
 7294TIP3    H146077   1.713   4.712   1.495
 7294TIP3    H246078   1.670   4.853   1.531
 7295TIP3   OH246079   1.887   4.441   1.536
 7295TIP3    H146080   1.799   4.437   1.574
 7295TIP3    H246081   1.936   4.374   1.585
 7296TIP3   OH246082   1.585   4.080   0.106
 7296TIP3    H146083   1.676   4.052   0.116
 7296TIP3    H246084   1.537   3.999   0.089
 7297TIP3   OH246085   1.607   4.332   0.550
 7297TIP3    H146086   1.639   4.242   0.555
 7297TIP3    H246087   1.665   4.375   0.487
 7298TIP3   OH246088   1.575   4.371   1.038
 7298TIP3    H146089   1.668   4.381   1.015
 7298TIP3    H246090   1.569   4.402   1.128
 7299TIP3   OH246091   1.590   4.470   1.295
 7299TIP3    H146092   1.516   4.490   1.352
 7299TIP3    H246093   1.645   4.548   1.299
 7300TIP3   OH246094   0.179   4.281   1.625
 7300TIP3    H146095   0.197   4.364   1.670
 7300TIP3    H246096   0.226   4.215   1.678
 7301TIP3   OH246097   1.859   3.881   1.828
 7301TIP3    H146098   1.925   3.814   1.812
 7301TIP3    H246099   1.865   3.938   1.751
 7302TIP3   OH246100   1.672   4.070   0.566
 7302TIP3    H146101   1.701   4.025   0.646
 7302TIP3    H246102   1.603   4.014   0.531
 7303TIP3   OH246103   0.247   4.109   1.026
 7303TIP3    H146104   0.298   4.033   0.999
 7303TIP3    H246105   0.311   4.180   1.032
 7304TIP3   OH246106   0.113   4.531   1.037
 7304TIP3    H146107   0.192   4.511   0.986
 7304TIP3    H246108   0.134   4.501   1.125
 7305TIP3   OH246109   1.780   4.093   1.659
 7305TIP3    H146110   1.722   4.103   1.735
 7305TIP3    H246111   1.724   4.105   1.583
 7306TIP3   OH246112   1.843   4.009   0.178
 7306TIP3    H146113   1.915   3.948   0.194
 7306TIP3    H246114   1.878   4.095   0.202
 7307TIP3   OH246115   0.116   4.041   0.533
 7307TIP3    H146116   0.025   4.072   0.531
 7307TIP3    H246117   0.164   4.108   0.484
 7308TIP3   OH246118   1.483   5.594   0.743
 7308TIP3    H146119   1.543   5.590   0.669
 7308TIP3    H246120   1.527   5.652   0.806
 7309TIP3   OH246121   0.128   3.977   1.255
 7309TIP3    H146122   0.037   3.951   1.245
 7309TIP3    H246123   0.150   4.020   1.172
 7310TIP3   OH246124   0.150   5.270   1.664
 7310TIP3    H146125   0.058   5.256   1.643
 7310TIP3    H246126   0.177   5.191   1.710
 7311TIP3   OH246127   0.611   5.385   1.407
 7311TIP3    H146128   0.582   5.474   1.385
 7311TIP3    H246129   0.706   5.387   1.394
 7312TIP3   OH246130   0.916   5.488   1.673
 7312TIP3    H146131   0.934   5.453   1.761
 7312TIP3    H246132   0.986   5.552   1.658
 7313TIP3   OH246133   1.135   5.650   1.608
 7313TIP3    H146134   1.180   5.592   1.546
 7313TIP3    H246135   1.201   5.671   1.673
 7314TIP3   OH246136   1.706   3.803   1.477
 7314TIP3    H146137   1.669   3.838   1.396
 7314TIP3    H246138   1.725   3.711   1.456
 7315TIP3   OH246139   0.275   5.647   1.382
 7315TIP3    H146140   0.221   5.707   1.331
 7315TIP3    H246141   0.267   5.678   1.473
 7316TIP3   OH246142   0.547   5.642   1.335
 7316TIP3    H146143   0.452   5.646   1.349
 7316TIP3    H246144   0.560   5.675   1.246
 7317TIP3   OH246145   1.001   5.608   1.251
 7317TIP3    H146146   0.955   5.623   1.169
 7317TIP3    H246147   1.001   5.693   1.295
 7318TIP3   OH246148   1.215   5.497   1.376
 7318TIP3    H146149   1.142   5.536   1.328
 7318TIP3    H246150   1.293   5.536   1.337
 7319TIP3   OH246151   1.461   5.576   1.293
 7319TIP3    H146152   1.495   5.665   1.299
 7319TIP3    H246153   1.494   5.544   1.209
 7320TIP3   OH246154   0.321   5.527   1.055
 7320TIP3    H146155   0.291   5.494   1.139
 7320TIP3    H246156   0.395   5.470   1.032
 7321TIP3   OH246157   0.518   5.355   0.979
 7321TIP3    H146158   0.501   5.262   0.992
 7321TIP3    H246159   0.605   5.369   1.017
 7322TIP3   OH246160   0.770   5.370   1.085
 7322TIP3    H146161   0.783   5.282   1.050
 7322TIP3    H246162   0.806   5.366   1.174
 7323TIP3   OH246163   0.994   3.984   0.989
 7323TIP3    H146164   0.936   3.913   1.016
 7323TIP3    H246165   1.061   3.942   0.936
 7324TIP3   OH246166   1.575   3.900   0.959
 7324TIP3    H146167   1.650   3.924   0.904
 7324TIP3    H246168   1.519   3.977   0.959
 7325TIP3   OH246169   1.778   3.949   0.787
 7325TIP3    H146170   1.834   3.873   0.769
 7325TIP3    H246171   1.839   4.022   0.795
 7326TIP3   OH246172   0.345   3.853   0.662
 7326TIP3    H146173   0.253   3.834   0.642
 7326TIP3    H246174   0.388   3.767   0.658
 7327TIP3   OH246175   0.113   3.912   0.285
 7327TIP3    H146176   0.203   3.921   0.252
 7327TIP3    H246177   0.118   3.938   0.377
 7328TIP3   OH246178   0.832   3.736   0.754
 7328TIP3    H146179   0.889   3.796   0.707
 7328TIP3    H246180   0.851   3.753   0.847
 7329TIP3   OH246181   1.175   3.862   0.834
 7329TIP3    H146182   1.226   3.884   0.756
 7329TIP3    H246183   1.196   3.770   0.852
 7330TIP3   OH246184   1.465   3.915   0.476
 7330TIP3    H146185   1.386   3.961   0.505
 7330TIP3    H246186   1.439   3.822   0.476
 7331TIP3   OH246187   0.248   5.531   0.397
 7331TIP3    H146188   0.204   5.542   0.481
 7331TIP3    H246189   0.207   5.595   0.339
 7332TIP3   OH246190   0.386   3.942   0.251
 7332TIP3    H146191   0.408   3.854   0.281
 7332TIP3    H246192   0.452   3.998   0.292
 7333TIP3   OH246193   0.860   4.068   0.386
 7333TIP3    H146194   0.899   3.993   0.431
 7333TIP3    H246195   0.883   4.143   0.441
 7334TIP3   OH246196   1.048   5.578   0.199
 7334TIP3    H146197   1.141   5.597   0.192
 7334TIP3    H246198   1.035   5.501   0.145
 7335TIP3   OH246199   1.681   5.568   0.547
 7335TIP3    H146200   1.654   5.479   0.522
 7335TIP3    H246201   1.679   5.617   0.465
 7336TIP3   OH246202   0.291   3.821   1.652
 7336TIP3    H146203   0.219   3.765   1.682
 7336TIP3    H246204   0.365   3.797   1.708
 7337TIP3   OH246205   0.515   3.774   1.814
 7337TIP3    H146206   0.598   3.785   1.766
 7337TIP3    H246207   0.522   3.687   1.853
 7338TIP3   OH246208   0.488   5.649   0.296
 7338TIP3    H146209   0.425   5.589   0.335
 7338TIP3    H246210   0.570   5.600   0.294
 7339TIP3   OH246211   1.347   3.762   1.827
 7339TIP3    H146212   1.351   3.726   1.916
 7339TIP3    H246213   1.439   3.773   1.801
 7340TIP3   OH246214   1.636   5.392   1.696
 7340TIP3    H146215   1.577   5.367   1.624
 7340TIP3    H246216   1.619   5.485   1.710
 7341TIP3   OH246217   3.081   4.806   0.659
 7341TIP3    H146218   3.042   4.893   0.663
 7341TIP3    H246219   3.023   4.757   0.600
 7342TIP3   OH246220   3.009   4.706   1.069
 7342TIP3    H146221   3.035   4.660   1.149
 7342TIP3    H246222   2.954   4.643   1.022
 7343TIP3   OH246223   2.218   4.649   1.197
 7343TIP3    H146224   2.239   4.573   1.252
 7343TIP3    H246225   2.302   4.675   1.159
 7344TIP3   OH246226   3.347   5.028   0.903
 7344TIP3    H146227   3.323   4.947   0.948
 7344TIP3    H246228   3.359   5.092   0.973
 7345TIP3   OH246229   2.426   5.101   0.896
 7345TIP3    H146230   2.373   5.022   0.893
 7345TIP3    H246231   2.508   5.074   0.938
 7346TIP3   OH246232   1.978   4.453   0.535
 7346TIP3    H146233   1.958   4.536   0.578
 7346TIP3    H246234   1.910   4.445   0.467
 7347TIP3   OH246235   2.048   4.713   0.890
 7347TIP3    H146236   2.077   4.623   0.904
 7347TIP3    H246237   2.129   4.763   0.881
 7348TIP3   OH246238   3.070   5.455   0.995
 7348TIP3    H146239   3.093   5.410   0.914
 7348TIP3    H246240   3.075   5.387   1.062
 7349TIP3   OH246241   2.885   4.955   1.104
 7349TIP3    H146242   2.925   4.873   1.077
 7349TIP3    H246243   2.944   4.990   1.171
 7350TIP3   OH246244   3.754   4.069   1.178
 7350TIP3    H146245   3.745   4.141   1.240
 7350TIP3    H246246   3.811   4.102   1.109
 7351TIP3   OH246247   3.150   4.380   1.062
 7351TIP3    H146248   3.151   4.288   1.088
 7351TIP3    H246249   3.105   4.381   0.977
 7352TIP3   OH246250   2.453   4.147   0.790
 7352TIP3    H146251   2.456   4.238   0.761
 7352TIP3    H246252   2.397   4.103   0.727
 7353TIP3   OH246253   3.285   4.225   0.744
 7353TIP3    H146254   3.336   4.193   0.819
 7353TIP3    H246255   3.349   4.268   0.688
 7354TIP3   OH246256   2.113   4.441   0.919
 7354TIP3    H146257   2.181   4.397   0.969
 7354TIP3    H246258   2.118   4.402   0.831
 7355TIP3   OH246259   2.597   4.592   0.852
 7355TIP3    H146260   2.683   4.557   0.874
 7355TIP3    H246261   2.549   4.518   0.816
 7356TIP3   OH246262   3.704   4.245   1.387
 7356TIP3    H146263   3.660   4.329   1.376
 7356TIP3    H246264   3.767   4.260   1.457
 7357TIP3   OH246265   2.363   4.113   1.245
 7357TIP3    H146266   2.328   4.170   1.176
 7357TIP3    H246267   2.309   4.133   1.322
 7358TIP3   OH246268   2.960   5.049   0.599
 7358TIP3    H146269   2.998   5.046   0.511
 7358TIP3    H246270   2.941   5.141   0.614
 7359TIP3   OH246271   2.624   4.894   1.188
 7359TIP3    H146272   2.579   4.968   1.228
 7359TIP3    H246273   2.704   4.932   1.152
 7360TIP3   OH246274   3.401   4.141   0.993
 7360TIP3    H146275   3.322   4.150   1.045
 7360TIP3    H246276   3.460   4.210   1.025
 7361TIP3   OH246277   2.320   4.262   1.012
 7361TIP3    H146278   2.384   4.324   1.047
 7361TIP3    H246279   2.367   4.218   0.941
 7362TIP3   OH246280   2.486   5.090   1.328
 7362TIP3    H146281   2.496   5.185   1.324
 7362TIP3    H246282   2.393   5.077   1.348
 7363TIP3   OH246283   2.034   5.037   0.480
 7363TIP3    H146284   2.019   5.088   0.400
 7363TIP3    H246285   2.071   5.099   0.542
 7364TIP3   OH246286   3.356   5.240   1.087
 7364TIP3    H146287   3.267   5.255   1.120
 7364TIP3    H246288   3.385   5.327   1.057
 7365TIP3   OH246289   3.514   3.939   1.233
 7365TIP3    H146290   3.454   3.983   1.174
 7365TIP3    H246291   3.600   3.976   1.212
 7366TIP3   OH246292   2.690   3.763   1.041
 7366TIP3    H146293   2.666   3.671   1.035
 7366TIP3    H246294   2.607   3.808   1.055
 7367TIP3   OH246295   3.164   5.362   0.751
 7367TIP3    H146296   3.204   5.280   0.724
 7367TIP3    H246297   3.233   5.428   0.740
 7368TIP3   OH246298   3.296   5.144   0.664
 7368TIP3    H146299   3.363   5.109   0.605
 7368TIP3    H246300   3.311   5.098   0.747
 7369TIP3   OH246301   3.519   5.019   1.423
 7369TIP3    H146302   3.507   4.962   1.347
 7369TIP3    H246303   3.538   5.105   1.386
 7370TIP3   OH246304   2.982   4.671   0.418
 7370TIP3    H146305   2.926   4.742   0.387
 7370TIP3    H246306   3.068   4.690   0.381
 7371TIP3   OH246307   2.840   4.490   0.248
 7371TIP3    H146308   2.896   4.538   0.308
 7371TIP3    H246309   2.874   4.401   0.249
 7372TIP3   OH246310   3.668   4.693   1.307
 7372TIP3    H146311   3.598   4.753   1.283
 7372TIP3    H246312   3.735   4.707   1.239
 7373TIP3   OH246313   3.344   4.782   0.586
 7373TIP3    H146314   3.259   4.794   0.629
 7373TIP3    H246315   3.391   4.721   0.642
 7374TIP3   OH246316   3.292   4.524   1.494
 7374TIP3    H146317   3.288   4.601   1.550
 7374TIP3    H246318   3.231   4.543   1.423
 7375TIP3   OH246319   2.488   4.783   0.678
 7375TIP3    H146320   2.459   4.739   0.598
 7375TIP3    H246321   2.536   4.716   0.726
 7376TIP3   OH246322   2.706   5.112   0.960
 7376TIP3    H146323   2.724   5.114   0.866
 7376TIP3    H246324   2.778   5.062   0.997
 7377TIP3   OH246325   2.469   4.701   1.070
 7377TIP3    H146326   2.522   4.674   0.995
 7377TIP3    H246327   2.522   4.766   1.114
 7378TIP3   OH246328   3.108   5.277   1.209
 7378TIP3    H146329   3.092   5.340   1.278
 7378TIP3    H246330   3.081   5.193   1.246
 7379TIP3   OH246331   2.644   5.088   1.563
 7379TIP3    H146332   2.581   5.147   1.603
 7379TIP3    H246333   2.605   5.064   1.478
 7380TIP3   OH246334   3.255   4.683   0.346
 7380TIP3    H146335   3.289   4.721   0.427
 7380TIP3    H246336   3.309   4.721   0.277
 7381TIP3   OH246337   2.321   4.674   1.518
 7381TIP3    H146338   2.330   4.741   1.586
 7381TIP3    H246339   2.228   4.674   1.497
 7382TIP3   OH246340   2.953   5.335   0.577
 7382TIP3    H146341   3.022   5.337   0.643
 7382TIP3    H246342   2.935   5.427   0.558
 7383TIP3   OH246343   2.448   5.275   1.617
 7383TIP3    H146344   2.461   5.312   1.529
 7383TIP3    H246345   2.353   5.269   1.626
 7384TIP3   OH246346   3.559   3.821   0.322
 7384TIP3    H146347   3.479   3.860   0.357
 7384TIP3    H246348   3.607   3.896   0.285
 7385TIP3   OH246349   2.400   4.686   0.434
 7385TIP3    H146350   2.321   4.738   0.415
 7385TIP3    H246351   2.384   4.602   0.391
 7386TIP3   OH246352   3.695   5.259   0.210
 7386TIP3    H146353   3.719   5.351   0.203
 7386TIP3    H246354   3.778   5.212   0.210
 7387TIP3   OH246355   2.037   4.902   1.399
 7387TIP3    H146356   2.016   4.873   1.311
 7387TIP3    H246357   2.042   4.822   1.451
 7388TIP3   OH246358   1.925   5.257   1.102
 7388TIP3    H146359   2.002   5.266   1.159
 7388TIP3    H246360   1.879   5.340   1.112
 7389TIP3   OH246361   3.752   5.245   1.605
 7389TIP3    H146362   3.750   5.150   1.616
 7389TIP3    H246363   3.672   5.275   1.649
 7390TIP3   OH246364   2.857   5.268   1.528
 7390TIP3    H146365   2.834   5.349   1.574
 7390TIP3    H246366   2.784   5.209   1.548
 7391TIP3   OH246367   2.936   5.593   0.483
 7391TIP3    H146368   2.918   5.608   0.390
 7391TIP3    H246369   2.909   5.673   0.527
 7392TIP3   OH246370   2.304   5.447   0.700
 7392TIP3    H146371   2.330   5.424   0.789
 7392TIP3    H246372   2.250   5.373   0.671
 7393TIP3   OH246373   3.238   5.483   0.193
 7393TIP3    H146374   3.309   5.421   0.176
 7393TIP3    H246375   3.248   5.507   0.285
 7394TIP3   OH246376   3.214   5.559   0.459
 7394TIP3    H146377   3.120   5.560   0.477
 7394TIP3    H246378   3.255   5.541   0.543
 7395TIP3   OH246379   3.483   4.391   1.663
 7395TIP3    H146380   3.422   4.436   1.605
 7395TIP3    H246381   3.485   4.301   1.630
 7396TIP3   OH246382   2.218   5.114   1.411
 7396TIP3    H146383   2.205   5.146   1.501
 7396TIP3    H246384   2.161   5.038   1.404
 7397TIP3   OH246385   2.446   3.893   1.093
 7397TIP3    H146386   2.372   3.886   1.033
 7397TIP3    H246387   2.429   3.973   1.143
 7398TIP3   OH246388   2.921   3.918   1.467
 7398TIP3    H146389   2.961   3.863   1.534
 7398TIP3    H246390   2.827   3.909   1.481
 7399TIP3   OH246391   3.229   4.245   1.511
 7399TIP3    H146392   3.180   4.225   1.590
 7399TIP3    H246393   3.236   4.341   1.511
 7400TIP3   OH246394   3.421   4.824   0.171
 7400TIP3    H146395   3.427   4.836   0.076
 7400TIP3    H246396   3.384   4.907   0.203
 7401TIP3   OH246397   2.869   4.212   0.201
 7401TIP3    H146398   2.843   4.134   0.250
 7401TIP3    H246399   2.800   4.224   0.136
 7402TIP3   OH246400   2.481   4.437   1.155
 7402TIP3    H146401   2.428   4.435   1.234
 7402TIP3    H246402   2.479   4.529   1.127
 7403TIP3   OH246403   2.421   4.413   0.725
 7403TIP3    H146404   2.326   4.405   0.720
 7403TIP3    H246405   2.452   4.393   0.637
 7404TIP3   OH246406   2.992   4.434   0.553
 7404TIP3    H146407   2.973   4.523   0.523
 7404TIP3    H246408   3.076   4.412   0.512
 7405TIP3   OH246409   2.921   4.445   1.652
 7405TIP3    H146410   2.876   4.368   1.688
 7405TIP3    H246411   3.001   4.453   1.704
 7406TIP3   OH246412   3.047   4.356   0.809
 7406TIP3    H146413   3.019   4.391   0.724
 7406TIP3    H246414   3.124   4.304   0.789
 7407TIP3   OH246415   2.307   4.440   1.364
 7407TIP3    H146416   2.318   4.503   1.435
 7407TIP3    H246417   2.280   4.359   1.408
 7408TIP3   OH246418   2.619   4.214   0.065
 7408TIP3    H146419   2.570   4.180   0.140
 7408TIP3    H246420   2.593   4.158  -0.008
 7409TIP3   OH246421   1.953   4.152   0.807
 7409TIP3    H146422   1.991   4.151   0.895
 7409TIP3    H246423   2.012   4.207   0.756
 7410TIP3   OH246424   1.956   4.244   0.274
 7410TIP3    H146425   2.034   4.286   0.238
 7410TIP3    H246426   1.897   4.316   0.294
 7411TIP3   OH246427   3.107   4.538   1.282
 7411TIP3    H146428   3.131   4.483   1.208
 7411TIP3    H246429   3.025   4.500   1.315
 7412TIP3   OH246430   2.734   4.109   0.753
 7412TIP3    H146431   2.641   4.110   0.776
 7412TIP3    H246432   2.778   4.071   0.829
 7413TIP3   OH246433   2.159   4.309   0.680
 7413TIP3    H146434   2.102   4.352   0.616
 7413TIP3    H246435   2.189   4.229   0.636
 7414TIP3   OH246436   2.507   4.323   0.485
 7414TIP3    H146437   2.602   4.325   0.482
 7414TIP3    H246438   2.479   4.380   0.413
 7415TIP3   OH246439   3.162   4.113   1.123
 7415TIP3    H146440   3.105   4.118   1.200
 7415TIP3    H246441   3.139   4.029   1.082
 7416TIP3   OH246442   2.389   4.460   0.279
 7416TIP3    H146443   2.309   4.430   0.237
 7416TIP3    H246444   2.452   4.470   0.208
 7417TIP3   OH246445   3.524   5.630   1.723
 7417TIP3    H146446   3.550   5.658   1.635
 7417TIP3    H246447   3.599   5.653   1.778
 7418TIP3   OH246448   2.280   4.847   1.730
 7418TIP3    H146449   2.343   4.866   1.800
 7418TIP3    H246450   2.204   4.901   1.751
 7419TIP3   OH246451   2.842   4.487   0.949
 7419TIP3    H146452   2.907   4.439   0.898
 7419TIP3    H246453   2.813   4.424   1.015
 7420TIP3   OH246454   2.263   4.061   0.596
 7420TIP3    H146455   2.223   3.984   0.638
 7420TIP3    H246456   2.269   4.036   0.504
 7421TIP3   OH246457   2.737   4.335   1.158
 7421TIP3    H146458   2.651   4.378   1.161
 7421TIP3    H246459   2.783   4.370   1.234
 7422TIP3   OH246460   2.803   4.867   0.340
 7422TIP3    H146461   2.737   4.828   0.283
 7422TIP3    H246462   2.753   4.911   0.409
 7423TIP3   OH246463   3.489   4.870   1.197
 7423TIP3    H146464   3.551   4.921   1.145
 7423TIP3    H246465   3.418   4.848   1.136
 7424TIP3   OH246466   3.089   4.188   0.371
 7424TIP3    H146467   3.028   4.200   0.298
 7424TIP3    H246468   3.145   4.265   0.369
 7425TIP3   OH246469   2.911   4.921   1.541
 7425TIP3    H146470   2.963   4.885   1.613
 7425TIP3    H246471   2.855   4.988   1.583
 7426TIP3   OH246472   3.234   4.416   0.420
 7426TIP3    H146473   3.319   4.392   0.456
 7426TIP3    H246474   3.245   4.506   0.388
 7427TIP3   OH246475   2.307   4.838   0.882
 7427TIP3    H146476   2.360   4.824   0.803
 7427TIP3    H246477   2.353   4.789   0.950
 7428TIP3   OH246478   3.015   5.045   0.321
 7428TIP3    H146479   2.961   5.124   0.310
 7428TIP3    H246480   2.952   4.973   0.315
 7429TIP3   OH246481   2.044   4.664   1.537
 7429TIP3    H146482   2.067   4.649   1.629
 7429TIP3    H246483   1.983   4.594   1.516
 7430TIP3   OH246484   2.742   4.656   1.704
 7430TIP3    H146485   2.673   4.629   1.643
 7430TIP3    H246486   2.818   4.601   1.680
 7431TIP3   OH246487   3.129   5.225   1.558
 7431TIP3    H146488   3.036   5.236   1.536
 7431TIP3    H246489   3.132   5.228   1.654
 7432TIP3   OH246490   3.655   4.436   0.361
 7432TIP3    H146491   3.589   4.402   0.302
 7432TIP3    H246492   3.662   4.529   0.339
 7433TIP3   OH246493   3.735   4.951   1.574
 7433TIP3    H146494   3.654   4.977   1.530
 7433TIP3    H246495   3.801   4.949   1.504
 7434TIP3   OH246496   3.567   5.275   0.455
 7434TIP3    H146497   3.531   5.188   0.477
 7434TIP3    H246498   3.610   5.262   0.370
 7435TIP3   OH246499   3.283   4.786   1.028
 7435TIP3    H146500   3.188   4.774   1.032
 7435TIP3    H246501   3.317   4.701   1.000
 7436TIP3   OH246502   2.615   5.183   0.698
 7436TIP3    H146503   2.609   5.275   0.672
 7436TIP3    H246504   2.537   5.168   0.751
 7437TIP3   OH246505   2.044   4.635   0.217
 7437TIP3    H146506   2.092   4.701   0.267
 7437TIP3    H246507   1.952   4.661   0.225
 7438TIP3   OH246508   2.621   4.974   0.520
 7438TIP3    H146509   2.640   5.047   0.580
 7438TIP3    H246510   2.575   4.910   0.574
 7439TIP3   OH246511   2.775   5.374   1.287
 7439TIP3    H146512   2.823   5.456   1.277
 7439TIP3    H246513   2.819   5.328   1.359
 7440TIP3   OH246514   2.564   5.446   0.614
 7440TIP3    H146515   2.473   5.455   0.641
 7440TIP3    H246516   2.608   5.524   0.650
 7441TIP3   OH246517   3.050   5.022   1.321
 7441TIP3    H146518   2.994   4.993   1.393
 7441TIP3    H246519   3.138   4.991   1.344
 7442TIP3   OH246520   3.297   5.049   0.273
 7442TIP3    H146521   3.339   5.048   0.359
 7442TIP3    H246522   3.203   5.051   0.292
 7443TIP3   OH246523   3.344   5.374   1.471
 7443TIP3    H146524   3.261   5.332   1.493
 7443TIP3    H246525   3.318   5.452   1.421
 7444TIP3   OH246526   3.761   5.525   0.236
 7444TIP3    H146527   3.834   5.587   0.243
 7444TIP3    H246528   3.683   5.578   0.253
 7445TIP3   OH246529   2.239   4.198   1.484
 7445TIP3    H146530   2.151   4.213   1.518
 7445TIP3    H246531   2.286   4.155   1.556
 7446TIP3   OH246532   3.469   5.006   0.492
 7446TIP3    H146533   3.420   4.932   0.529
 7446TIP3    H246534   3.559   4.974   0.487
 7447TIP3   OH246535   2.137   5.340   1.264
 7447TIP3    H146536   2.175   5.264   1.309
 7447TIP3    H246537   2.149   5.412   1.325
 7448TIP3   OH246538   2.454   5.129   0.354
 7448TIP3    H146539   2.508   5.069   0.405
 7448TIP3    H246540   2.503   5.210   0.352
 7449TIP3   OH246541   2.179   4.835   0.355
 7449TIP3    H146542   2.129   4.887   0.419
 7449TIP3    H246543   2.210   4.899   0.292
 7450TIP3   OH246544   3.022   4.147   1.358
 7450TIP3    H146545   3.099   4.167   1.411
 7450TIP3    H246546   2.986   4.068   1.398
 7451TIP3   OH246547   3.132   4.044   0.595
 7451TIP3    H146548   3.113   4.096   0.517
 7451TIP3    H246549   3.179   4.104   0.653
 7452TIP3   OH246550   2.851   5.276   0.328
 7452TIP3    H146551   2.892   5.295   0.412
 7452TIP3    H246552   2.905   5.323   0.264
 7453TIP3   OH246553   2.774   4.266   0.528
 7453TIP3    H146554   2.851   4.323   0.536
 7453TIP3    H246555   2.766   4.224   0.614
 7454TIP3   OH246556   2.893   4.392   1.378
 7454TIP3    H146557   2.893   4.416   1.471
 7454TIP3    H246558   2.930   4.304   1.375
 7455TIP3   OH246559   2.887   3.921   0.610
 7455TIP3    H146560   2.839   3.984   0.664
 7455TIP3    H246561   2.977   3.951   0.613
 7456TIP3   OH246562   2.595   5.375   0.355
 7456TIP3    H146563   2.680   5.336   0.335
 7456TIP3    H246564   2.597   5.389   0.450
 7457TIP3   OH246565   2.509   4.115   0.299
 7457TIP3    H146566   2.488   4.178   0.367
 7457TIP3    H246567   2.587   4.069   0.331
 7458TIP3   OH246568   3.486   4.145   1.537
 7458TIP3    H146569   3.396   4.158   1.508
 7458TIP3    H246570   3.539   4.163   1.459
 7459TIP3   OH246571   3.370   4.522   0.973
 7459TIP3    H146572   3.291   4.479   1.002
 7459TIP3    H246573   3.442   4.473   1.013
 7460TIP3   OH246574   2.256   5.044   0.189
 7460TIP3    H146575   2.318   5.083   0.250
 7460TIP3    H246576   2.310   5.003   0.122
 7461TIP3   OH246577   2.153   4.400   0.146
 7461TIP3    H146578   2.115   4.483   0.173
 7461TIP3    H246579   2.141   4.398   0.050
 7462TIP3   OH246580   3.462   5.499   1.058
 7462TIP3    H146581   3.449   5.568   0.994
 7462TIP3    H246582   3.555   5.503   1.080
 7463TIP3   OH246583   2.203   3.873   0.964
 7463TIP3    H146584   2.195   3.866   0.869
 7463TIP3    H246585   2.178   3.787   0.997
 7464TIP3   OH246586   2.113   5.255   0.636
 7464TIP3    H146587   2.062   5.279   0.713
 7464TIP3    H246588   2.074   5.307   0.565
 7465TIP3   OH246589   2.051   5.562   1.679
 7465TIP3    H146590   2.095   5.532   1.759
 7465TIP3    H246591   1.993   5.490   1.655
 7466TIP3   OH246592   2.549   5.412   1.835
 7466TIP3    H146593   2.601   5.345   1.879
 7466TIP3    H246594   2.516   5.368   1.756
 7467TIP3   OH246595   2.996   5.391   0.123
 7467TIP3    H146596   3.005   5.335   0.047
 7467TIP3    H246597   3.085   5.419   0.144
 7468TIP3   OH246598   3.137   5.228   1.832
 7468TIP3    H146599   3.144   5.143   1.877
 7468TIP3    H246600   3.212   5.278   1.863
 7469TIP3   OH246601   3.416   5.278   0.157
 7469TIP3    H146602   3.380   5.196   0.190
 7469TIP3    H246603   3.511   5.267   0.165
 7470TIP3   OH246604   2.028   4.965   1.795
 7470TIP3    H146605   1.970   4.899   1.833
 7470TIP3    H246606   1.978   5.001   1.721
 7471TIP3   OH246607   2.446   4.913   0.041
 7471TIP3    H146608   2.494   4.865   0.108
 7471TIP3    H246609   2.495   4.898  -0.040
 7472TIP3   OH246610   2.693   4.923   1.779
 7472TIP3    H146611   2.674   4.967   1.696
 7472TIP3    H246612   2.722   4.835   1.753
 7473TIP3   OH246613   3.267   4.979   1.524
 7473TIP3    H146614   3.355   5.002   1.495
 7473TIP3    H246615   3.224   5.063   1.539
 7474TIP3   OH246616   2.141   4.616   1.791
 7474TIP3    H146617   2.207   4.682   1.768
 7474TIP3    H246618   2.129   4.627   1.886
 7475TIP3   OH246619   2.578   4.750   0.221
 7475TIP3    H146620   2.526   4.735   0.300
 7475TIP3    H246621   2.585   4.663   0.181
 7476TIP3   OH246622   2.572   4.557   1.503
 7476TIP3    H146623   2.488   4.603   1.504
 7476TIP3    H246624   2.630   4.615   1.454
 7477TIP3   OH246625   2.606   4.489   0.115
 7477TIP3    H146626   2.609   4.403   0.074
 7477TIP3    H246627   2.692   4.499   0.156
 7478TIP3   OH246628   3.060   4.815   1.767
 7478TIP3    H146629   3.143   4.782   1.733
 7478TIP3    H246630   3.032   4.748   1.829
 7479TIP3   OH246631   3.527   4.664   9.977
 7479TIP3    H146632   3.607   4.714   9.959
 7479TIP3    H246633   3.456   4.724   9.952
 7480TIP3   OH246634   2.583   4.290   1.571
 7480TIP3    H146635   2.595   4.240   1.490
 7480TIP3    H246636   2.582   4.381   1.544
 7481TIP3   OH246637   2.620   4.144   1.333
 7481TIP3    H146638   2.672   4.188   1.266
 7481TIP3    H246639   2.532   4.138   1.295
 7482TIP3   OH246640   2.733   4.747   1.399
 7482TIP3    H146641   2.802   4.802   1.438
 7482TIP3    H246642   2.703   4.797   1.323
 7483TIP3   OH246643   3.137   4.411   1.829
 7483TIP3    H146644   3.117   4.321   1.802
 7483TIP3    H246645   3.225   4.405   1.866
 7484TIP3   OH246646   3.324   4.749   1.669
 7484TIP3    H146647   3.304   4.829   1.620
 7484TIP3    H246648   3.420   4.744   1.670
 7485TIP3   OH246649   2.436   4.297   1.812
 7485TIP3    H146650   2.354   4.251   1.798
 7485TIP3    H246651   2.476   4.303   1.725
 7486TIP3   OH246652   2.647   3.887   1.432
 7486TIP3    H146653   2.636   3.976   1.400
 7486TIP3    H246654   2.578   3.837   1.388
 7487TIP3   OH246655   2.793   4.213   1.738
 7487TIP3    H146656   2.748   4.182   1.817
 7487TIP3    H246657   2.722   4.231   1.676
 7488TIP3   OH246658   3.073   4.169   1.724
 7488TIP3    H146659   2.978   4.158   1.731
 7488TIP3    H246660   3.109   4.097   1.776
 7489TIP3   OH246661   3.208   3.991   1.886
 7489TIP3    H146662   3.217   3.896   1.875
 7489TIP3    H246663   3.190   4.003   1.979
 7490TIP3   OH246664   2.235   4.091   1.774
 7490TIP3    H146665   2.226   4.006   1.730
 7490TIP3    H246666   2.245   4.068   1.866
 7491TIP3   OH246667   2.632   3.762   1.673
 7491TIP3    H146668   2.691   3.687   1.660
 7491TIP3    H246669   2.631   3.806   1.589
 7492TIP3   OH246670   2.739   3.887   1.891
 7492TIP3    H146671   2.709   3.841   1.813
 7492TIP3    H246672   2.685   3.966   1.895
 7493TIP3   OH246673   2.639   5.666   0.193
 7493TIP3    H146674   2.734   5.656   0.194
 7493TIP3    H246675   2.625   5.759   0.171
 7494TIP3   OH246676   1.990   5.117   0.212
 7494TIP3    H146677   2.085   5.109   0.200
 7494TIP3    H246678   1.953   5.053   0.152
 7495TIP3   OH246679   1.925   5.569   0.666
 7495TIP3    H146680   1.834   5.568   0.637
 7495TIP3    H246681   1.929   5.501   0.734
 7496TIP3   OH246682   1.986   5.374   0.854
 7496TIP3    H146683   1.944   5.311   0.913
 7496TIP3    H246684   2.045   5.424   0.910
 7497TIP3   OH246685   3.720   5.542   1.146
 7497TIP3    H146686   3.730   5.511   1.236
 7497TIP3    H246687   3.809   5.556   1.116
 7498TIP3   OH246688   3.699   5.445   1.409
 7498TIP3    H146689   3.644   5.381   1.363
 7498TIP3    H246690   3.745   5.394   1.476
 7499TIP3   OH246691   3.606   5.049   1.930
 7499TIP3    H146692   3.529   5.065   1.985
 7499TIP3    H246693   3.660   5.128   1.942
 7500TIP3   OH246694   3.709   4.872   0.492
 7500TIP3    H146695   3.784   4.931   0.499
 7500TIP3    H246696   3.727   4.803   0.556
 7501TIP3   OH246697   3.738   4.658   0.666
 7501TIP3    H146698   3.649   4.643   0.699
 7501TIP3    H246699   3.789   4.680   0.744
 7502TIP3   OH246700   3.715   4.997   1.104
 7502TIP3    H146701   3.776   4.923   1.103
 7502TIP3    H246702   3.771   5.074   1.101
 7503TIP3   OH246703   3.527   5.263   1.303
 7503TIP3    H146704   3.458   5.300   1.357
 7503TIP3    H246705   3.485   5.246   1.218
 7504TIP3   OH246706   3.649   4.704   0.285
 7504TIP3    H146707   3.572   4.739   0.241
 7504TIP3    H246708   3.666   4.766   0.356
 7505TIP3   OH246709   3.457   4.344   0.203
 7505TIP3    H146710   3.376   4.377   0.163
 7505TIP3    H246711   3.461   4.253   0.174
 7506TIP3   OH246712   3.475   4.579   0.724
 7506TIP3    H146713   3.471   4.494   0.680
 7506TIP3    H246714   3.437   4.563   0.810
 7507TIP3   OH246715   1.982   4.775   1.154
 7507TIP3    H146716   1.974   4.763   1.059
 7507TIP3    H246717   2.063   4.730   1.178
 7508TIP3   OH246718   3.604   4.727   1.679
 7508TIP3    H146719   3.659   4.651   1.660
 7508TIP3    H246720   3.652   4.801   1.640
 7509TIP3   OH246721   3.741   4.482   1.637
 7509TIP3    H146722   3.652   4.450   1.654
 7509TIP3    H246723   3.797   4.406   1.648
 7510TIP3   OH246724   3.464   4.085   0.115
 7510TIP3    H146725   3.555   4.057   0.126
 7510TIP3    H246726   3.416   4.005   0.095
 7511TIP3   OH246727   3.475   4.344   0.559
 7511TIP3    H146728   3.501   4.252   0.558
 7511TIP3    H246729   3.537   4.388   0.502
 7512TIP3   OH246730   3.550   4.353   1.100
 7512TIP3    H146731   3.643   4.369   1.083
 7512TIP3    H246732   3.537   4.380   1.190
 7513TIP3   OH246733   3.532   4.460   1.354
 7513TIP3    H146734   3.450   4.488   1.394
 7513TIP3    H246735   3.582   4.541   1.342
 7514TIP3   OH246736   2.019   4.227   1.650
 7514TIP3    H146737   2.077   4.193   1.718
 7514TIP3    H246738   1.938   4.176   1.659
 7515TIP3   OH246739   3.762   3.838   1.853
 7515TIP3    H146740   3.835   3.783   1.824
 7515TIP3    H246741   3.759   3.908   1.788
 7516TIP3   OH246742   3.542   4.079   0.551
 7516TIP3    H146743   3.573   4.030   0.627
 7516TIP3    H246744   3.475   4.023   0.512
 7517TIP3   OH246745   2.089   4.110   1.044
 7517TIP3    H146746   2.125   4.024   1.022
 7517TIP3    H246747   2.164   4.170   1.036
 7518TIP3   OH246748   1.847   4.414   1.022
 7518TIP3    H146749   1.934   4.428   0.983
 7518TIP3    H246750   1.865   4.388   1.112
 7519TIP3   OH246751   3.696   4.005   1.645
 7519TIP3    H146752   3.617   4.057   1.636
 7519TIP3    H246753   3.692   3.942   1.573
 7520TIP3   OH246754   3.720   4.011   0.183
 7520TIP3    H146755   3.789   3.947   0.199
 7520TIP3    H246756   3.760   4.095   0.206
 7521TIP3   OH246757   1.936   4.047   0.470
 7521TIP3    H146758   1.849   4.062   0.508
 7521TIP3    H246759   1.951   4.124   0.414
 7522TIP3   OH246760   3.351   5.556   0.701
 7522TIP3    H146761   3.432   5.542   0.652
 7522TIP3    H246762   3.375   5.615   0.772
 7523TIP3   OH246763   1.954   3.852   1.350
 7523TIP3    H146764   1.883   3.845   1.414
 7523TIP3    H246765   1.936   3.934   1.304
 7524TIP3   OH246766   2.173   5.247   1.654
 7524TIP3    H146767   2.086   5.284   1.638
 7524TIP3    H246768   2.174   5.228   1.748
 7525TIP3   OH246769   2.512   5.362   1.363
 7525TIP3    H146770   2.476   5.448   1.345
 7525TIP3    H246771   2.604   5.368   1.338
 7526TIP3   OH246772   2.820   5.524   1.647
 7526TIP3    H146773   2.834   5.472   1.727
 7526TIP3    H246774   2.902   5.571   1.635
 7527TIP3   OH246775   3.052   5.663   1.594
 7527TIP3    H146776   3.081   5.606   1.523
 7527TIP3    H246777   3.123   5.662   1.658
 7528TIP3   OH246778   3.631   3.813   1.460
 7528TIP3    H146779   3.580   3.844   1.386
 7528TIP3    H246780   3.643   3.719   1.443
 7529TIP3   OH246781   2.159   5.576   1.412
 7529TIP3    H146782   2.095   5.635   1.372
 7529TIP3    H246783   2.136   5.575   1.504
 7530TIP3   OH246784   2.418   5.614   1.316
 7530TIP3    H146785   2.329   5.609   1.350
 7530TIP3    H246786   2.408   5.651   1.228
 7531TIP3   OH246787   2.859   5.630   1.234
 7531TIP3    H146788   2.833   5.639   1.142
 7531TIP3    H246789   2.788   5.673   1.283
 7532TIP3   OH246790   3.082   5.520   1.355
 7532TIP3    H146791   3.013   5.565   1.306
 7532TIP3    H246792   3.163   5.552   1.316
 7533TIP3   OH246793   3.335   5.590   1.284
 7533TIP3    H146794   3.378   5.675   1.288
 7533TIP3    H246795   3.373   5.548   1.206
 7534TIP3   OH246796   2.166   5.490   1.033
 7534TIP3    H146797   2.146   5.446   1.115
 7534TIP3    H246798   2.248   5.452   1.004
 7535TIP3   OH246799   2.393   5.367   0.946
 7535TIP3    H146800   2.389   5.272   0.934
 7535TIP3    H246801   2.479   5.382   0.986
 7536TIP3   OH246802   2.652   5.372   1.042
 7536TIP3    H146803   2.672   5.287   1.003
 7536TIP3    H246804   2.694   5.370   1.128
 7537TIP3   OH246805   2.868   3.950   0.932
 7537TIP3    H146806   2.818   3.887   0.983
 7537TIP3    H246807   2.960   3.927   0.948
 7538TIP3   OH246808   3.428   3.883   0.899
 7538TIP3    H146809   3.510   3.892   0.851
 7538TIP3    H246810   3.410   3.970   0.934
 7539TIP3   OH246811   3.652   3.939   0.761
 7539TIP3    H146812   3.718   3.871   0.742
 7539TIP3    H246813   3.704   4.018   0.775
 7540TIP3   OH246814   2.172   3.821   0.697
 7540TIP3    H146815   2.080   3.794   0.694
 7540TIP3    H246816   2.221   3.740   0.682
 7541TIP3   OH246817   2.035   3.847   0.316
 7541TIP3    H146818   2.126   3.876   0.310
 7541TIP3    H246819   1.996   3.905   0.381
 7542TIP3   OH246820   2.708   3.743   0.748
 7542TIP3    H146821   2.775   3.797   0.705
 7542TIP3    H246822   2.717   3.764   0.841
 7543TIP3   OH246823   3.133   3.868   0.992
 7543TIP3    H146824   3.214   3.867   0.940
 7543TIP3    H246825   3.115   3.776   1.010
 7544TIP3   OH246826   3.339   3.913   0.462
 7544TIP3    H146827   3.266   3.961   0.501
 7544TIP3    H246828   3.308   3.823   0.456
 7545TIP3   OH246829   2.012   5.422   0.449
 7545TIP3    H146830   1.956   5.440   0.373
 7545TIP3    H246831   1.982   5.483   0.516
 7546TIP3   OH246832   2.292   3.946   0.336
 7546TIP3    H146833   2.336   3.862   0.325
 7546TIP3    H246834   2.356   4.011   0.305
 7547TIP3   OH246835   2.759   4.030   0.391
 7547TIP3    H146836   2.803   3.975   0.455
 7547TIP3    H246837   2.762   4.118   0.429
 7548TIP3   OH246838   2.916   5.640   0.209
 7548TIP3    H146839   2.997   5.688   0.192
 7548TIP3    H246840   2.932   5.552   0.173
 7549TIP3   OH246841   3.577   5.531   0.547
 7549TIP3    H146842   3.575   5.441   0.516
 7549TIP3    H246843   3.583   5.583   0.467
 7550TIP3   OH246844   2.219   3.829   1.678
 7550TIP3    H146845   2.147   3.778   1.714
 7550TIP3    H246846   2.295   3.804   1.732
 7551TIP3   OH246847   2.423   3.755   1.848
 7551TIP3    H146848   2.497   3.765   1.788
 7551TIP3    H246849   2.433   3.667   1.884
 7552TIP3   OH246850   2.242   5.493   0.303
 7552TIP3    H146851   2.183   5.566   0.282
 7552TIP3    H246852   2.187   5.432   0.354
 7553TIP3   OH246853   3.271   3.723   1.820
 7553TIP3    H146854   3.284   3.639   1.864
 7553TIP3    H246855   3.356   3.742   1.779
 7554TIP3   OH246856   3.511   5.355   1.693
 7554TIP3    H146857   3.455   5.351   1.615
 7554TIP3    H246858   3.520   5.448   1.711
 7555TIP3   OH246859   5.022   4.845   0.649
 7555TIP3    H146860   5.005   4.938   0.634
 7555TIP3    H246861   4.956   4.800   0.597
 7556TIP3   OH246862   4.883   4.700   1.120
 7556TIP3    H146863   4.909   4.639   1.188
 7556TIP3    H246864   4.823   4.650   1.064
 7557TIP3   OH246865   4.049   4.570   1.207
 7557TIP3    H146866   4.068   4.500   1.270
 7557TIP3    H246867   4.135   4.606   1.185
 7558TIP3   OH246868   5.321   4.983   0.954
 7558TIP3    H146869   5.253   4.917   0.969
 7558TIP3    H246870   5.296   5.057   1.007
 7559TIP3   OH246871   4.177   5.111   1.008
 7559TIP3    H146872   4.153   5.027   0.970
 7559TIP3    H246873   4.273   5.111   1.008
 7560TIP3   OH246874   3.814   4.398   0.593
 7560TIP3    H146875   3.802   4.488   0.623
 7560TIP3    H246876   3.768   4.395   0.508
 7561TIP3   OH246877   3.915   4.698   0.872
 7561TIP3    H146878   3.955   4.611   0.880
 7561TIP3    H246879   3.990   4.759   0.871
 7562TIP3   OH246880   4.932   5.432   0.887
 7562TIP3    H146881   5.018   5.391   0.881
 7562TIP3    H246882   4.897   5.401   0.971
 7563TIP3   OH246883   4.663   4.979   1.030
 7563TIP3    H146884   4.711   4.940   0.957
 7563TIP3    H246885   4.727   4.985   1.101
 7564TIP3   OH246886   5.634   4.056   1.176
 7564TIP3    H146887   5.620   4.131   1.234
 7564TIP3    H246888   5.707   4.083   1.120
 7565TIP3   OH246889   5.004   4.374   1.061
 7565TIP3    H146890   5.006   4.280   1.075
 7565TIP3    H246891   4.959   4.385   0.978
 7566TIP3   OH246892   4.349   4.169   0.824
 7566TIP3    H146893   4.353   4.255   0.782
 7566TIP3    H246894   4.292   4.117   0.768
 7567TIP3   OH246895   5.133   4.230   0.759
 7567TIP3    H146896   5.182   4.188   0.831
 7567TIP3    H246897   5.201   4.274   0.707
 7568TIP3   OH246898   4.016   4.443   0.902
 7568TIP3    H146899   4.079   4.401   0.960
 7568TIP3    H246900   4.031   4.402   0.816
 7569TIP3   OH246901   4.451   4.575   0.893
 7569TIP3    H146902   4.543   4.558   0.912
 7569TIP3    H246903   4.425   4.504   0.833
 7570TIP3   OH246904   5.584   4.241   1.371
 7570TIP3    H146905   5.538   4.325   1.360
 7570TIP3    H246906   5.648   4.258   1.440
 7571TIP3   OH246907   4.215   4.082   1.241
 7571TIP3    H146908   4.184   4.153   1.185
 7571TIP3    H246909   4.150   4.078   1.312
 7572TIP3   OH246910   4.946   5.097   0.562
 7572TIP3    H146911   4.916   5.095   0.471
 7572TIP3    H246912   4.945   5.189   0.587
 7573TIP3   OH246913   4.467   4.881   1.203
 7573TIP3    H146914   4.423   4.960   1.235
 7573TIP3    H246915   4.532   4.914   1.140
 7574TIP3   OH246916   5.265   4.114   1.001
 7574TIP3    H146917   5.179   4.124   1.041
 7574TIP3    H246918   5.315   4.190   1.029
 7575TIP3   OH246919   4.198   4.272   1.035
 7575TIP3    H146920   4.253   4.328   1.089
 7575TIP3    H246921   4.258   4.233   0.971
 7576TIP3   OH246922   4.345   5.107   1.303
 7576TIP3    H146923   4.363   5.201   1.304
 7576TIP3    H246924   4.253   5.100   1.328
 7577TIP3   OH246925   3.921   5.046   0.487
 7577TIP3    H146926   3.919   5.091   0.403
 7577TIP3    H246927   3.940   5.114   0.551
 7578TIP3   OH246928   5.239   5.203   1.107
 7578TIP3    H146929   5.155   5.194   1.151
 7578TIP3    H246930   5.220   5.258   1.030
 7579TIP3   OH246931   5.383   3.945   1.217
 7579TIP3    H146932   5.330   3.991   1.152
 7579TIP3    H246933   5.473   3.974   1.199
 7580TIP3   OH246934   4.566   3.759   1.043
 7580TIP3    H146935   4.544   3.666   1.045
 7580TIP3    H246936   4.482   3.803   1.054
 7581TIP3   OH246937   5.182   5.327   0.865
 7581TIP3    H146938   5.210   5.253   0.810
 7581TIP3    H246939   5.230   5.402   0.831
 7582TIP3   OH246940   5.292   5.127   0.719
 7582TIP3    H146941   5.310   5.081   0.636
 7582TIP3    H246942   5.314   5.063   0.786
 7583TIP3   OH246943   5.398   5.035   1.432
 7583TIP3    H146944   5.384   4.973   1.360
 7583TIP3    H246945   5.408   5.120   1.390
 7584TIP3   OH246946   4.845   4.734   0.463
 7584TIP3    H146947   4.771   4.794   0.453
 7584TIP3    H246948   4.902   4.753   0.388
 7585TIP3   OH246949   4.778   4.621   0.129
 7585TIP3    H146950   4.831   4.701   0.144
 7585TIP3    H246951   4.842   4.550   0.130
 7586TIP3   OH246952   5.533   4.703   1.332
 7586TIP3    H146953   5.471   4.766   1.294
 7586TIP3    H246954   5.602   4.695   1.267
 7587TIP3   OH246955   5.259   4.747   0.556
 7587TIP3    H146956   5.178   4.777   0.598
 7587TIP3    H246957   5.303   4.695   0.622
 7588TIP3   OH246958   5.172   4.506   1.477
 7588TIP3    H146959   5.173   4.583   1.534
 7588TIP3    H246960   5.099   4.521   1.418
 7589TIP3   OH246961   4.302   4.742   0.716
 7589TIP3    H146962   4.285   4.709   0.628
 7589TIP3    H246963   4.350   4.671   0.759
 7590TIP3   OH246964   4.450   5.142   0.959
 7590TIP3    H146965   4.446   5.143   0.864
 7590TIP3    H246966   4.525   5.086   0.979
 7591TIP3   OH246967   4.301   4.691   1.089
 7591TIP3    H146968   4.356   4.664   1.015
 7591TIP3    H246969   4.354   4.755   1.136
 7592TIP3   OH246970   5.006   5.172   1.250
 7592TIP3    H146971   5.004   5.183   1.345
 7592TIP3    H246972   4.948   5.097   1.234
 7593TIP3   OH246973   4.479   5.116   1.549
 7593TIP3    H146974   4.413   5.174   1.587
 7593TIP3    H246975   4.441   5.090   1.465
 7594TIP3   OH246976   5.188   4.609   0.326
 7594TIP3    H146977   5.224   4.662   0.397
 7594TIP3    H246978   5.131   4.670   0.278
 7595TIP3   OH246979   4.164   4.709   1.505
 7595TIP3    H146980   4.168   4.794   1.549
 7595TIP3    H246981   4.071   4.687   1.505
 7596TIP3   OH246982   4.912   5.369   0.613
 7596TIP3    H146983   4.899   5.391   0.705
 7596TIP3    H246984   4.850   5.424   0.566
 7597TIP3   OH246985   4.288   5.305   1.610
 7597TIP3    H146986   4.308   5.340   1.523
 7597TIP3    H246987   4.193   5.313   1.617
 7598TIP3   OH246988   5.450   3.840   0.325
 7598TIP3    H146989   5.369   3.876   0.363
 7598TIP3    H246990   5.491   3.915   0.282
 7599TIP3   OH246991   4.254   4.665   0.453
 7599TIP3    H146992   4.179   4.718   0.425
 7599TIP3    H246993   4.254   4.590   0.393
 7600TIP3   OH246994   5.560   5.278   0.186
 7600TIP3    H146995   5.600   5.365   0.184
 7600TIP3    H246996   5.634   5.217   0.185
 7601TIP3   OH246997   3.919   4.913   1.369
 7601TIP3    H146998   3.905   4.889   1.278
 7601TIP3    H246999   3.930   4.830   1.415
 7602TIP3   OH247000   3.923   5.189   1.100
 7602TIP3    H147001   4.009   5.159   1.069
 7602TIP3    H247002   3.943   5.243   1.176
 7603TIP3   OH247003   5.670   5.310   1.663
 7603TIP3    H147004   5.665   5.219   1.633
 7603TIP3    H247005   5.580   5.331   1.690
 7604TIP3   OH247006   4.720   5.252   1.513
 7604TIP3    H147007   4.710   5.327   1.572
 7604TIP3    H247008   4.642   5.199   1.529
 7605TIP3   OH247009   4.764   5.549   0.460
 7605TIP3    H147010   4.804   5.567   0.375
 7605TIP3    H247011   4.758   5.635   0.502
 7606TIP3   OH247012   4.161   5.450   0.719
 7606TIP3    H147013   4.183   5.426   0.809
 7606TIP3    H247014   4.110   5.376   0.687
 7607TIP3   OH247015   5.127   5.530   0.244
 7607TIP3    H147016   5.180   5.462   0.202
 7607TIP3    H247017   5.136   5.512   0.338
 7608TIP3   OH247018   5.138   5.500   0.520
 7608TIP3    H147019   5.066   5.442   0.541
 7608TIP3    H247020   5.197   5.495   0.596
 7609TIP3   OH247021   5.367   4.383   1.653
 7609TIP3    H147022   5.296   4.424   1.603
 7609TIP3    H247023   5.366   4.292   1.626
 7610TIP3   OH247024   4.096   5.116   1.422
 7610TIP3    H147025   4.129   5.081   1.505
 7610TIP3    H247026   4.029   5.054   1.395
 7611TIP3   OH247027   4.316   3.881   1.081
 7611TIP3    H147028   4.244   3.874   1.019
 7611TIP3    H247029   4.295   3.956   1.135
 7612TIP3   OH247030   4.788   3.905   1.457
 7612TIP3    H147031   4.826   3.847   1.523
 7612TIP3    H247032   4.694   3.899   1.470
 7613TIP3   OH247033   5.121   4.230   1.482
 7613TIP3    H147034   5.081   4.227   1.569
 7613TIP3    H247035   5.135   4.323   1.466
 7614TIP3   OH247036   5.344   4.840   0.139
 7614TIP3    H147037   5.259   4.797   0.130
 7614TIP3    H247038   5.322   4.931   0.159
 7615TIP3   OH247039   4.696   4.167   0.204
 7615TIP3    H147040   4.679   4.099   0.268
 7615TIP3    H247041   4.616   4.173   0.152
 7616TIP3   OH247042   4.357   4.439   1.188
 7616TIP3    H147043   4.358   4.466   1.280
 7616TIP3    H247044   4.342   4.520   1.140
 7617TIP3   OH247045   4.325   4.415   0.703
 7617TIP3    H147046   4.230   4.403   0.696
 7617TIP3    H247047   4.359   4.395   0.616
 7618TIP3   OH247048   4.839   4.474   0.557
 7618TIP3    H147049   4.828   4.566   0.531
 7618TIP3    H247050   4.920   4.446   0.515
 7619TIP3   OH247051   4.801   4.582   1.808
 7619TIP3    H147052   4.710   4.555   1.823
 7619TIP3    H247053   4.854   4.511   1.844
 7620TIP3   OH247054   4.900   4.381   0.809
 7620TIP3    H147055   4.874   4.422   0.726
 7620TIP3    H247056   4.974   4.325   0.786
 7621TIP3   OH247057   4.096   4.350   1.370
 7621TIP3    H147058   4.172   4.350   1.427
 7621TIP3    H247059   4.054   4.265   1.385
 7622TIP3   OH247060   4.429   4.112   0.133
 7622TIP3    H147061   4.380   4.099   0.214
 7622TIP3    H247062   4.389   4.050   0.071
 7623TIP3   OH247063   3.778   4.179   0.783
 7623TIP3    H147064   3.845   4.180   0.851
 7623TIP3    H247065   3.796   4.255   0.728
 7624TIP3   OH247066   3.847   4.246   0.277
 7624TIP3    H147067   3.924   4.288   0.240
 7624TIP3    H247068   3.788   4.319   0.297
 7625TIP3   OH247069   4.956   4.501   1.302
 7625TIP3    H147070   4.976   4.450   1.223
 7625TIP3    H247071   4.882   4.456   1.342
 7626TIP3   OH247072   4.625   4.121   0.776
 7626TIP3    H147073   4.534   4.131   0.803
 7626TIP3    H247074   4.669   4.080   0.850
 7627TIP3   OH247075   4.069   4.315   0.668
 7627TIP3    H147076   3.988   4.331   0.620
 7627TIP3    H247077   4.091   4.224   0.648
 7628TIP3   OH247078   4.393   4.323   0.455
 7628TIP3    H147079   4.488   4.322   0.463
 7628TIP3    H247080   4.375   4.381   0.382
 7629TIP3   OH247081   5.011   4.103   1.095
 7629TIP3    H147082   4.964   4.104   1.178
 7629TIP3    H247083   4.993   4.016   1.058
 7630TIP3   OH247084   4.298   4.480   0.252
 7630TIP3    H147085   4.222   4.446   0.205
 7630TIP3    H247086   4.362   4.498   0.184
 7631TIP3   OH247087   5.397   5.660   1.723
 7631TIP3    H147088   5.421   5.680   1.632
 7631TIP3    H247089   5.470   5.693   1.775
 7632TIP3   OH247090   4.165   4.958   1.642
 7632TIP3    H147091   4.234   4.947   1.707
 7632TIP3    H247092   4.083   4.954   1.693
 7633TIP3   OH247093   4.710   4.501   0.977
 7633TIP3    H147094   4.770   4.460   0.915
 7633TIP3    H247095   4.686   4.431   1.037
 7634TIP3   OH247096   4.175   4.058   0.635
 7634TIP3    H147097   4.128   3.976   0.650
 7634TIP3    H247098   4.220   4.045   0.551
 7635TIP3   OH247099   4.608   4.327   1.172
 7635TIP3    H147100   4.524   4.372   1.180
 7635TIP3    H247101   4.653   4.346   1.255
 7636TIP3   OH247102   4.630   4.914   0.421
 7636TIP3    H147103   4.570   4.858   0.371
 7636TIP3    H247104   4.599   4.906   0.512
 7637TIP3   OH247105   5.351   4.870   1.219
 7637TIP3    H147106   5.404   4.915   1.153
 7637TIP3    H247107   5.275   4.838   1.170
 7638TIP3   OH247108   4.916   4.179   0.378
 7638TIP3    H147109   4.854   4.190   0.306
 7638TIP3    H247110   4.966   4.260   0.380
 7639TIP3   OH247111   4.805   4.892   1.518
 7639TIP3    H147112   4.877   4.856   1.569
 7639TIP3    H247113   4.754   4.943   1.580
 7640TIP3   OH247114   5.076   4.394   0.448
 7640TIP3    H147115   5.153   4.364   0.496
 7640TIP3    H247116   5.107   4.470   0.399
 7641TIP3   OH247117   4.147   4.848   0.915
 7641TIP3    H147118   4.197   4.826   0.836
 7641TIP3    H247119   4.189   4.797   0.985
 7642TIP3   OH247120   4.828   5.066   0.309
 7642TIP3    H147121   4.763   5.009   0.350
 7642TIP3    H247122   4.889   5.006   0.266
 7643TIP3   OH247123   3.881   4.669   1.490
 7643TIP3    H147124   3.859   4.602   1.555
 7643TIP3    H247125   3.807   4.670   1.429
 7644TIP3   OH247126   4.510   4.742   1.698
 7644TIP3    H147127   4.530   4.726   1.605
 7644TIP3    H247128   4.511   4.655   1.738
 7645TIP3   OH247129   4.987   5.189   1.534
 7645TIP3    H147130   4.894   5.202   1.518
 7645TIP3    H247131   4.996   5.195   1.629
 7646TIP3   OH247132   5.620   4.492   0.312
 7646TIP3    H147133   5.529   4.462   0.321
 7646TIP3    H247134   5.613   4.580   0.277
 7647TIP3   OH247135   5.641   5.058   1.564
 7647TIP3    H147136   5.550   5.044   1.537
 7647TIP3    H247137   5.693   5.012   1.498
 7648TIP3   OH247138   5.473   5.264   0.449
 7648TIP3    H147139   5.424   5.183   0.468
 7648TIP3    H247140   5.490   5.260   0.355
 7649TIP3   OH247141   5.153   4.776   1.047
 7649TIP3    H147142   5.059   4.765   1.059
 7649TIP3    H247143   5.182   4.693   1.009
 7650TIP3   OH247144   4.425   5.165   0.686
 7650TIP3    H147145   4.432   5.261   0.684
 7650TIP3    H247146   4.407   5.140   0.596
 7651TIP3   OH247147   3.919   4.642   0.230
 7651TIP3    H147148   3.967   4.712   0.274
 7651TIP3    H247149   3.827   4.666   0.242
 7652TIP3   OH247150   4.519   4.906   0.668
 7652TIP3    H147151   4.493   4.996   0.690
 7652TIP3    H247152   4.443   4.853   0.691
 7653TIP3   OH247153   4.660   5.377   1.274
 7653TIP3    H147154   4.724   5.447   1.261
 7653TIP3    H247155   4.697   5.324   1.345
 7654TIP3   OH247156   4.426   5.435   0.636
 7654TIP3    H147157   4.335   5.459   0.654
 7654TIP3    H247158   4.477   5.505   0.676
 7655TIP3   OH247159   4.840   4.947   1.243
 7655TIP3    H147160   4.832   4.931   1.337
 7655TIP3    H247161   4.864   4.862   1.207
 7656TIP3   OH247162   5.216   5.063   0.250
 7656TIP3    H147163   5.249   5.045   0.338
 7656TIP3    H247164   5.142   5.004   0.238
 7657TIP3   OH247165   5.204   5.361   1.497
 7657TIP3    H147166   5.137   5.294   1.512
 7657TIP3    H247167   5.156   5.435   1.460
 7658TIP3   OH247168   5.662   5.531   0.228
 7658TIP3    H147169   5.728   5.600   0.238
 7658TIP3    H247170   5.579   5.573   0.251
 7659TIP3   OH247171   4.030   4.087   1.455
 7659TIP3    H147172   3.974   4.136   1.516
 7659TIP3    H247173   4.052   4.007   1.502
 7660TIP3   OH247174   5.365   4.990   0.482
 7660TIP3    H147175   5.315   4.911   0.500
 7660TIP3    H247176   5.455   4.960   0.474
 7661TIP3   OH247177   4.019   5.362   1.309
 7661TIP3    H147178   4.048   5.285   1.359
 7661TIP3    H247179   4.041   5.436   1.366
 7662TIP3   OH247180   4.430   5.126   0.413
 7662TIP3    H147181   4.501   5.064   0.399
 7662TIP3    H247182   4.469   5.211   0.391
 7663TIP3   OH247183   4.062   4.843   0.359
 7663TIP3    H147184   4.012   4.897   0.421
 7663TIP3    H247185   4.120   4.906   0.315
 7664TIP3   OH247186   4.907   4.122   1.345
 7664TIP3    H147187   4.986   4.142   1.395
 7664TIP3    H247188   4.871   4.044   1.388
 7665TIP3   OH247189   5.010   4.043   0.593
 7665TIP3    H147190   4.976   4.092   0.517
 7665TIP3    H247191   5.044   4.111   0.651
 7666TIP3   OH247192   4.642   5.220   0.181
 7666TIP3    H147193   4.613   5.282   0.248
 7666TIP3    H247194   4.714   5.172   0.222
 7667TIP3   OH247195   4.648   4.274   0.543
 7667TIP3    H147196   4.715   4.342   0.544
 7667TIP3    H247197   4.651   4.236   0.631
 7668TIP3   OH247198   4.753   4.341   1.408
 7668TIP3    H147199   4.730   4.329   1.501
 7668TIP3    H247200   4.800   4.260   1.385
 7669TIP3   OH247201   4.768   3.921   0.635
 7669TIP3    H147202   4.727   3.985   0.692
 7669TIP3    H247203   4.858   3.950   0.626
 7670TIP3   OH247204   4.553   5.380   0.400
 7670TIP3    H147205   4.633   5.431   0.412
 7670TIP3    H247206   4.503   5.394   0.481
 7671TIP3   OH247207   4.337   4.062   0.402
 7671TIP3    H147208   4.341   4.155   0.422
 7671TIP3    H247209   4.426   4.030   0.418
 7672TIP3   OH247210   5.380   4.136   1.532
 7672TIP3    H147211   5.291   4.139   1.496
 7672TIP3    H247212   5.436   4.150   1.456
 7673TIP3   OH247213   5.228   4.515   0.969
 7673TIP3    H147214   5.146   4.474   0.996
 7673TIP3    H247215   5.296   4.461   1.008
 7674TIP3   OH247216   4.207   5.059   0.257
 7674TIP3    H147217   4.264   5.092   0.326
 7674TIP3    H247218   4.265   5.039   0.184
 7675TIP3   OH247219   4.040   4.414   0.148
 7675TIP3    H147220   4.001   4.495   0.181
 7675TIP3    H247221   4.023   4.415   0.054
 7676TIP3   OH247222   5.378   5.564   1.093
 7676TIP3    H147223   5.368   5.621   1.016
 7676TIP3    H247224   5.471   5.544   1.096
 7677TIP3   OH247225   4.068   3.871   0.955
 7677TIP3    H147226   4.065   3.857   0.860
 7677TIP3    H247227   4.047   3.786   0.992
 7678TIP3   OH247228   3.958   5.271   0.644
 7678TIP3    H147229   3.912   5.296   0.724
 7678TIP3    H247230   3.935   5.340   0.581
 7679TIP3   OH247231   3.998   5.582   1.760
 7679TIP3    H147232   4.053   5.566   1.837
 7679TIP3    H247233   3.996   5.499   1.714
 7680TIP3   OH247234   4.392   5.381   1.856
 7680TIP3    H147235   4.462   5.319   1.877
 7680TIP3    H247236   4.360   5.352   1.770
 7681TIP3   OH247237   4.805   5.391   0.032
 7681TIP3    H147238   4.739   5.331   0.067
 7681TIP3    H247239   4.872   5.334  -0.007
 7682TIP3   OH247240   5.016   5.217   1.805
 7682TIP3    H147241   5.017   5.131   1.847
 7682TIP3    H247242   5.094   5.261   1.839
 7683TIP3   OH247243   5.282   5.317   0.160
 7683TIP3    H147244   5.249   5.231   0.184
 7683TIP3    H247245   5.377   5.305   0.154
 7684TIP3   OH247246   3.930   4.920   1.779
 7684TIP3    H147247   3.954   4.830   1.801
 7684TIP3    H247248   3.853   4.912   1.723
 7685TIP3   OH247249   4.424   4.996   0.104
 7685TIP3    H147250   4.450   4.920   0.155
 7685TIP3    H247251   4.502   5.052   0.103
 7686TIP3   OH247252   4.636   4.984   1.724
 7686TIP3    H147253   4.575   5.027   1.664
 7686TIP3    H247254   4.603   4.894   1.732
 7687TIP3   OH247255   5.158   4.960   1.548
 7687TIP3    H147256   5.241   4.994   1.514
 7687TIP3    H247257   5.096   5.032   1.535
 7688TIP3   OH247258   4.041   4.667   1.830
 7688TIP3    H147259   4.089   4.597   1.787
 7688TIP3    H247260   4.067   4.661   1.922
 7689TIP3   OH247261   4.449   4.772   0.277
 7689TIP3    H147262   4.386   4.736   0.339
 7689TIP3    H247263   4.467   4.700   0.217
 7690TIP3   OH247264   4.379   4.558   1.433
 7690TIP3    H147265   4.305   4.611   1.461
 7690TIP3    H247266   4.453   4.619   1.431
 7691TIP3   OH247267   4.512   4.571   0.094
 7691TIP3    H147268   4.511   4.567  -0.001
 7691TIP3    H247269   4.604   4.583   0.117
 7692TIP3   OH247270   4.954   4.796   1.743
 7692TIP3    H147271   5.038   4.755   1.724
 7692TIP3    H247272   4.895   4.723   1.764
 7693TIP3   OH247273   5.422   4.716   9.920
 7693TIP3    H147274   5.343   4.751   9.879
 7693TIP3    H247275   5.476   4.793   9.938
 7694TIP3   OH247276   4.327   4.306   1.522
 7694TIP3    H147277   4.385   4.244   1.479
 7694TIP3    H247278   4.364   4.392   1.502
 7695TIP3   OH247279   4.466   4.136   1.339
 7695TIP3    H147280   4.520   4.177   1.272
 7695TIP3    H247281   4.381   4.123   1.296
 7696TIP3   OH247282   4.577   4.750   1.426
 7696TIP3    H147283   4.661   4.790   1.445
 7696TIP3    H247284   4.545   4.796   1.348
 7697TIP3   OH247285   4.988   4.411   1.925
 7697TIP3    H147286   5.002   4.356   1.848
 7697TIP3    H247287   5.061   4.473   1.924
 7698TIP3   OH247288   5.217   4.719   1.654
 7698TIP3    H147289   5.192   4.805   1.620
 7698TIP3    H247290   5.312   4.716   1.643
 7699TIP3   OH247291   4.227   4.377   1.773
 7699TIP3    H147292   4.248   4.344   1.686
 7699TIP3    H247293   4.308   4.417   1.804
 7700TIP3   OH247294   4.514   3.882   1.436
 7700TIP3    H147295   4.495   3.971   1.407
 7700TIP3    H247296   4.449   3.828   1.392
 7701TIP3   OH247297   4.685   4.274   1.678
 7701TIP3    H147298   4.647   4.349   1.725
 7701TIP3    H247299   4.629   4.200   1.700
 7702TIP3   OH247300   4.996   4.221   1.724
 7702TIP3    H147301   4.902   4.200   1.729
 7702TIP3    H247302   5.038   4.156   1.780
 7703TIP3   OH247303   5.141   4.057   1.903
 7703TIP3    H147304   5.124   3.967   1.877
 7703TIP3    H247305   5.093   4.068   1.985
 7704TIP3   OH247306   4.017   4.214   1.856
 7704TIP3    H147307   4.092   4.271   1.840
 7704TIP3    H247308   4.046   4.157   1.927
 7705TIP3   OH247309   4.548   3.786   1.688
 7705TIP3    H147310   4.589   3.701   1.671
 7705TIP3    H247311   4.527   3.820   1.601
 7706TIP3   OH247312   4.490   3.893   1.927
 7706TIP3    H147313   4.519   3.851   1.846
 7706TIP3    H247314   4.505   3.986   1.913
 7707TIP3   OH247315   4.618   5.727   0.194
 7707TIP3    H147316   4.701   5.681   0.182
 7707TIP3    H247317   4.639   5.801   0.251
 7708TIP3   OH247318   3.940   5.122   0.215
 7708TIP3    H147319   4.034   5.123   0.230
 7708TIP3    H247320   3.928   5.062   0.141
 7709TIP3   OH247321   3.769   5.592   0.739
 7709TIP3    H147322   3.709   5.567   0.668
 7709TIP3    H247323   3.785   5.510   0.787
 7710TIP3   OH247324   3.857   5.369   0.886
 7710TIP3    H147325   3.844   5.290   0.938
 7710TIP3    H247326   3.903   5.429   0.944
 7711TIP3   OH247327   5.646   5.520   1.151
 7711TIP3    H147328   5.645   5.508   1.246
 7711TIP3    H247329   5.738   5.537   1.130
 7712TIP3   OH247330   5.606   5.439   1.414
 7712TIP3    H147331   5.541   5.378   1.380
 7712TIP3    H247332   5.644   5.394   1.489
 7713TIP3   OH247333   5.467   5.064   1.874
 7713TIP3    H147334   5.388   5.056   1.926
 7713TIP3    H247335   5.508   5.145   1.904
 7714TIP3   OH247336   5.611   4.864   0.478
 7714TIP3    H147337   5.685   4.922   0.493
 7714TIP3    H247338   5.620   4.795   0.545
 7715TIP3   OH247339   5.638   4.668   0.674
 7715TIP3    H147340   5.553   4.638   0.706
 7715TIP3    H247341   5.688   4.685   0.753
 7716TIP3   OH247342   5.619   4.976   1.149
 7716TIP3    H147343   5.627   4.947   1.058
 7716TIP3    H247344   5.642   5.069   1.147
 7717TIP3   OH247345   5.401   5.285   1.317
 7717TIP3    H147346   5.329   5.318   1.373
 7717TIP3    H247347   5.359   5.266   1.233
 7718TIP3   OH247348   5.592   4.755   0.226
 7718TIP3    H147349   5.509   4.779   0.185
 7718TIP3    H247350   5.590   4.797   0.312
 7719TIP3   OH247351   5.366   4.398   0.323
 7719TIP3    H147352   5.304   4.465   0.295
 7719TIP3    H247353   5.355   4.327   0.260
 7720TIP3   OH247354   5.377   4.569   0.735
 7720TIP3    H147355   5.367   4.485   0.691
 7720TIP3    H247356   5.327   4.560   0.816
 7721TIP3   OH247357   3.872   4.763   1.134
 7721TIP3    H147358   3.870   4.749   1.039
 7721TIP3    H247359   3.937   4.701   1.166
 7722TIP3   OH247360   5.487   4.705   1.607
 7722TIP3    H147361   5.539   4.625   1.618
 7722TIP3    H247362   5.502   4.730   1.516
 7723TIP3   OH247363   5.623   4.465   1.596
 7723TIP3    H147364   5.536   4.432   1.617
 7723TIP3    H247365   5.681   4.390   1.612
 7724TIP3   OH247366   5.363   4.176   0.160
 7724TIP3    H147367   5.445   4.127   0.164
 7724TIP3    H247368   5.303   4.119   0.111
 7725TIP3   OH247369   5.328   4.330   0.585
 7725TIP3    H147370   5.375   4.247   0.591
 7725TIP3    H247371   5.352   4.365   0.499
 7726TIP3   OH247372   5.399   4.336   1.091
 7726TIP3    H147373   5.489   4.351   1.061
 7726TIP3    H247374   5.398   4.369   1.181
 7727TIP3   OH247375   5.411   4.457   1.339
 7727TIP3    H147376   5.328   4.477   1.382
 7727TIP3    H247377   5.458   4.540   1.339
 7728TIP3   OH247378   3.860   4.226   1.634
 7728TIP3    H147379   3.916   4.230   1.711
 7728TIP3    H247380   3.804   4.149   1.649
 7729TIP3   OH247381   5.632   3.783   1.805
 7729TIP3    H147382   5.675   3.727   1.740
 7729TIP3    H247383   5.639   3.871   1.769
 7730TIP3   OH247384   5.439   4.080   0.574
 7730TIP3    H147385   5.476   4.026   0.644
 7730TIP3    H247386   5.372   4.025   0.534
 7731TIP3   OH247387   3.960   4.126   0.993
 7731TIP3    H147388   3.995   4.038   0.980
 7731TIP3    H247389   4.038   4.181   1.007
 7732TIP3   OH247390   3.817   4.429   1.096
 7732TIP3    H147391   3.867   4.425   1.015
 7732TIP3    H247392   3.877   4.467   1.160
 7733TIP3   OH247393   5.569   4.046   1.714
 7733TIP3    H147394   5.526   4.075   1.794
 7733TIP3    H247395   5.502   4.053   1.646
 7734TIP3   OH247396   5.604   4.035   0.192
 7734TIP3    H147397   5.672   3.968   0.205
 7734TIP3    H247398   5.649   4.118   0.207
 7735TIP3   OH247399   3.819   4.044   0.468
 7735TIP3    H147400   3.733   4.065   0.504
 7735TIP3    H247401   3.840   4.120   0.413
 7736TIP3   OH247402   5.303   5.537   0.738
 7736TIP3    H147403   5.381   5.534   0.683
 7736TIP3    H247404   5.314   5.616   0.792
 7737TIP3   OH247405   3.853   3.835   1.282
 7737TIP3    H147406   3.795   3.841   1.358
 7737TIP3    H247407   3.840   3.917   1.236
 7738TIP3   OH247408   4.010   5.325   1.661
 7738TIP3    H147409   3.926   5.300   1.622
 7738TIP3    H247410   4.013   5.278   1.744
 7739TIP3   OH247411   4.396   5.374   1.359
 7739TIP3    H147412   4.369   5.463   1.338
 7739TIP3    H247413   4.489   5.372   1.339
 7740TIP3   OH247414   4.717   5.473   1.680
 7740TIP3    H147415   4.735   5.442   1.769
 7740TIP3    H247416   4.790   5.530   1.658
 7741TIP3   OH247417   4.933   5.631   1.625
 7741TIP3    H147418   4.982   5.602   1.548
 7741TIP3    H247419   4.999   5.646   1.692
 7742TIP3   OH247420   5.463   3.835   1.463
 7742TIP3    H147421   5.430   3.878   1.385
 7742TIP3    H247422   5.487   3.746   1.434
 7743TIP3   OH247423   4.079   5.625   1.412
 7743TIP3    H147424   4.004   5.671   1.375
 7743TIP3    H247425   4.098   5.672   1.493
 7744TIP3   OH247426   4.331   5.633   1.305
 7744TIP3    H147427   4.240   5.632   1.334
 7744TIP3    H247428   4.328   5.672   1.217
 7745TIP3   OH247429   4.811   5.604   1.220
 7745TIP3    H147430   4.753   5.634   1.151
 7745TIP3    H247431   4.808   5.673   1.286
 7746TIP3   OH247432   5.048   5.560   1.386
 7746TIP3    H147433   4.984   5.561   1.315
 7746TIP3    H247434   5.121   5.613   1.353
 7747TIP3   OH247435   5.273   5.692   1.304
 7747TIP3    H147436   5.297   5.781   1.276
 7747TIP3    H247437   5.300   5.636   1.231
 7748TIP3   OH247438   4.003   5.513   1.078
 7748TIP3    H147439   4.000   5.471   1.164
 7748TIP3    H247440   4.084   5.480   1.038
 7749TIP3   OH247441   4.225   5.388   0.980
 7749TIP3    H147442   4.211   5.294   0.992
 7749TIP3    H247443   4.315   5.402   1.007
 7750TIP3   OH247444   4.500   5.398   1.052
 7750TIP3    H147445   4.492   5.311   1.014
 7750TIP3    H247446   4.554   5.386   1.130
 7751TIP3   OH247447   4.747   3.946   0.945
 7751TIP3    H147448   4.692   3.882   0.991
 7751TIP3    H247449   4.836   3.910   0.952
 7752TIP3   OH247450   5.327   3.868   0.896
 7752TIP3    H147451   5.412   3.884   0.856
 7752TIP3    H247452   5.301   3.952   0.932
 7753TIP3   OH247453   5.560   3.931   0.773
 7753TIP3    H147454   5.619   3.859   0.751
 7753TIP3    H247455   5.618   4.006   0.789
 7754TIP3   OH247456   4.059   3.813   0.685
 7754TIP3    H147457   3.967   3.788   0.675
 7754TIP3    H247458   4.107   3.730   0.677
 7755TIP3   OH247459   3.902   3.834   0.312
 7755TIP3    H147460   3.992   3.857   0.290
 7755TIP3    H247461   3.877   3.897   0.380
 7756TIP3   OH247462   4.580   3.744   0.754
 7756TIP3    H147463   4.650   3.799   0.718
 7756TIP3    H247464   4.586   3.758   0.849
 7757TIP3   OH247465   5.005   3.846   0.979
 7757TIP3    H147466   5.087   3.852   0.929
 7757TIP3    H247467   4.995   3.752   0.996
 7758TIP3   OH247468   5.231   3.925   0.471
 7758TIP3    H147469   5.157   3.974   0.509
 7758TIP3    H247470   5.197   3.836   0.460
 7759TIP3   OH247471   3.903   5.472   0.471
 7759TIP3    H147472   3.841   5.458   0.399
 7759TIP3    H247473   3.942   5.557   0.452
 7760TIP3   OH247474   4.157   3.905   0.263
 7760TIP3    H147475   4.216   3.841   0.222
 7760TIP3    H247476   4.214   3.961   0.315
 7761TIP3   OH247477   4.611   4.023   0.432
 7761TIP3    H147478   4.664   3.975   0.496
 7761TIP3    H247479   4.623   4.115   0.456
 7762TIP3   OH247480   4.863   5.595   0.206
 7762TIP3    H147481   4.958   5.588   0.215
 7762TIP3    H247482   4.841   5.529   0.139
 7763TIP3   OH247483   5.502   5.517   0.547
 7763TIP3    H147484   5.490   5.426   0.517
 7763TIP3    H247485   5.488   5.569   0.468
 7764TIP3   OH247486   4.077   3.861   1.617
 7764TIP3    H147487   4.026   3.797   1.667
 7764TIP3    H247488   4.148   3.887   1.676
 7765TIP3   OH247489   4.223   3.859   1.861
 7765TIP3    H147490   4.317   3.872   1.877
 7765TIP3    H247491   4.204   3.772   1.895
 7766TIP3   OH247492   4.394   5.599   0.293
 7766TIP3    H147493   4.431   5.514   0.318
 7766TIP3    H247494   4.465   5.643   0.246
 7767TIP3   OH247495   5.113   3.795   1.805
 7767TIP3    H147496   5.105   3.742   1.885
 7767TIP3    H247497   5.203   3.782   1.777
 7768TIP3   OH247498   5.403   5.384   1.695
 7768TIP3    H147499   5.339   5.367   1.626
 7768TIP3    H247500   5.398   5.478   1.710
 7769TIP3   OH247501   6.862   4.791   0.642
 7769TIP3    H147502   6.835   4.882   0.639
 7769TIP3    H247503   6.800   4.745   0.585
 7770TIP3   OH247504   6.743   4.711   1.068
 7770TIP3    H147505   6.769   4.666   1.148
 7770TIP3    H247506   6.691   4.647   1.020
 7771TIP3   OH247507   5.973   4.640   1.242
 7771TIP3    H147508   5.996   4.550   1.264
 7771TIP3    H247509   6.018   4.693   1.308
 7772TIP3   OH247510   7.167   4.991   0.892
 7772TIP3    H147511   7.098   4.931   0.922
 7772TIP3    H247512   7.155   5.069   0.946
 7773TIP3   OH247513   6.177   5.111   0.901
 7773TIP3    H147514   6.125   5.031   0.890
 7773TIP3    H247515   6.253   5.083   0.952
 7774TIP3   OH247516   5.779   4.467   0.537
 7774TIP3    H147517   5.739   4.536   0.589
 7774TIP3    H247518   5.734   4.471   0.452
 7775TIP3   OH247519   5.825   4.703   0.882
 7775TIP3    H147520   5.862   4.615   0.889
 7775TIP3    H247521   5.900   4.761   0.870
 7776TIP3   OH247522   6.875   5.437   0.997
 7776TIP3    H147523   6.895   5.390   0.916
 7776TIP3    H247524   6.873   5.369   1.065
 7777TIP3   OH247525   6.636   4.966   1.099
 7777TIP3    H147526   6.671   4.880   1.075
 7777TIP3    H247527   6.694   4.997   1.169
 7778TIP3   OH247528   7.373   4.104   1.137
 7778TIP3    H147529   7.388   4.153   1.218
 7778TIP3    H247530   7.394   4.166   1.067
 7779TIP3   OH247531   6.860   4.366   1.083
 7779TIP3    H147532   6.874   4.274   1.104
 7779TIP3    H247533   6.846   4.368   0.988
 7780TIP3   OH247534   6.263   4.142   0.784
 7780TIP3    H147535   6.259   4.232   0.752
 7780TIP3    H247536   6.204   4.094   0.726
 7781TIP3   OH247537   7.013   4.231   0.674
 7781TIP3    H147538   7.046   4.198   0.758
 7781TIP3    H247539   7.087   4.277   0.636
 7782TIP3   OH247540   5.902   4.433   0.910
 7782TIP3    H147541   5.967   4.386   0.961
 7782TIP3    H247542   5.905   4.393   0.823
 7783TIP3   OH247543   6.381   4.598   0.806
 7783TIP3    H147544   6.460   4.559   0.843
 7783TIP3    H247545   6.328   4.523   0.778
 7784TIP3   OH247546   7.406   4.247   1.365
 7784TIP3    H147547   7.355   4.328   1.363
 7784TIP3    H247548   7.476   4.264   1.428
 7785TIP3   OH247549   6.155   4.103   1.229
 7785TIP3    H147550   6.125   4.161   1.160
 7785TIP3    H247551   6.087   4.107   1.296
 7786TIP3   OH247552   6.824   5.055   0.576
 7786TIP3    H147553   6.820   5.047   0.481
 7786TIP3    H247554   6.781   5.138   0.596
 7787TIP3   OH247555   6.383   4.895   1.194
 7787TIP3    H147556   6.337   4.967   1.237
 7787TIP3    H247557   6.463   4.935   1.160
 7788TIP3   OH247558   7.072   4.176   0.931
 7788TIP3    H147559   7.011   4.132   0.990
 7788TIP3    H247560   7.115   4.242   0.984
 7789TIP3   OH247561   6.108   4.247   0.995
 7789TIP3    H147562   6.164   4.319   1.022
 7789TIP3    H247563   6.158   4.202   0.927
 7790TIP3   OH247564   6.256   5.095   1.343
 7790TIP3    H147565   6.265   5.190   1.344
 7790TIP3    H247566   6.163   5.080   1.359
 7791TIP3   OH247567   5.820   5.044   0.482
 7791TIP3    H147568   5.794   5.087   0.400
 7791TIP3    H247569   5.840   5.116   0.541
 7792TIP3   OH247570   7.136   5.209   1.064
 7792TIP3    H147571   7.052   5.221   1.107
 7792TIP3    H247572   7.166   5.297   1.043
 7793TIP3   OH247573   7.139   3.949   1.165
 7793TIP3    H147574   7.060   4.001   1.155
 7793TIP3    H247575   7.211   4.012   1.159
 7794TIP3   OH247576   6.500   3.790   1.027
 7794TIP3    H147577   6.481   3.696   1.034
 7794TIP3    H247578   6.415   3.832   1.040
 7795TIP3   OH247579   6.959   5.346   0.750
 7795TIP3    H147580   7.015   5.274   0.721
 7795TIP3    H247581   7.014   5.424   0.742
 7796TIP3   OH247582   7.085   5.121   0.658
 7796TIP3    H147583   7.003   5.078   0.635
 7796TIP3    H247584   7.123   5.066   0.726
 7797TIP3   OH247585   7.274   4.988   1.390
 7797TIP3    H147586   7.257   4.933   1.313
 7797TIP3    H247587   7.298   5.073   1.354
 7798TIP3   OH247588   6.750   4.672   0.401
 7798TIP3    H147589   6.692   4.744   0.374
 7798TIP3    H247590   6.834   4.692   0.359
 7799TIP3   OH247591   6.611   4.479   0.232
 7799TIP3    H147592   6.666   4.528   0.293
 7799TIP3    H247593   6.646   4.390   0.234
 7800TIP3   OH247594   7.378   4.651   1.236
 7800TIP3    H147595   7.325   4.727   1.211
 7800TIP3    H247596   7.424   4.626   1.156
 7801TIP3   OH247597   7.118   4.810   0.552
 7801TIP3    H147598   7.032   4.810   0.594
 7801TIP3    H247599   7.167   4.743   0.600
 7802TIP3   OH247600   7.004   4.525   1.498
 7802TIP3    H147601   7.008   4.607   1.548
 7802TIP3    H247602   6.943   4.543   1.427
 7803TIP3   OH247603   6.259   4.794   0.654
 7803TIP3    H147604   6.231   4.749   0.574
 7803TIP3    H247605   6.309   4.727   0.702
 7804TIP3   OH247606   6.456   5.135   0.976
 7804TIP3    H147607   6.467   5.136   0.880
 7804TIP3    H247608   6.527   5.080   1.007
 7805TIP3   OH247609   6.255   4.718   1.024
 7805TIP3    H147610   6.317   4.695   0.955
 7805TIP3    H247611   6.303   4.777   1.081
 7806TIP3   OH247612   6.903   5.254   1.208
 7806TIP3    H147613   6.892   5.322   1.273
 7806TIP3    H247614   6.856   5.178   1.244
 7807TIP3   OH247615   6.413   5.076   1.576
 7807TIP3    H147616   6.358   5.139   1.622
 7807TIP3    H247617   6.368   5.061   1.493
 7808TIP3   OH247618   7.020   4.694   0.322
 7808TIP3    H147619   7.056   4.737   0.400
 7808TIP3    H247620   7.064   4.737   0.249
 7809TIP3   OH247621   6.071   4.726   1.492
 7809TIP3    H147622   6.075   4.808   1.541
 7809TIP3    H247623   5.981   4.695   1.505
 7810TIP3   OH247624   6.741   5.323   0.586
 7810TIP3    H147625   6.807   5.331   0.655
 7810TIP3    H247626   6.719   5.413   0.563
 7811TIP3   OH247627   6.230   5.270   1.645
 7811TIP3    H147628   6.238   5.313   1.559
 7811TIP3    H247629   6.135   5.259   1.656
 7812TIP3   OH247630   7.386   3.826   0.343
 7812TIP3    H147631   7.298   3.857   0.365
 7812TIP3    H247632   7.429   3.902   0.305
 7813TIP3   OH247633   6.181   4.686   0.413
 7813TIP3    H147634   6.102   4.736   0.396
 7813TIP3    H247635   6.165   4.601   0.372
 7814TIP3   OH247636   7.556   5.303   0.277
 7814TIP3    H147637   7.578   5.396   0.282
 7814TIP3    H247638   7.633   5.263   0.236
 7815TIP3   OH247639   5.780   4.912   1.379
 7815TIP3    H147640   5.728   4.907   1.299
 7815TIP3    H247641   5.782   4.823   1.413
 7816TIP3   OH247642   5.701   5.241   1.134
 7816TIP3    H147643   5.773   5.259   1.195
 7816TIP3    H247644   5.645   5.318   1.139
 7817TIP3   OH247645   7.553   5.219   1.624
 7817TIP3    H147646   7.535   5.125   1.620
 7817TIP3    H247647   7.475   5.257   1.664
 7818TIP3   OH247648   6.625   5.259   1.523
 7818TIP3    H147649   6.602   5.335   1.577
 7818TIP3    H247650   6.558   5.193   1.544
 7819TIP3   OH247651   6.726   5.578   0.487
 7819TIP3    H147652   6.711   5.608   0.398
 7819TIP3    H247653   6.695   5.650   0.543
 7820TIP3   OH247654   6.075   5.443   0.708
 7820TIP3    H147655   6.096   5.420   0.798
 7820TIP3    H247656   6.017   5.373   0.679
 7821TIP3   OH247657   7.004   5.635   0.183
 7821TIP3    H147658   7.007   5.556   0.127
 7821TIP3    H247659   7.009   5.601   0.272
 7822TIP3   OH247660   6.992   5.512   0.430
 7822TIP3    H147661   6.902   5.519   0.462
 7822TIP3    H247662   7.020   5.425   0.458
 7823TIP3   OH247663   7.200   4.395   1.691
 7823TIP3    H147664   7.128   4.441   1.648
 7823TIP3    H247665   7.199   4.307   1.654
 7824TIP3   OH247666   5.987   5.093   1.422
 7824TIP3    H147667   6.005   5.067   1.512
 7824TIP3    H247668   5.919   5.032   1.393
 7825TIP3   OH247669   6.249   3.891   1.079
 7825TIP3    H147670   6.168   3.869   1.032
 7825TIP3    H247671   6.226   3.967   1.132
 7826TIP3   OH247672   6.704   3.917   1.482
 7826TIP3    H147673   6.747   3.855   1.542
 7826TIP3    H247674   6.611   3.911   1.504
 7827TIP3   OH247675   6.956   4.257   1.548
 7827TIP3    H147676   6.914   4.250   1.634
 7827TIP3    H247677   6.962   4.351   1.532
 7828TIP3   OH247678   7.172   4.866   0.165
 7828TIP3    H147679   7.127   4.931   0.112
 7828TIP3    H247680   7.207   4.915   0.240
 7829TIP3   OH247681   6.661   4.205   0.200
 7829TIP3    H147682   6.630   4.142   0.264
 7829TIP3    H247683   6.595   4.204   0.130
 7830TIP3   OH247684   6.244   4.456   1.110
 7830TIP3    H147685   6.183   4.447   1.183
 7830TIP3    H247686   6.235   4.547   1.083
 7831TIP3   OH247687   6.208   4.399   0.701
 7831TIP3    H147688   6.113   4.391   0.706
 7831TIP3    H247689   6.230   4.374   0.611
 7832TIP3   OH247690   6.765   4.445   0.548
 7832TIP3    H147691   6.744   4.530   0.509
 7832TIP3    H247692   6.847   4.418   0.505
 7833TIP3   OH247693   6.651   4.458   1.645
 7833TIP3    H147694   6.616   4.381   1.691
 7833TIP3    H247695   6.727   4.484   1.696
 7834TIP3   OH247696   6.829   4.388   0.808
 7834TIP3    H147697   6.794   4.428   0.729
 7834TIP3    H247698   6.885   4.316   0.777
 7835TIP3   OH247699   6.079   4.399   1.322
 7835TIP3    H147700   6.142   4.432   1.385
 7835TIP3    H247701   6.042   4.321   1.363
 7836TIP3   OH247702   6.423   4.173   0.057
 7836TIP3    H147703   6.367   4.145   0.130
 7836TIP3    H247704   6.392   4.121  -0.018
 7837TIP3   OH247705   5.732   4.137   0.808
 7837TIP3    H147706   5.777   4.131   0.892
 7837TIP3    H247707   5.790   4.190   0.753
 7838TIP3   OH247708   5.751   4.259   0.260
 7838TIP3    H147709   5.833   4.291   0.220
 7838TIP3    H247710   5.701   4.339   0.277
 7839TIP3   OH247711   6.827   4.546   1.282
 7839TIP3    H147712   6.853   4.486   1.212
 7839TIP3    H247713   6.747   4.509   1.318
 7840TIP3   OH247714   6.547   4.118   0.780
 7840TIP3    H147715   6.453   4.115   0.798
 7840TIP3    H247716   6.589   4.088   0.860
 7841TIP3   OH247717   5.942   4.296   0.677
 7841TIP3    H147718   5.890   4.343   0.611
 7841TIP3    H247719   5.971   4.217   0.632
 7842TIP3   OH247720   6.283   4.300   0.457
 7842TIP3    H147721   6.377   4.314   0.469
 7842TIP3    H247722   6.258   4.363   0.389
 7843TIP3   OH247723   6.892   4.089   1.124
 7843TIP3    H147724   6.850   4.105   1.208
 7843TIP3    H247725   6.826   4.044   1.071
 7844TIP3   OH247726   6.179   4.457   0.259
 7844TIP3    H147727   6.097   4.435   0.214
 7844TIP3    H247728   6.242   4.473   0.188
 7845TIP3   OH247729   7.297   5.603   1.702
 7845TIP3    H147730   7.316   5.639   1.615
 7845TIP3    H247731   7.376   5.621   1.753
 7846TIP3   OH247732   6.023   4.944   1.659
 7846TIP3    H147733   6.079   4.926   1.735
 7846TIP3    H247734   5.935   4.954   1.697
 7847TIP3   OH247735   6.603   4.494   0.941
 7847TIP3    H147736   6.676   4.450   0.898
 7847TIP3    H247737   6.571   4.431   1.005
 7848TIP3   OH247738   6.058   4.047   0.609
 7848TIP3    H147739   6.019   3.972   0.655
 7848TIP3    H247740   6.062   4.018   0.518
 7849TIP3   OH247741   6.491   4.335   1.140
 7849TIP3    H147742   6.406   4.379   1.134
 7849TIP3    H247743   6.529   4.369   1.221
 7850TIP3   OH247744   6.578   4.877   0.339
 7850TIP3    H147745   6.513   4.836   0.282
 7850TIP3    H247746   6.526   4.923   0.406
 7851TIP3   OH247747   7.230   4.863   1.147
 7851TIP3    H147748   7.263   4.915   1.074
 7851TIP3    H247749   7.143   4.833   1.118
 7852TIP3   OH247750   6.924   4.185   0.284
 7852TIP3    H147751   6.840   4.193   0.240
 7852TIP3    H247752   6.944   4.275   0.313
 7853TIP3   OH247753   6.634   4.907   1.519
 7853TIP3    H147754   6.680   4.869   1.594
 7853TIP3    H247755   6.570   4.966   1.558
 7854TIP3   OH247756   6.998   4.427   0.396
 7854TIP3    H147757   7.081   4.410   0.440
 7854TIP3    H247758   7.006   4.516   0.362
 7855TIP3   OH247759   6.073   4.846   0.860
 7855TIP3    H147760   6.125   4.834   0.780
 7855TIP3    H247761   6.121   4.797   0.926
 7856TIP3   OH247762   6.790   5.049   0.302
 7856TIP3    H147763   6.741   5.130   0.295
 7856TIP3    H247764   6.724   4.980   0.298
 7857TIP3   OH247765   5.806   4.670   1.540
 7857TIP3    H147766   5.836   4.666   1.631
 7857TIP3    H247767   5.739   4.601   1.534
 7858TIP3   OH247768   6.465   4.661   1.677
 7858TIP3    H147769   6.442   4.682   1.586
 7858TIP3    H247770   6.534   4.594   1.669
 7859TIP3   OH247771   6.901   5.241   1.556
 7859TIP3    H147772   6.809   5.247   1.530
 7859TIP3    H247773   6.899   5.236   1.652
 7860TIP3   OH247774   7.447   4.464   0.399
 7860TIP3    H147775   7.429   4.394   0.336
 7860TIP3    H247776   7.469   4.540   0.346
 7861TIP3   OH247777   7.479   4.950   1.567
 7861TIP3    H147778   7.397   4.970   1.522
 7861TIP3    H247779   7.542   4.934   1.496
 7862TIP3   OH247780   7.318   5.289   0.418
 7862TIP3    H147781   7.289   5.198   0.419
 7862TIP3    H247782   7.398   5.288   0.365
 7863TIP3   OH247783   7.004   4.792   1.002
 7863TIP3    H147784   6.911   4.785   1.022
 7863TIP3    H247785   7.025   4.710   0.957
 7864TIP3   OH247786   6.375   5.183   0.711
 7864TIP3    H147787   6.371   5.273   0.680
 7864TIP3    H247788   6.294   5.170   0.759
 7865TIP3   OH247789   5.853   4.669   0.179
 7865TIP3    H147790   5.897   4.728   0.241
 7865TIP3    H247791   5.761   4.697   0.181
 7866TIP3   OH247792   6.398   4.994   0.516
 7866TIP3    H147793   6.406   5.062   0.582
 7866TIP3    H247794   6.348   4.924   0.559
 7867TIP3   OH247795   6.543   5.393   1.297
 7867TIP3    H147796   6.597   5.471   1.286
 7867TIP3    H247797   6.588   5.341   1.363
 7868TIP3   OH247798   6.337   5.442   0.623
 7868TIP3    H147799   6.245   5.459   0.643
 7868TIP3    H247800   6.385   5.513   0.665
 7869TIP3   OH247801   6.793   5.020   1.322
 7869TIP3    H147802   6.727   4.987   1.383
 7869TIP3    H247803   6.877   4.999   1.363
 7870TIP3   OH247804   7.045   5.131   0.225
 7870TIP3    H147805   7.105   5.107   0.295
 7870TIP3    H247806   6.960   5.097   0.253
 7871TIP3   OH247807   7.134   5.354   1.460
 7871TIP3    H147808   7.049   5.323   1.490
 7871TIP3    H247809   7.117   5.440   1.421
 7872TIP3   OH247810   7.611   5.574   0.298
 7872TIP3    H147811   7.673   5.647   0.300
 7872TIP3    H247812   7.526   5.614   0.317
 7873TIP3   OH247813   5.983   4.172   1.445
 7873TIP3    H147814   5.895   4.193   1.476
 7873TIP3    H247815   6.015   4.105   1.505
 7874TIP3   OH247816   7.243   5.007   0.395
 7874TIP3    H147817   7.193   4.963   0.463
 7874TIP3    H247818   7.332   4.976   0.407
 7875TIP3   OH247819   5.906   5.342   1.310
 7875TIP3    H147820   5.940   5.263   1.351
 7875TIP3    H247821   5.919   5.411   1.375
 7876TIP3   OH247822   6.286   5.142   0.306
 7876TIP3    H147823   6.323   5.091   0.378
 7876TIP3    H247824   6.322   5.230   0.318
 7877TIP3   OH247825   5.971   4.852   0.350
 7877TIP3    H147826   5.920   4.900   0.415
 7877TIP3    H247827   6.003   4.920   0.290
 7878TIP3   OH247828   6.780   4.151   1.368
 7878TIP3    H147829   6.847   4.183   1.428
 7878TIP3    H247830   6.748   4.071   1.408
 7879TIP3   OH247831   6.904   4.037   0.516
 7879TIP3    H147832   6.903   4.080   0.430
 7879TIP3    H247833   6.938   4.103   0.576
 7880TIP3   OH247834   6.640   5.276   0.330
 7880TIP3    H147835   6.551   5.309   0.328
 7880TIP3    H247836   6.670   5.290   0.420
 7881TIP3   OH247837   6.546   4.278   0.552
 7881TIP3    H147838   6.620   4.339   0.553
 7881TIP3    H247839   6.548   4.237   0.638
 7882TIP3   OH247840   6.624   4.387   1.377
 7882TIP3    H147841   6.623   4.412   1.469
 7882TIP3    H247842   6.668   4.302   1.376
 7883TIP3   OH247843   6.669   3.930   0.615
 7883TIP3    H147844   6.635   3.997   0.674
 7883TIP3    H247845   6.757   3.959   0.592
 7884TIP3   OH247846   6.387   5.396   0.359
 7884TIP3    H147847   6.405   5.482   0.322
 7884TIP3    H247848   6.376   5.412   0.453
 7885TIP3   OH247849   6.296   4.076   0.289
 7885TIP3    H147850   6.262   4.147   0.343
 7885TIP3    H247851   6.382   4.057   0.325
 7886TIP3   OH247852   7.215   4.153   1.548
 7886TIP3    H147853   7.122   4.164   1.530
 7886TIP3    H247854   7.258   4.171   1.465
 7887TIP3   OH247855   7.056   4.539   0.898
 7887TIP3    H147856   6.973   4.498   0.873
 7887TIP3    H247857   7.091   4.483   0.967
 7888TIP3   OH247858   6.046   5.062   0.185
 7888TIP3    H147859   6.111   5.107   0.240
 7888TIP3    H247860   6.097   5.029   0.111
 7889TIP3   OH247861   5.941   4.419   0.121
 7889TIP3    H147862   5.908   4.505   0.147
 7889TIP3    H247863   5.921   4.413   0.028
 7890TIP3   OH247864   7.259   5.459   1.066
 7890TIP3    H147865   7.244   5.531   1.005
 7890TIP3    H247866   7.352   5.464   1.087
 7891TIP3   OH247867   5.991   3.849   0.986
 7891TIP3    H147868   5.980   3.841   0.891
 7891TIP3    H247869   5.966   3.763   1.020
 7892TIP3   OH247870   5.866   5.278   0.628
 7892TIP3    H147871   5.815   5.301   0.705
 7892TIP3    H247872   5.846   5.346   0.564
 7893TIP3   OH247873   5.798   5.533   1.774
 7893TIP3    H147874   5.854   5.494   1.840
 7893TIP3    H247875   5.754   5.459   1.732
 7894TIP3   OH247876   6.243   5.397   1.894
 7894TIP3    H147877   6.317   5.362   1.944
 7894TIP3    H247878   6.246   5.351   1.810
 7895TIP3   OH247879   6.744   5.426   0.117
 7895TIP3    H147880   6.710   5.361   0.179
 7895TIP3    H247881   6.833   5.396   0.098
 7896TIP3   OH247882   6.901   5.207   1.828
 7896TIP3    H147883   6.910   5.116   1.855
 7896TIP3    H247884   6.977   5.252   1.866
 7897TIP3   OH247885   7.015   5.366   0.083
 7897TIP3    H147886   7.028   5.290   0.139
 7897TIP3    H247887   7.077   5.353   0.011
 7898TIP3   OH247888   5.774   4.968   1.787
 7898TIP3    H147889   5.722   4.895   1.817
 7898TIP3    H247890   5.724   5.005   1.713
 7899TIP3   OH247891   6.288   4.984   0.073
 7899TIP3    H147892   6.321   4.901   0.108
 7899TIP3    H247893   6.307   5.047   0.142
 7900TIP3   OH247894   6.419   4.904   1.798
 7900TIP3    H147895   6.411   4.956   1.717
 7900TIP3    H247896   6.445   4.817   1.768
 7901TIP3   OH247897   7.016   4.999   1.484
 7901TIP3    H147898   7.107   5.009   1.458
 7901TIP3    H247899   6.989   5.086   1.514
 7902TIP3   OH247900   5.907   4.625   1.791
 7902TIP3    H147901   5.925   4.538   1.827
 7902TIP3    H247902   5.916   4.685   1.865
 7903TIP3   OH247903   6.366   4.756   0.213
 7903TIP3    H147904   6.306   4.736   0.286
 7903TIP3    H247905   6.369   4.676   0.161
 7904TIP3   OH247906   6.269   4.534   1.464
 7904TIP3    H147907   6.202   4.598   1.488
 7904TIP3    H247908   6.342   4.588   1.431
 7905TIP3   OH247909   6.386   4.508   0.086
 7905TIP3    H147910   6.399   4.451   0.010
 7905TIP3    H247911   6.466   4.500   0.137
 7906TIP3   OH247912   6.782   4.783   1.723
 7906TIP3    H147913   6.871   4.787   1.688
 7906TIP3    H247914   6.775   4.696   1.762
 7907TIP3   OH247915   7.374   4.679  10.016
 7907TIP3    H147916   7.426   4.615   9.968
 7907TIP3    H247917   7.415   4.763   9.997
 7908TIP3   OH247918   6.362   4.286   1.554
 7908TIP3    H147919   6.380   4.234   1.475
 7908TIP3    H247920   6.339   4.373   1.520
 7909TIP3   OH247921   6.407   4.132   1.327
 7909TIP3    H147922   6.453   4.178   1.257
 7909TIP3    H247923   6.319   4.117   1.292
 7910TIP3   OH247924   6.455   4.729   1.404
 7910TIP3    H147925   6.531   4.781   1.431
 7910TIP3    H247926   6.421   4.774   1.327
 7911TIP3   OH247927   6.856   4.530   1.819
 7911TIP3    H147928   6.872   4.437   1.837
 7911TIP3    H247929   6.923   4.576   1.869
 7912TIP3   OH247930   7.042   4.765   1.623
 7912TIP3    H147931   7.033   4.847   1.575
 7912TIP3    H247932   7.133   4.764   1.652
 7913TIP3   OH247933   6.210   4.301   1.784
 7913TIP3    H147934   6.120   4.270   1.780
 7913TIP3    H247935   6.245   4.286   1.696
 7914TIP3   OH247936   6.432   3.903   1.487
 7914TIP3    H147937   6.422   3.987   1.443
 7914TIP3    H247938   6.379   3.843   1.435
 7915TIP3   OH247939   6.544   4.227   1.757
 7915TIP3    H147940   6.492   4.195   1.830
 7915TIP3    H247941   6.482   4.235   1.685
 7916TIP3   OH247942   6.825   4.244   1.790
 7916TIP3    H147943   6.732   4.224   1.783
 7916TIP3    H247944   6.851   4.204   1.873
 7917TIP3   OH247945   7.060   3.940   1.980
 7917TIP3    H147946   7.026   3.892   1.904
 7917TIP3    H247947   6.998   4.012   1.993
 7918TIP3   OH247948   5.964   4.169   1.782
 7918TIP3    H147949   5.990   4.090   1.734
 7918TIP3    H247950   5.943   4.138   1.870
 7919TIP3   OH247951   6.392   3.773   1.730
 7919TIP3    H147952   6.451   3.699   1.719
 7919TIP3    H247953   6.402   3.824   1.650
 7920TIP3   OH247954   6.446   3.883   1.981
 7920TIP3    H147955   6.427   3.833   1.902
 7920TIP3    H247956   6.394   3.962   1.973
 7921TIP3   OH247957   6.445   5.651   0.274
 7921TIP3    H147958   6.536   5.669   0.250
 7921TIP3    H247959   6.398   5.733   0.255
 7922TIP3   OH247960   5.773   5.099   0.208
 7922TIP3    H147961   5.867   5.098   0.190
 7922TIP3    H247962   5.740   5.018   0.168
 7923TIP3   OH247963   5.699   5.589   0.719
 7923TIP3    H147964   5.634   5.563   0.654
 7923TIP3    H247965   5.709   5.512   0.775
 7924TIP3   OH247966   5.762   5.367   0.874
 7924TIP3    H147967   5.717   5.298   0.922
 7924TIP3    H247968   5.817   5.410   0.939
 7925TIP3   OH247969   7.522   5.515   1.155
 7925TIP3    H147970   7.533   5.473   1.240
 7925TIP3    H247971   7.536   5.608   1.171
 7926TIP3   OH247972   7.507   5.384   1.398
 7926TIP3    H147973   7.444   5.322   1.361
 7926TIP3    H247974   7.542   5.338   1.475
 7927TIP3   OH247975   7.360   5.029   1.985
 7927TIP3    H147976   7.279   5.053   2.029
 7927TIP3    H247977   7.424   5.094   2.016
 7928TIP3   OH247978   7.490   4.890   0.446
 7928TIP3    H147979   7.565   4.949   0.448
 7928TIP3    H247980   7.478   4.862   0.537
 7929TIP3   OH247981   7.430   4.786   0.698
 7929TIP3    H147982   7.358   4.724   0.704
 7929TIP3    H247983   7.412   4.851   0.767
 7930TIP3   OH247984   7.576   4.891   1.038
 7930TIP3    H147985   7.671   4.881   1.044
 7930TIP3    H247986   7.563   4.984   1.020
 7931TIP3   OH247987   7.308   5.235   1.285
 7931TIP3    H147988   7.243   5.278   1.342
 7931TIP3    H247989   7.264   5.228   1.200
 7932TIP3   OH247990   7.513   4.693   0.255
 7932TIP3    H147991   7.454   4.722   0.186
 7932TIP3    H247992   7.507   4.762   0.322
 7933TIP3   OH247993   7.350   4.280   0.214
 7933TIP3    H147994   7.312   4.317   0.134
 7933TIP3    H247995   7.300   4.200   0.229
 7934TIP3   OH247996   7.228   4.599   0.694
 7934TIP3    H147997   7.231   4.515   0.649
 7934TIP3    H247998   7.171   4.585   0.769
 7935TIP3   OH247999   5.725   4.673   1.139
 7935TIP3    H148000   5.744   4.700   1.049
 7935TIP3    H248001   5.811   4.664   1.180
 7936TIP3   OH248002   7.318   4.750   1.675
 7936TIP3    H148003   7.365   4.669   1.657
 7936TIP3    H248004   7.375   4.820   1.642
 7937TIP3   OH248005   7.442   4.507   1.628
 7937TIP3    H148006   7.360   4.471   1.661
 7937TIP3    H248007   7.501   4.431   1.623
 7938TIP3   OH248008   7.168   4.072   0.218
 7938TIP3    H148009   7.149   3.978   0.207
 7938TIP3    H248010   7.083   4.111   0.237
 7939TIP3   OH248011   7.232   4.360   0.540
 7939TIP3    H148012   7.252   4.267   0.544
 7939TIP3    H248013   7.307   4.399   0.495
 7940TIP3   OH248014   7.185   4.374   1.081
 7940TIP3    H148015   7.276   4.367   1.051
 7940TIP3    H248016   7.192   4.393   1.174
 7941TIP3   OH248017   7.227   4.452   1.346
 7941TIP3    H148018   7.152   4.481   1.399
 7941TIP3    H248019   7.271   4.532   1.320
 7942TIP3   OH248020   5.755   4.222   1.609
 7942TIP3    H148021   5.827   4.221   1.672
 7942TIP3    H248022   5.694   4.155   1.641
 7943TIP3   OH248023   7.570   3.841   1.790
 7943TIP3    H148024   7.642   3.790   1.754
 7943TIP3    H248025   7.564   3.918   1.734
 7944TIP3   OH248026   7.276   4.090   0.570
 7944TIP3    H148027   7.295   4.056   0.657
 7944TIP3    H248028   7.226   4.019   0.528
 7945TIP3   OH248029   5.877   4.096   1.038
 7945TIP3    H148030   5.913   4.008   1.031
 7945TIP3    H248031   5.952   4.154   1.027
 7946TIP3   OH248032   5.654   4.420   1.046
 7946TIP3    H148033   5.732   4.409   0.990
 7946TIP3    H248034   5.668   4.505   1.089
 7947TIP3   OH248035   7.439   4.073   1.691
 7947TIP3    H148036   7.401   4.076   1.779
 7947TIP3    H248037   7.365   4.089   1.633
 7948TIP3   OH248038   7.547   4.029   0.242
 7948TIP3    H148039   7.636   3.992   0.237
 7948TIP3    H248040   7.541   4.085   0.164
 7949TIP3   OH248041   5.711   4.083   0.477
 7949TIP3    H148042   5.623   4.100   0.512
 7949TIP3    H248043   5.726   4.156   0.416
 7950TIP3   OH248044   7.109   5.573   0.730
 7950TIP3    H148045   7.179   5.561   0.666
 7950TIP3    H248046   7.150   5.617   0.803
 7951TIP3   OH248047   5.741   3.837   1.299
 7951TIP3    H148048   5.684   3.827   1.375
 7951TIP3    H248049   5.706   3.914   1.253
 7952TIP3   OH248050   5.961   5.256   1.707
 7952TIP3    H148051   5.867   5.265   1.693
 7952TIP3    H248052   5.972   5.251   1.802
 7953TIP3   OH248053   6.285   5.369   1.389
 7953TIP3    H148054   6.249   5.456   1.373
 7953TIP3    H248055   6.376   5.375   1.360
 7954TIP3   OH248056   6.587   5.485   1.675
 7954TIP3    H148057   6.605   5.439   1.757
 7954TIP3    H248058   6.669   5.531   1.655
 7955TIP3   OH248059   6.819   5.608   1.597
 7955TIP3    H148060   6.856   5.561   1.523
 7955TIP3    H248061   6.892   5.619   1.658
 7956TIP3   OH248062   7.371   3.767   1.422
 7956TIP3    H148063   7.285   3.750   1.383
 7956TIP3    H248064   7.415   3.682   1.422
 7957TIP3   OH248065   5.948   5.627   1.426
 7957TIP3    H148066   5.872   5.680   1.398
 7957TIP3    H248067   5.965   5.655   1.516
 7958TIP3   OH248068   6.208   5.628   1.333
 7958TIP3    H148069   6.116   5.629   1.360
 7958TIP3    H248070   6.207   5.663   1.244
 7959TIP3   OH248071   6.671   5.632   1.244
 7959TIP3    H148072   6.613   5.657   1.171
 7959TIP3    H248073   6.671   5.708   1.302
 7960TIP3   OH248074   6.890   5.501   1.346
 7960TIP3    H148075   6.818   5.544   1.299
 7960TIP3    H248076   6.969   5.542   1.312
 7961TIP3   OH248077   7.146   5.587   1.282
 7961TIP3    H148078   7.142   5.678   1.252
 7961TIP3    H248079   7.177   5.537   1.207
 7962TIP3   OH248080   5.924   5.486   1.074
 7962TIP3    H148081   5.920   5.440   1.158
 7962TIP3    H248082   6.005   5.454   1.034
 7963TIP3   OH248083   6.148   5.376   0.964
 7963TIP3    H148084   6.149   5.281   0.950
 7963TIP3    H248085   6.235   5.396   0.999
 7964TIP3   OH248086   6.411   5.396   1.057
 7964TIP3    H148087   6.429   5.310   1.019
 7964TIP3    H248088   6.452   5.394   1.143
 7965TIP3   OH248089   6.707   3.961   0.962
 7965TIP3    H148090   6.638   3.900   0.987
 7965TIP3    H248091   6.774   3.906   0.921
 7966TIP3   OH248092   7.255   3.820   0.946
 7966TIP3    H148093   7.304   3.889   0.902
 7966TIP3    H248094   7.205   3.865   1.014
 7967TIP3   OH248095   7.401   4.004   0.801
 7967TIP3    H148096   7.455   3.933   0.767
 7967TIP3    H248097   7.458   4.080   0.800
 7968TIP3   OH248098   5.961   3.812   0.715
 7968TIP3    H148099   5.869   3.784   0.705
 7968TIP3    H248100   6.011   3.731   0.701
 7969TIP3   OH248101   5.801   3.869   0.333
 7969TIP3    H148102   5.895   3.890   0.328
 7969TIP3    H248103   5.766   3.934   0.394
 7970TIP3   OH248104   6.499   3.742   0.744
 7970TIP3    H148105   6.559   3.802   0.700
 7970TIP3    H248106   6.508   3.762   0.837
 7971TIP3   OH248107   6.901   3.791   0.869
 7971TIP3    H148108   6.971   3.778   0.805
 7971TIP3    H248109   6.897   3.709   0.918
 7972TIP3   OH248110   7.130   3.880   0.462
 7972TIP3    H148111   7.048   3.929   0.477
 7972TIP3    H248112   7.104   3.788   0.467
 7973TIP3   OH248113   5.842   5.472   0.435
 7973TIP3    H148114   5.777   5.445   0.370
 7973TIP3    H248115   5.843   5.568   0.431
 7974TIP3   OH248116   6.072   3.924   0.356
 7974TIP3    H148117   6.097   3.831   0.358
 7974TIP3    H248118   6.146   3.968   0.316
 7975TIP3   OH248119   6.543   4.053   0.398
 7975TIP3    H148120   6.579   3.986   0.456
 7975TIP3    H248121   6.541   4.133   0.451
 7976TIP3   OH248122   6.718   5.672   0.223
 7976TIP3    H148123   6.807   5.705   0.208
 7976TIP3    H248124   6.715   5.589   0.176
 7977TIP3   OH248125   7.321   5.527   0.554
 7977TIP3    H148126   7.317   5.440   0.515
 7977TIP3    H248127   7.339   5.586   0.480
 7978TIP3   OH248128   6.037   3.960   1.618
 7978TIP3    H148129   6.027   3.914   1.535
 7978TIP3    H248130   6.064   3.893   1.680
 7979TIP3   OH248131   6.117   3.744   1.768
 7979TIP3    H148132   6.213   3.743   1.761
 7979TIP3    H248133   6.087   3.681   1.702
 7980TIP3   OH248134   6.115   5.534   0.373
 7980TIP3    H148135   6.036   5.486   0.397
 7980TIP3    H248136   6.180   5.466   0.357
 7981TIP3   OH248137   7.055   3.709   1.793
 7981TIP3    H148138   7.078   3.630   1.842
 7981TIP3    H248139   7.139   3.744   1.762
 7982TIP3   OH248140   7.301   5.327   1.687
 7982TIP3    H148141   7.243   5.319   1.611
 7982TIP3    H248142   7.303   5.421   1.706
 7983TIP3   OH248143   7.596   4.582   0.610
 7983TIP3    H148144   7.540   4.653   0.641
 7983TIP3    H248145   7.539   4.531   0.551
 7984TIP3   OH248146   7.597   4.888   1.324
 7984TIP3    H148147   7.573   4.891   1.231
 7984TIP3    H248148   7.584   4.797   1.348
 7985TIP3   OH248149   7.623   5.170   1.043
 7985TIP3    H148150   7.718   5.173   1.041
 7985TIP3    H248151   7.600   5.205   1.129
 7986TIP3   OH248152   7.551   4.236   0.755
 7986TIP3    H148153   7.645   4.232   0.773
 7986TIP3    H248154   7.545   4.225   0.660
 7987TIP3   OH248155   7.574   4.633   1.427
 7987TIP3    H148156   7.535   4.593   1.504
 7987TIP3    H248157   7.508   4.623   1.358
 7988TIP3   OH248158   7.709   4.836   1.739
 7988TIP3    H148159   7.706   4.773   1.811
 7988TIP3    H248160   7.617   4.855   1.720
 7989TIP3   OH248161   7.534   5.608   0.713
 7989TIP3    H148162   7.460   5.581   0.658
 7989TIP3    H248163   7.539   5.540   0.780
 7990TIP3   OH248164   7.556   5.413   0.903
 7990TIP3    H148165   7.567   5.319   0.921
 7990TIP3    H248166   7.551   5.454   0.989
 7991TIP3   OH248167   7.535   4.612   1.015
 7991TIP3    H148168   7.542   4.707   1.005
 7991TIP3    H248169   7.625   4.582   1.028
 7992TIP3   OH248170   7.586   4.278   1.575
 7992TIP3    H148171   7.681   4.276   1.591
 7992TIP3    H248172   7.552   4.203   1.623
 7993TIP3   OH248173   7.438   4.346   0.982
 7993TIP3    H148174   7.473   4.311   0.900
 7993TIP3    H248175   7.473   4.435   0.987
 7994TIP3   OH248176   7.535   4.136   0.494
 7994TIP3    H148177   7.444   4.118   0.518
 7994TIP3    H248178   7.541   4.112   0.402
 7995TIP3   OH248179   7.537   3.894   1.231
 7995TIP3    H148180   7.486   3.871   1.308
 7995TIP3    H248181   7.485   3.960   1.186
 7996TIP3   OH248182   1.218   6.677   0.681
 7996TIP3    H148183   1.201   6.771   0.673
 7996TIP3    H248184   1.165   6.637   0.612
 7997TIP3   OH248185   1.102   6.585   1.067
 7997TIP3    H148186   1.132   6.537   1.144
 7997TIP3    H248187   1.051   6.521   1.018
 7998TIP3   OH248188   0.298   6.512   1.152
 7998TIP3    H148189   0.306   6.445   1.220
 7998TIP3    H248190   0.388   6.527   1.123
 7999TIP3   OH248191   1.483   6.888   0.893
 7999TIP3    H148192   1.446   6.812   0.937
 7999TIP3    H248193   1.498   6.952   0.963
 8000TIP3   OH248194   0.443   6.953   1.069
 8000TIP3    H148195   0.445   6.883   1.004
 8000TIP3    H248196   0.534   6.984   1.073
 8001TIP3   OH248197   0.197   6.410   0.567
 8001TIP3    H148198   0.182   6.462   0.646
 8001TIP3    H248199   0.110   6.399   0.529
 8002TIP3   OH248200   0.209   6.554   0.805
 8002TIP3    H148201   0.239   6.472   0.844
 8002TIP3    H248202   0.282   6.615   0.816
 8003TIP3   OH248203   1.152   7.254   0.887
 8003TIP3    H148204   1.233   7.236   0.838
 8003TIP3    H248205   1.165   7.211   0.971
 8004TIP3   OH248206   0.968   6.832   1.080
 8004TIP3    H148207   1.014   6.751   1.054
 8004TIP3    H248208   1.028   6.874   1.142
 8005TIP3   OH248209   1.851   5.925   1.146
 8005TIP3    H148210   1.833   6.000   1.202
 8005TIP3    H248211   1.914   5.958   1.081
 8006TIP3   OH248212   1.232   6.217   1.086
 8006TIP3    H148213   1.209   6.135   1.130
 8006TIP3    H248214   1.196   6.207   0.998
 8007TIP3   OH248215   0.632   6.049   0.826
 8007TIP3    H148216   0.629   6.135   0.784
 8007TIP3    H248217   0.591   5.990   0.764
 8008TIP3   OH248218   1.380   6.102   0.716
 8008TIP3    H148219   1.429   6.069   0.792
 8008TIP3    H248220   1.446   6.148   0.664
 8009TIP3   OH248221   0.287   6.302   0.888
 8009TIP3    H148222   0.347   6.258   0.947
 8009TIP3    H248223   0.286   6.247   0.809
 8010TIP3   OH248224   0.719   6.481   0.866
 8010TIP3    H148225   0.803   6.445   0.894
 8010TIP3    H248226   0.678   6.411   0.815
 8011TIP3   OH248227   1.802   6.113   1.333
 8011TIP3    H148228   1.737   6.182   1.349
 8011TIP3    H248229   1.855   6.111   1.413
 8012TIP3   OH248230   0.497   5.985   1.251
 8012TIP3    H148231   0.478   6.042   1.176
 8012TIP3    H248232   0.420   5.993   1.308
 8013TIP3   OH248233   1.180   6.939   0.602
 8013TIP3    H148234   1.164   6.938   0.508
 8013TIP3    H248235   1.115   7.000   0.637
 8014TIP3   OH248236   0.738   6.738   1.194
 8014TIP3    H148237   0.700   6.811   1.243
 8014TIP3    H248238   0.813   6.776   1.149
 8015TIP3   OH248239   1.520   6.024   0.939
 8015TIP3    H148240   1.464   5.988   1.008
 8015TIP3    H248241   1.568   6.094   0.983
 8016TIP3   OH248242   0.473   6.147   1.030
 8016TIP3    H148243   0.525   6.209   1.080
 8016TIP3    H248244   0.534   6.110   0.965
 8017TIP3   OH248245   0.636   6.947   1.338
 8017TIP3    H148246   0.646   7.042   1.349
 8017TIP3    H248247   0.550   6.928   1.374
 8018TIP3   OH248248   0.040   6.865   0.406
 8018TIP3    H148249   0.053   6.907   0.321
 8018TIP3    H248250   0.048   6.936   0.470
 8019TIP3   OH248251   1.493   7.110   1.073
 8019TIP3    H148252   1.398   7.120   1.073
 8019TIP3    H248253   1.526   7.193   1.037
 8020TIP3   OH248254   1.609   5.819   1.249
 8020TIP3    H148255   1.534   5.840   1.195
 8020TIP3    H248256   1.685   5.848   1.198
 8021TIP3   OH248257   0.836   5.634   1.026
 8021TIP3    H148258   0.810   5.543   1.037
 8021TIP3    H248259   0.758   5.685   1.050
 8022TIP3   OH248260   1.373   7.224   0.731
 8022TIP3    H148261   1.415   7.141   0.706
 8022TIP3    H248262   1.439   7.291   0.712
 8023TIP3   OH248263   1.453   6.977   0.639
 8023TIP3    H148264   1.361   6.955   0.624
 8023TIP3    H248265   1.475   6.937   0.723
 8024TIP3   OH248266   1.637   6.895   1.414
 8024TIP3    H148267   1.628   6.841   1.336
 8024TIP3    H248268   1.642   6.985   1.381
 8025TIP3   OH248269   1.109   6.573   0.442
 8025TIP3    H148270   1.043   6.629   0.401
 8025TIP3    H248271   1.189   6.588   0.391
 8026TIP3   OH248272   1.013   6.356   0.201
 8026TIP3    H148273   1.065   6.375   0.279
 8026TIP3    H248274   0.991   6.263   0.208
 8027TIP3   OH248275   1.737   6.559   1.334
 8027TIP3    H148276   1.681   6.623   1.290
 8027TIP3    H248277   1.820   6.563   1.288
 8028TIP3   OH248278   1.472   6.629   0.593
 8028TIP3    H148279   1.391   6.646   0.641
 8028TIP3    H248280   1.521   6.569   0.650
 8029TIP3   OH248281   1.369   6.384   1.472
 8029TIP3    H148282   1.371   6.451   1.541
 8029TIP3    H248283   1.309   6.419   1.407
 8030TIP3   OH248284   0.619   6.688   0.700
 8030TIP3    H148285   0.560   6.643   0.640
 8030TIP3    H248286   0.664   6.617   0.747
 8031TIP3   OH248287   0.731   6.975   0.975
 8031TIP3    H148288   0.718   6.982   0.881
 8031TIP3    H248289   0.812   6.925   0.985
 8032TIP3   OH248290   0.564   6.568   1.073
 8032TIP3    H148291   0.620   6.534   1.003
 8032TIP3    H248292   0.620   6.628   1.122
 8033TIP3   OH248293   1.220   7.127   1.128
 8033TIP3    H148294   1.230   7.198   1.191
 8033TIP3    H248295   1.192   7.052   1.181
 8034TIP3   OH248296   0.805   6.921   1.557
 8034TIP3    H148297   0.750   6.986   1.601
 8034TIP3    H248298   0.762   6.906   1.473
 8035TIP3   OH248299   1.372   6.568   0.344
 8035TIP3    H148300   1.412   6.591   0.428
 8035TIP3    H248301   1.432   6.603   0.278
 8036TIP3   OH248302   0.470   6.592   1.506
 8036TIP3    H148303   0.461   6.658   1.575
 8036TIP3    H248304   0.382   6.560   1.492
 8037TIP3   OH248305   0.994   7.123   0.694
 8037TIP3    H148306   1.034   7.160   0.773
 8037TIP3    H248307   0.978   7.198   0.637
 8038TIP3   OH248308   0.641   7.113   1.660
 8038TIP3    H148309   0.647   7.162   1.579
 8038TIP3    H248310   0.552   7.128   1.692
 8039TIP3   OH248311   1.681   5.718   0.309
 8039TIP3    H148312   1.596   5.750   0.340
 8039TIP3    H248313   1.722   5.795   0.269
 8040TIP3   OH248314   0.424   6.574   0.544
 8040TIP3    H148315   0.383   6.627   0.476
 8040TIP3    H248316   0.365   6.500   0.556
 8041TIP3   OH248317   1.768   7.067   0.235
 8041TIP3    H148318   1.797   7.156   0.215
 8041TIP3    H248319   1.847   7.014   0.227
 8042TIP3   OH248320   0.170   6.772   1.377
 8042TIP3    H148321   0.075   6.786   1.378
 8042TIP3    H248322   0.181   6.682   1.406
 8043TIP3   OH248323   0.188   7.087   1.013
 8043TIP3    H148324   0.262   7.032   0.986
 8043TIP3    H248325   0.228   7.168   1.043
 8044TIP3   OH248326   1.865   7.173   1.651
 8044TIP3    H148327   1.858   7.079   1.632
 8044TIP3    H248328   1.781   7.195   1.691
 8045TIP3   OH248329   1.008   7.112   1.510
 8045TIP3    H148330   0.982   7.186   1.565
 8045TIP3    H248331   0.944   7.044   1.530
 8046TIP3   OH248332   0.983   7.370   0.567
 8046TIP3    H148333   0.957   7.411   0.484
 8046TIP3    H248334   0.936   7.419   0.634
 8047TIP3   OH248335   0.412   7.373   0.722
 8047TIP3    H148336   0.460   7.339   0.797
 8047TIP3    H248337   0.336   7.315   0.714
 8048TIP3   OH248338   1.373   7.360   0.273
 8048TIP3    H148339   1.420   7.286   0.233
 8048TIP3    H248340   1.332   7.323   0.351
 8049TIP3   OH248341   1.239   7.290   0.497
 8049TIP3    H148342   1.150   7.314   0.520
 8049TIP3    H248343   1.275   7.252   0.577
 8050TIP3   OH248344   1.628   6.241   1.642
 8050TIP3    H148345   1.552   6.255   1.699
 8050TIP3    H248346   1.606   6.162   1.592
 8051TIP3   OH248347   0.391   6.907   1.451
 8051TIP3    H148348   0.418   6.913   1.543
 8051TIP3    H248349   0.317   6.847   1.452
 8052TIP3   OH248350   0.608   5.775   1.101
 8052TIP3    H148351   0.543   5.773   1.031
 8052TIP3    H248352   0.586   5.853   1.152
 8053TIP3   OH248353   1.018   5.827   1.419
 8053TIP3    H148354   1.062   5.785   1.493
 8053TIP3    H248355   0.925   5.824   1.442
 8054TIP3   OH248356   1.319   6.111   1.462
 8054TIP3    H148357   1.257   6.094   1.533
 8054TIP3    H248358   1.335   6.206   1.467
 8055TIP3   OH248359   1.574   6.685   0.182
 8055TIP3    H148360   1.526   6.740   0.120
 8055TIP3    H248361   1.586   6.740   0.259
 8056TIP3   OH248362   0.931   6.092   0.204
 8056TIP3    H148363   0.910   6.023   0.266
 8056TIP3    H248364   0.855   6.097   0.146
 8057TIP3   OH248365   0.587   6.324   1.210
 8057TIP3    H148366   0.513   6.318   1.271
 8057TIP3    H248367   0.585   6.414   1.179
 8058TIP3   OH248368   0.584   6.297   0.716
 8058TIP3    H148369   0.493   6.269   0.712
 8058TIP3    H248370   0.614   6.294   0.625
 8059TIP3   OH248371   1.125   6.328   0.563
 8059TIP3    H148372   1.109   6.418   0.537
 8059TIP3    H248373   1.202   6.302   0.512
 8060TIP3   OH248374   1.063   6.358   1.710
 8060TIP3    H148375   1.010   6.288   1.747
 8060TIP3    H248376   1.150   6.345   1.749
 8061TIP3   OH248377   1.152   6.226   0.821
 8061TIP3    H148378   1.130   6.278   0.743
 8061TIP3    H248379   1.227   6.172   0.793
 8062TIP3   OH248380   0.340   6.311   1.339
 8062TIP3    H148381   0.292   6.363   1.403
 8062TIP3    H248382   0.310   6.221   1.353
 8063TIP3   OH248383   0.675   6.072   0.100
 8063TIP3    H148384   0.626   6.057   0.181
 8063TIP3    H248385   0.620   6.035   0.031
 8064TIP3   OH248386   0.091   6.048   0.805
 8064TIP3    H148387   0.142   6.019   0.881
 8064TIP3    H248388   0.136   6.009   0.730
 8065TIP3   OH248389   0.268   6.184   0.422
 8065TIP3    H148390   0.310   6.200   0.337
 8065TIP3    H248391   0.241   6.271   0.452
 8066TIP3   OH248392   1.169   6.410   1.273
 8066TIP3    H148393   1.199   6.345   1.209
 8066TIP3    H248394   1.113   6.360   1.333
 8067TIP3   OH248395   0.897   5.992   0.768
 8067TIP3    H148396   0.810   6.007   0.805
 8067TIP3    H248397   0.946   5.949   0.837
 8068TIP3   OH248398   0.359   6.142   0.677
 8068TIP3    H148399   0.319   6.161   0.592
 8068TIP3    H248400   0.400   6.057   0.666
 8069TIP3   OH248401   0.666   6.249   0.462
 8069TIP3    H148402   0.759   6.234   0.475
 8069TIP3    H248403   0.662   6.304   0.384
 8070TIP3   OH248404   1.376   5.866   1.110
 8070TIP3    H148405   1.302   5.904   1.157
 8070TIP3    H248406   1.337   5.805   1.048
 8071TIP3   OH248407   0.623   6.373   0.223
 8071TIP3    H148408   0.536   6.339   0.200
 8071TIP3    H248409   0.673   6.365   0.142
 8072TIP3   OH248410   1.594   7.546   1.734
 8072TIP3    H148411   1.584   7.558   1.640
 8072TIP3    H248412   1.686   7.567   1.751
 8073TIP3   OH248413   0.407   6.779   1.704
 8073TIP3    H148414   0.450   6.793   1.788
 8073TIP3    H248415   0.315   6.764   1.725
 8074TIP3   OH248416   0.948   6.359   0.973
 8074TIP3    H148417   1.010   6.304   0.925
 8074TIP3    H248418   0.924   6.307   1.050
 8075TIP3   OH248419   0.500   5.915   0.622
 8075TIP3    H148420   0.456   5.831   0.633
 8075TIP3    H248421   0.516   5.921   0.527
 8076TIP3   OH248422   0.854   6.239   1.218
 8076TIP3    H148423   0.769   6.282   1.221
 8076TIP3    H248424   0.902   6.274   1.293
 8077TIP3   OH248425   0.916   6.743   0.340
 8077TIP3    H148426   0.850   6.709   0.279
 8077TIP3    H248427   0.865   6.785   0.409
 8078TIP3   OH248428   1.598   6.745   1.187
 8078TIP3    H148429   1.667   6.781   1.131
 8078TIP3    H248430   1.529   6.721   1.126
 8079TIP3   OH248431   1.172   6.068   0.348
 8079TIP3    H148432   1.103   6.076   0.282
 8079TIP3    H248433   1.222   6.149   0.341
 8080TIP3   OH248434   1.056   6.793   1.527
 8080TIP3    H148435   1.091   6.756   1.608
 8080TIP3    H248436   0.968   6.824   1.550
 8081TIP3   OH248437   1.320   6.300   0.363
 8081TIP3    H148438   1.404   6.264   0.334
 8081TIP3    H248439   1.331   6.395   0.354
 8082TIP3   OH248440   0.425   6.730   0.897
 8082TIP3    H148441   0.481   6.737   0.819
 8082TIP3    H248442   0.472   6.670   0.954
 8083TIP3   OH248443   1.128   6.920   0.333
 8083TIP3    H148444   1.089   7.002   0.303
 8083TIP3    H248445   1.058   6.855   0.323
 8084TIP3   OH248446   0.199   6.510   1.481
 8084TIP3    H148447   0.209   6.488   1.574
 8084TIP3    H248448   0.104   6.504   1.466
 8085TIP3   OH248449   0.851   6.531   1.744
 8085TIP3    H148450   0.792   6.500   1.674
 8085TIP3    H248451   0.934   6.488   1.725
 8086TIP3   OH248452   1.267   7.048   1.569
 8086TIP3    H148453   1.178   7.058   1.537
 8086TIP3    H248454   1.259   7.050   1.665
 8087TIP3   OH248455   1.776   6.298   0.372
 8087TIP3    H148456   1.700   6.268   0.322
 8087TIP3    H248457   1.789   6.389   0.343
 8088TIP3   OH248458   1.860   6.907   1.576
 8088TIP3    H148459   1.774   6.898   1.537
 8088TIP3    H248460   1.918   6.856   1.520
 8089TIP3   OH248461   1.642   7.121   0.488
 8089TIP3    H148462   1.582   7.061   0.533
 8089TIP3    H248463   1.668   7.073   0.410
 8090TIP3   OH248464   1.385   6.658   1.022
 8090TIP3    H148465   1.289   6.656   1.023
 8090TIP3    H248466   1.411   6.569   1.000
 8091TIP3   OH248467   0.631   7.064   0.720
 8091TIP3    H148468   0.661   7.146   0.680
 8091TIP3    H248469   0.587   7.017   0.649
 8092TIP3   OH248470   0.181   6.455   0.259
 8092TIP3    H148471   0.208   6.541   0.291
 8092TIP3    H248472   0.100   6.436   0.306
 8093TIP3   OH248473   0.772   6.863   0.544
 8093TIP3    H148474   0.820   6.919   0.605
 8093TIP3    H248475   0.722   6.803   0.599
 8094TIP3   OH248476   0.919   7.250   1.290
 8094TIP3    H148477   0.973   7.326   1.268
 8094TIP3    H248478   0.971   7.201   1.354
 8095TIP3   OH248479   0.661   7.318   0.612
 8095TIP3    H148480   0.571   7.348   0.628
 8095TIP3    H248481   0.716   7.381   0.658
 8096TIP3   OH248482   1.159   6.895   1.285
 8096TIP3    H148483   1.117   6.870   1.367
 8096TIP3    H248484   1.244   6.849   1.287
 8097TIP3   OH248485   1.392   6.905   0.248
 8097TIP3    H148486   1.442   6.886   0.328
 8097TIP3    H248487   1.301   6.907   0.278
 8098TIP3   OH248488   1.414   7.260   1.487
 8098TIP3    H148489   1.368   7.182   1.518
 8098TIP3    H248490   1.361   7.292   1.414
 8099TIP3   OH248491   1.858   7.324   0.201
 8099TIP3    H148492   1.923   7.391   0.223
 8099TIP3    H248493   1.775   7.370   0.200
 8100TIP3   OH248494   0.261   6.047   1.384
 8100TIP3    H148495   0.232   6.041   1.475
 8100TIP3    H248496   0.207   5.983   1.338
 8101TIP3   OH248497   1.595   6.808   0.424
 8101TIP3    H148498   1.546   6.767   0.496
 8101TIP3    H248499   1.687   6.797   0.448
 8102TIP3   OH248500   0.267   7.164   1.297
 8102TIP3    H148501   0.296   7.225   1.229
 8102TIP3    H248502   0.255   7.219   1.375
 8103TIP3   OH248503   0.585   7.029   0.415
 8103TIP3    H148504   0.652   6.964   0.439
 8103TIP3    H248505   0.635   7.102   0.380
 8104TIP3   OH248506   0.263   6.707   0.359
 8104TIP3    H148507   0.183   6.748   0.392
 8104TIP3    H248508   0.309   6.778   0.314
 8105TIP3   OH248509   1.182   5.991   1.256
 8105TIP3    H148510   1.232   6.033   1.326
 8105TIP3    H248511   1.115   5.940   1.301
 8106TIP3   OH248512   1.239   5.918   0.563
 8106TIP3    H148513   1.213   5.970   0.487
 8106TIP3    H248514   1.280   5.981   0.622
 8107TIP3   OH248515   0.993   7.145   0.261
 8107TIP3    H148516   0.908   7.173   0.294
 8107TIP3    H248517   1.034   7.226   0.229
 8108TIP3   OH248518   0.912   6.156   0.547
 8108TIP3    H148519   0.988   6.213   0.550
 8108TIP3    H248520   0.913   6.109   0.631
 8109TIP3   OH248521   1.023   6.261   1.452
 8109TIP3    H148522   1.031   6.310   1.534
 8109TIP3    H248523   1.036   6.170   1.478
 8110TIP3   OH248524   0.996   5.793   0.603
 8110TIP3    H148525   0.959   5.857   0.663
 8110TIP3    H248526   1.087   5.821   0.591
 8111TIP3   OH248527   0.753   7.255   0.362
 8111TIP3    H148528   0.793   7.338   0.335
 8111TIP3    H248529   0.721   7.272   0.450
 8112TIP3   OH248530   0.581   6.008   0.361
 8112TIP3    H148531   0.589   6.095   0.401
 8112TIP3    H248532   0.667   5.967   0.375
 8113TIP3   OH248533   1.570   6.002   1.495
 8113TIP3    H148534   1.479   6.026   1.479
 8113TIP3    H248535   1.602   5.973   1.409
 8114TIP3   OH248536   1.440   6.385   0.977
 8114TIP3    H148537   1.362   6.338   1.007
 8114TIP3    H248538   1.514   6.336   1.013
 8115TIP3   OH248539   0.367   6.947   0.254
 8115TIP3    H148540   0.424   6.986   0.320
 8115TIP3    H248541   0.428   6.915   0.186
 8116TIP3   OH248542   0.366   6.277   0.171
 8116TIP3    H148543   0.305   6.347   0.195
 8116TIP3    H248544   0.323   6.231   0.100
 8117TIP3   OH248545   1.598   7.364   1.018
 8117TIP3    H148546   1.572   7.436   0.961
 8117TIP3    H248547   1.691   7.378   1.033
 8118TIP3   OH248548   0.393   5.759   0.932
 8118TIP3    H148549   0.388   5.740   0.838
 8118TIP3    H248550   0.359   5.681   0.975
 8119TIP3   OH248551   0.070   7.100   0.540
 8119TIP3    H148552   0.121   7.124   0.617
 8119TIP3    H248553   0.060   7.181   0.491
 8120TIP3   OH248554   0.143   7.512   1.663
 8120TIP3    H148555   0.196   7.468   1.730
 8120TIP3    H248556   0.054   7.513   1.701
 8121TIP3   OH248557   0.601   7.401   1.888
 8121TIP3    H148558   0.655   7.434   1.960
 8121TIP3    H248559   0.654   7.413   1.810
 8122TIP3   OH248560   1.097   7.121   9.896
 8122TIP3    H148561   1.089   7.026   9.894
 8122TIP3    H248562   1.172   7.138   9.954
 8123TIP3   OH248563   1.246   7.069   1.841
 8123TIP3    H148564   1.244   6.989   1.894
 8123TIP3    H248565   1.321   7.118   1.873
 8124TIP3   OH248566   1.505   7.143   0.175
 8124TIP3    H148567   1.456   7.061   0.186
 8124TIP3    H248568   1.596   7.117   0.187
 8125TIP3   OH248569   0.150   6.742   1.792
 8125TIP3    H148570   0.152   6.660   1.843
 8125TIP3    H248571   0.058   6.756   1.772
 8126TIP3   OH248572   0.565   6.851   0.091
 8126TIP3    H148573   0.612   6.776   0.128
 8126TIP3    H248574   0.624   6.886   0.025
 8127TIP3   OH248575   0.757   6.784   1.792
 8127TIP3    H148576   0.773   6.819   1.705
 8127TIP3    H248577   0.792   6.694   1.789
 8128TIP3   OH248578   1.394   6.810   1.510
 8128TIP3    H148579   1.481   6.839   1.484
 8128TIP3    H248580   1.346   6.891   1.530
 8129TIP3   OH248581   0.266   6.444   1.736
 8129TIP3    H148582   0.351   6.406   1.759
 8129TIP3    H248583   0.224   6.464   1.819
 8130TIP3   OH248584   0.715   6.636   0.180
 8130TIP3    H148585   0.664   6.571   0.229
 8130TIP3    H248586   0.759   6.585   0.112
 8131TIP3   OH248587   0.700   6.444   1.531
 8131TIP3    H148588   0.618   6.493   1.519
 8131TIP3    H248589   0.753   6.468   1.456
 8132TIP3   OH248590   0.825   6.437   0.023
 8132TIP3    H148591   0.858   6.409  -0.062
 8132TIP3    H248592   0.895   6.415   0.085
 8133TIP3   OH248593   1.160   6.674   1.781
 8133TIP3    H148594   1.243   6.644   1.743
 8133TIP3    H248595   1.135   6.606   1.842
 8134TIP3   OH248596   1.709   6.516   9.885
 8134TIP3    H148597   1.775   6.579   9.914
 8134TIP3    H248598   1.629   6.568   9.873
 8135TIP3   OH248599   0.691   6.193   1.639
 8135TIP3    H148600   0.698   6.134   1.565
 8135TIP3    H248601   0.697   6.281   1.601
 8136TIP3   OH248602   0.720   6.056   1.394
 8136TIP3    H148603   0.778   6.101   1.333
 8136TIP3    H248604   0.640   6.040   1.344
 8137TIP3   OH248605   0.859   6.528   1.326
 8137TIP3    H148606   0.952   6.550   1.325
 8137TIP3    H248607   0.817   6.600   1.279
 8138TIP3   OH248608   1.276   6.282   1.874
 8138TIP3    H148609   1.270   6.187   1.882
 8138TIP3    H248610   1.367   6.303   1.896
 8139TIP3   OH248611   1.412   6.592   1.670
 8139TIP3    H148612   1.398   6.669   1.615
 8139TIP3    H248613   1.504   6.569   1.657
 8140TIP3   OH248614   0.489   6.292   1.808
 8140TIP3    H148615   0.431   6.217   1.820
 8140TIP3    H248616   0.557   6.260   1.749
 8141TIP3   OH248617   0.745   5.789   1.465
 8141TIP3    H148618   0.727   5.881   1.446
 8141TIP3    H248619   0.677   5.741   1.418
 8142TIP3   OH248620   0.917   6.145   1.802
 8142TIP3    H148621   0.903   6.106   1.888
 8142TIP3    H248622   0.829   6.150   1.764
 8143TIP3   OH248623   1.137   6.059   1.658
 8143TIP3    H148624   1.055   6.077   1.704
 8143TIP3    H248625   1.195   6.021   1.724
 8144TIP3   OH248626   1.299   5.972   1.870
 8144TIP3    H148627   1.298   5.878   1.854
 8144TIP3    H248628   1.257   5.983   1.955
 8145TIP3   OH248629   0.335   6.058   1.871
 8145TIP3    H148630   0.429   6.045   1.885
 8145TIP3    H248631   0.293   5.997   1.931
 8146TIP3   OH248632   0.693   5.654   1.700
 8146TIP3    H148633   0.755   5.582   1.697
 8146TIP3    H248634   0.707   5.702   1.619
 8147TIP3   OH248635   0.756   5.830   1.902
 8147TIP3    H148636   0.734   5.773   1.828
 8147TIP3    H248637   0.687   5.896   1.902
 8148TIP3   OH248638   0.912   7.481   0.321
 8148TIP3    H148639   0.984   7.454   0.265
 8148TIP3    H248640   0.906   7.576   0.308
 8149TIP3   OH248641   0.101   7.004   0.178
 8149TIP3    H148642   0.191   6.997   0.209
 8149TIP3    H248643   0.109   7.012   0.083
 8150TIP3   OH248644   0.051   7.452   0.679
 8150TIP3    H148645  -0.035   7.491   0.695
 8150TIP3    H248646   0.045   7.418   0.590
 8151TIP3   OH248647   0.183   7.222   0.761
 8151TIP3    H148648   0.158   7.181   0.844
 8151TIP3    H248649   0.125   7.298   0.754
 8152TIP3   OH248650   1.854   7.438   1.083
 8152TIP3    H148651   1.870   7.489   1.163
 8152TIP3    H248652   1.938   7.395   1.066
 8153TIP3   OH248653   1.780   7.334   1.438
 8153TIP3    H148654   1.738   7.267   1.385
 8153TIP3    H248655   1.822   7.286   1.509
 8154TIP3   OH248656   1.693   6.933   1.881
 8154TIP3    H148657   1.616   6.924   1.938
 8154TIP3    H248658   1.747   6.999   1.926
 8155TIP3   OH248659   1.847   6.718   0.491
 8155TIP3    H148660   1.918   6.782   0.498
 8155TIP3    H248661   1.854   6.666   0.571
 8156TIP3   OH248662   1.855   6.546   0.711
 8156TIP3    H148663   1.767   6.521   0.739
 8156TIP3    H248664   1.901   6.569   0.792
 8157TIP3   OH248665   1.846   6.827   1.097
 8157TIP3    H148666   1.896   6.751   1.128
 8157TIP3    H248667   1.912   6.894   1.081
 8158TIP3   OH248668   1.615   7.151   1.319
 8158TIP3    H148669   1.541   7.188   1.366
 8158TIP3    H248670   1.582   7.134   1.230
 8159TIP3   OH248671   1.803   6.554   0.276
 8159TIP3    H148672   1.730   6.590   0.226
 8159TIP3    H248673   1.816   6.615   0.348
 8160TIP3   OH248674   1.554   6.232   0.224
 8160TIP3    H148675   1.535   6.281   0.145
 8160TIP3    H248676   1.556   6.140   0.196
 8161TIP3   OH248677   1.598   6.436   0.750
 8161TIP3    H148678   1.599   6.351   0.705
 8161TIP3    H248679   1.541   6.422   0.826
 8162TIP3   OH248680   0.214   6.764   1.079
 8162TIP3    H148681   0.267   6.759   0.999
 8162TIP3    H248682   0.228   6.679   1.122
 8163TIP3   OH248683   1.675   6.538   1.608
 8163TIP3    H148684   1.696   6.446   1.621
 8163TIP3    H248685   1.705   6.557   1.519
 8164TIP3   OH248686   1.882   6.307   1.719
 8164TIP3    H148687   1.791   6.278   1.708
 8164TIP3    H248688   1.911   6.265   1.800
 8165TIP3   OH248689   1.572   5.982   0.118
 8165TIP3    H148690   1.662   5.952   0.117
 8165TIP3    H248691   1.520   5.906   0.094
 8166TIP3   OH248692   1.610   6.203   0.588
 8166TIP3    H148693   1.636   6.111   0.579
 8166TIP3    H248694   1.658   6.247   0.518
 8167TIP3   OH248695   1.640   6.228   1.079
 8167TIP3    H148696   1.733   6.245   1.063
 8167TIP3    H248697   1.627   6.247   1.171
 8168TIP3   OH248698   1.610   6.315   1.339
 8168TIP3    H148699   1.530   6.330   1.390
 8168TIP3    H248700   1.654   6.400   1.339
 8169TIP3   OH248701   0.176   6.002   1.644
 8169TIP3    H148702   0.226   6.036   1.718
 8169TIP3    H248703   0.195   5.909   1.642
 8170TIP3   OH248704   1.859   5.720   1.815
 8170TIP3    H148705   1.928   5.678   1.764
 8170TIP3    H248706   1.839   5.800   1.766
 8171TIP3   OH248707   1.675   5.936   0.543
 8171TIP3    H148708   1.707   5.891   0.622
 8171TIP3    H248709   1.599   5.884   0.515
 8172TIP3   OH248710   0.250   5.972   1.020
 8172TIP3    H148711   0.300   5.896   0.990
 8172TIP3    H248712   0.315   6.042   1.027
 8173TIP3   OH248713   0.066   6.386   1.035
 8173TIP3    H148714   0.117   6.338   0.970
 8173TIP3    H248715   0.132   6.425   1.093
 8174TIP3   OH248716   1.757   5.942   1.689
 8174TIP3    H148717   1.709   5.983   1.761
 8174TIP3    H248718   1.697   5.945   1.615
 8175TIP3   OH248719   1.833   5.903   0.154
 8175TIP3    H148720   1.905   5.845   0.129
 8175TIP3    H248721   1.876   5.978   0.195
 8176TIP3   OH248722   0.130   5.964   0.523
 8176TIP3    H148723   0.036   5.984   0.519
 8176TIP3    H248724   0.172   6.038   0.481
 8177TIP3   OH248725   1.517   7.447   0.666
 8177TIP3    H148726   1.600   7.434   0.619
 8177TIP3    H248727   1.540   7.505   0.739
 8178TIP3   OH248728   0.129   5.845   1.246
 8178TIP3    H148729   0.035   5.823   1.242
 8178TIP3    H248730   0.148   5.883   1.160
 8179TIP3   OH248731   0.385   7.160   1.737
 8179TIP3    H148732   0.349   7.245   1.762
 8179TIP3    H248733   0.329   7.096   1.782
 8180TIP3   OH248734   0.671   7.211   1.404
 8180TIP3    H148735   0.614   7.284   1.380
 8180TIP3    H248736   0.756   7.234   1.365
 8181TIP3   OH248737   0.970   7.342   1.657
 8181TIP3    H148738   0.980   7.302   1.743
 8181TIP3    H248739   1.055   7.382   1.639
 8182TIP3   OH248740   1.217   7.448   1.606
 8182TIP3    H148741   1.290   7.400   1.568
 8182TIP3    H248742   1.250   7.480   1.690
 8183TIP3   OH248743   1.720   5.699   1.472
 8183TIP3    H148744   1.675   5.740   1.397
 8183TIP3    H248745   1.738   5.610   1.443
 8184TIP3   OH248746   0.256   7.438   1.415
 8184TIP3    H148747   0.217   7.501   1.354
 8184TIP3    H248748   0.218   7.461   1.500
 8185TIP3   OH248749   0.523   7.430   1.336
 8185TIP3    H148750   0.434   7.432   1.372
 8185TIP3    H248751   0.517   7.480   1.255
 8186TIP3   OH248752   1.041   7.480   1.197
 8186TIP3    H148753   0.975   7.509   1.134
 8186TIP3    H248754   1.038   7.546   1.266
 8187TIP3   OH248755   1.272   7.357   1.274
 8187TIP3    H148756   1.192   7.401   1.246
 8187TIP3    H248757   1.342   7.419   1.253
 8188TIP3   OH248758   1.482   7.523   1.211
 8188TIP3    H148759   1.475   7.604   1.160
 8188TIP3    H248760   1.525   7.462   1.152
 8189TIP3   OH248761   0.332   7.310   1.073
 8189TIP3    H148762   0.322   7.404   1.058
 8189TIP3    H248763   0.412   7.287   1.025
 8190TIP3   OH248764   0.546   7.240   0.919
 8190TIP3    H148765   0.567   7.167   0.860
 8190TIP3    H248766   0.625   7.251   0.972
 8191TIP3   OH248767   0.779   7.232   1.060
 8191TIP3    H148768   0.775   7.140   1.035
 8191TIP3    H248769   0.830   7.232   1.141
 8192TIP3   OH248770   1.024   5.818   0.931
 8192TIP3    H148771   0.969   5.751   0.972
 8192TIP3    H248772   1.111   5.779   0.927
 8193TIP3   OH248773   1.613   5.762   0.914
 8193TIP3    H148774   1.694   5.776   0.865
 8193TIP3    H248775   1.576   5.849   0.925
 8194TIP3   OH248776   1.818   5.817   0.746
 8194TIP3    H148777   1.879   5.750   0.715
 8194TIP3    H248778   1.870   5.898   0.747
 8195TIP3   OH248779   0.367   5.680   0.670
 8195TIP3    H148780   0.276   5.663   0.646
 8195TIP3    H248781   0.408   5.594   0.669
 8196TIP3   OH248782   0.129   5.776   0.312
 8196TIP3    H148783   0.203   5.815   0.266
 8196TIP3    H248784   0.122   5.826   0.394
 8197TIP3   OH248785   0.837   5.596   0.740
 8197TIP3    H148786   0.895   5.661   0.698
 8197TIP3    H248787   0.844   5.615   0.834
 8198TIP3   OH248788   1.271   5.692   0.921
 8198TIP3    H148789   1.326   5.678   0.844
 8198TIP3    H248790   1.248   5.604   0.951
 8199TIP3   OH248791   1.457   5.781   0.461
 8199TIP3    H148792   1.383   5.834   0.491
 8199TIP3    H248793   1.425   5.691   0.463
 8200TIP3   OH248794   0.028   7.351   0.425
 8200TIP3    H148795  -0.054   7.333   0.379
 8200TIP3    H248796   0.078   7.406   0.366
 8201TIP3   OH248797   0.370   5.885   0.227
 8201TIP3    H148798   0.411   5.798   0.237
 8201TIP3    H248799   0.428   5.944   0.275
 8202TIP3   OH248800   0.841   5.928   0.411
 8202TIP3    H148801   0.886   5.859   0.461
 8202TIP3    H248802   0.864   6.009   0.456
 8203TIP3   OH248803   1.117   7.385   0.166
 8203TIP3    H148804   1.205   7.383   0.205
 8203TIP3    H248805   1.132   7.396   0.072
 8204TIP3   OH248806   1.724   7.379   0.496
 8204TIP3    H148807   1.697   7.287   0.492
 8204TIP3    H248808   1.696   7.415   0.412
 8205TIP3   OH248809   0.260   5.739   1.649
 8205TIP3    H148810   0.203   5.670   1.683
 8205TIP3    H248811   0.335   5.738   1.708
 8206TIP3   OH248812   0.455   5.694   1.846
 8206TIP3    H148813   0.535   5.666   1.802
 8206TIP3    H248814   0.420   5.614   1.885
 8207TIP3   OH248815   0.363   7.536   0.173
 8207TIP3    H148816   0.447   7.492   0.185
 8207TIP3    H248817   0.385   7.629   0.168
 8208TIP3   OH248818   1.333   5.702   1.803
 8208TIP3    H148819   1.328   5.646   1.881
 8208TIP3    H248820   1.423   5.690   1.771
 8209TIP3   OH248821   1.605   7.266   1.705
 8209TIP3    H148822   1.547   7.258   1.630
 8209TIP3    H248823   1.606   7.360   1.725
 8210TIP3   OH248824   3.130   6.679   0.704
 8210TIP3    H148825   3.120   6.773   0.687
 8210TIP3    H248826   3.071   6.637   0.641
 8211TIP3   OH248827   2.993   6.598   1.033
 8211TIP3    H148828   3.019   6.560   1.117
 8211TIP3    H248829   2.941   6.529   0.991
 8212TIP3   OH248830   2.189   6.468   1.315
 8212TIP3    H148831   2.205   6.381   1.351
 8212TIP3    H248832   2.239   6.527   1.371
 8213TIP3   OH248833   3.400   6.892   0.895
 8213TIP3    H148834   3.351   6.817   0.929
 8213TIP3    H248835   3.406   6.953   0.968
 8214TIP3   OH248836   2.336   6.955   0.985
 8214TIP3    H148837   2.314   6.867   0.955
 8214TIP3    H248838   2.429   6.949   1.007
 8215TIP3   OH248839   1.938   6.302   0.604
 8215TIP3    H148840   1.914   6.388   0.641
 8215TIP3    H248841   1.884   6.294   0.525
 8216TIP3   OH248842   2.043   6.579   0.923
 8216TIP3    H148843   2.077   6.489   0.914
 8216TIP3    H248844   2.120   6.635   0.911
 8217TIP3   OH248845   3.078   7.253   0.907
 8217TIP3    H148846   3.158   7.233   0.857
 8217TIP3    H248847   3.085   7.200   0.986
 8218TIP3   OH248848   2.852   6.834   1.078
 8218TIP3    H148849   2.896   6.758   1.040
 8218TIP3    H248850   2.913   6.868   1.143
 8219TIP3   OH248851   3.721   5.964   1.192
 8219TIP3    H148852   3.713   6.039   1.251
 8219TIP3    H248853   3.781   5.993   1.124
 8220TIP3   OH248854   3.047   6.223   1.122
 8220TIP3    H148855   3.039   6.132   1.150
 8220TIP3    H248856   3.058   6.218   1.027
 8221TIP3   OH248857   2.462   6.055   0.834
 8221TIP3    H148858   2.469   6.138   0.788
 8221TIP3    H248859   2.392   6.008   0.788
 8222TIP3   OH248860   3.276   6.115   0.717
 8222TIP3    H148861   3.319   6.105   0.802
 8222TIP3    H248862   3.342   6.157   0.661
 8223TIP3   OH248863   2.135   6.320   0.910
 8223TIP3    H148864   2.198   6.272   0.963
 8223TIP3    H248865   2.155   6.295   0.820
 8224TIP3   OH248866   2.603   6.463   0.848
 8224TIP3    H148867   2.688   6.432   0.878
 8224TIP3    H248868   2.567   6.390   0.798
 8225TIP3   OH248869   3.676   6.152   1.396
 8225TIP3    H148870   3.634   6.238   1.393
 8225TIP3    H248871   3.747   6.162   1.460
 8226TIP3   OH248872   2.340   5.955   1.239
 8226TIP3    H148873   2.302   6.023   1.184
 8226TIP3    H248874   2.285   5.953   1.317
 8227TIP3   OH248875   3.114   6.932   0.593
 8227TIP3    H148876   3.082   6.924   0.503
 8227TIP3    H248877   3.056   6.996   0.633
 8228TIP3   OH248878   2.626   6.734   1.207
 8228TIP3    H148879   2.570   6.804   1.240
 8228TIP3    H248880   2.694   6.780   1.157
 8229TIP3   OH248881   3.367   6.104   0.970
 8229TIP3    H148882   3.337   6.034   1.028
 8229TIP3    H248883   3.441   6.144   1.017
 8230TIP3   OH248884   2.311   6.151   1.042
 8230TIP3    H148885   2.365   6.208   1.098
 8230TIP3    H248886   2.373   6.114   0.979
 8231TIP3   OH248887   2.466   6.933   1.315
 8231TIP3    H148888   2.472   7.029   1.313
 8231TIP3    H248889   2.375   6.915   1.340
 8232TIP3   OH248890   2.053   6.902   0.474
 8232TIP3    H148891   2.039   6.954   0.395
 8232TIP3    H248892   2.086   6.965   0.538
 8233TIP3   OH248893   3.402   7.079   1.108
 8233TIP3    H148894   3.307   7.088   1.110
 8233TIP3    H248895   3.435   7.166   1.084
 8234TIP3   OH248896   3.480   5.836   1.268
 8234TIP3    H148897   3.412   5.857   1.203
 8234TIP3    H248898   3.560   5.873   1.232
 8235TIP3   OH248899   2.684   5.648   1.003
 8235TIP3    H148900   2.672   5.553   1.008
 8235TIP3    H248901   2.599   5.684   1.029
 8236TIP3   OH248902   3.288   7.218   0.740
 8236TIP3    H148903   3.333   7.139   0.708
 8236TIP3    H248904   3.345   7.290   0.714
 8237TIP3   OH248905   3.384   6.983   0.638
 8237TIP3    H148906   3.295   6.956   0.617
 8237TIP3    H248907   3.403   6.942   0.722
 8238TIP3   OH248908   3.532   6.833   1.443
 8238TIP3    H148909   3.516   6.798   1.355
 8238TIP3    H248910   3.549   6.926   1.429
 8239TIP3   OH248911   3.007   6.578   0.473
 8239TIP3    H148912   2.938   6.636   0.440
 8239TIP3    H248913   3.079   6.588   0.411
 8240TIP3   OH248914   2.856   6.357   0.167
 8240TIP3    H148915   2.924   6.397   0.221
 8240TIP3    H248916   2.885   6.266   0.158
 8241TIP3   OH248917   3.665   6.566   1.272
 8241TIP3    H148918   3.598   6.629   1.246
 8241TIP3    H248919   3.731   6.571   1.202
 8242TIP3   OH248920   3.367   6.635   0.578
 8242TIP3    H148921   3.292   6.652   0.635
 8242TIP3    H248922   3.425   6.579   0.630
 8243TIP3   OH248923   3.249   6.444   1.437
 8243TIP3    H148924   3.242   6.513   1.502
 8243TIP3    H248925   3.180   6.464   1.373
 8244TIP3   OH248926   2.470   6.643   0.687
 8244TIP3    H148927   2.437   6.588   0.616
 8244TIP3    H248928   2.527   6.586   0.738
 8245TIP3   OH248929   2.622   6.968   0.981
 8245TIP3    H148930   2.619   6.977   0.886
 8245TIP3    H248931   2.707   6.925   0.997
 8246TIP3   OH248932   2.470   6.549   1.074
 8246TIP3    H148933   2.525   6.522   1.000
 8246TIP3    H248934   2.523   6.612   1.122
 8247TIP3   OH248935   3.127   7.098   1.139
 8247TIP3    H148936   3.109   7.170   1.199
 8247TIP3    H248937   3.091   7.021   1.182
 8248TIP3   OH248938   2.613   6.953   1.553
 8248TIP3    H148939   2.545   7.008   1.593
 8248TIP3    H248940   2.575   6.926   1.469
 8249TIP3   OH248941   3.257   6.555   0.339
 8249TIP3    H148942   3.300   6.588   0.418
 8249TIP3    H248943   3.309   6.588   0.266
 8250TIP3   OH248944   2.349   6.585   1.517
 8250TIP3    H148945   2.337   6.677   1.539
 8250TIP3    H248946   2.314   6.537   1.592
 8251TIP3   OH248947   2.949   7.126   0.694
 8251TIP3    H148948   2.975   7.166   0.776
 8251TIP3    H248949   2.902   7.195   0.647
 8252TIP3   OH248950   2.407   7.123   1.616
 8252TIP3    H148951   2.414   7.163   1.529
 8252TIP3    H248952   2.313   7.119   1.632
 8253TIP3   OH248953   3.575   5.708   0.324
 8253TIP3    H148954   3.493   5.748   0.355
 8253TIP3    H248955   3.625   5.782   0.288
 8254TIP3   OH248956   2.361   6.504   0.469
 8254TIP3    H148957   2.303   6.573   0.435
 8254TIP3    H248958   2.304   6.427   0.477
 8255TIP3   OH248959   3.660   7.111   0.236
 8255TIP3    H148960   3.691   7.199   0.215
 8255TIP3    H248961   3.737   7.055   0.225
 8256TIP3   OH248962   2.015   6.735   1.430
 8256TIP3    H148963   1.997   6.692   1.346
 8256TIP3    H248964   2.013   6.664   1.494
 8257TIP3   OH248965   2.065   7.000   1.070
 8257TIP3    H148966   2.154   6.978   1.041
 8257TIP3    H248967   2.078   7.052   1.149
 8258TIP3   OH248968   3.772   7.191   1.663
 8258TIP3    H148969   3.771   7.096   1.655
 8258TIP3    H248970   3.687   7.213   1.701
 8259TIP3   OH248971   2.855   7.080   1.523
 8259TIP3    H148972   2.854   7.167   1.563
 8259TIP3    H248973   2.768   7.045   1.540
 8260TIP3   OH248974   2.860   7.360   0.575
 8260TIP3    H148975   2.831   7.395   0.491
 8260TIP3    H248976   2.803   7.402   0.640
 8261TIP3   OH248977   2.284   7.329   0.712
 8261TIP3    H148978   2.306   7.306   0.802
 8261TIP3    H248979   2.232   7.256   0.680
 8262TIP3   OH248980   3.206   7.361   0.283
 8262TIP3    H148981   3.272   7.299   0.253
 8262TIP3    H248982   3.186   7.334   0.373
 8263TIP3   OH248983   3.134   7.347   0.549
 8263TIP3    H148984   3.038   7.342   0.557
 8263TIP3    H248985   3.166   7.279   0.608
 8264TIP3   OH248986   3.346   6.269   1.644
 8264TIP3    H148987   3.327   6.331   1.575
 8264TIP3    H248988   3.373   6.189   1.599
 8265TIP3   OH248989   2.212   6.929   1.426
 8265TIP3    H148990   2.239   6.918   1.517
 8265TIP3    H248991   2.141   6.866   1.415
 8266TIP3   OH248992   2.434   5.754   1.076
 8266TIP3    H148993   2.361   5.749   1.015
 8266TIP3    H248994   2.415   5.829   1.132
 8267TIP3   OH248995   2.896   5.857   1.465
 8267TIP3    H148996   2.954   5.798   1.513
 8267TIP3    H248997   2.823   5.803   1.437
 8268TIP3   OH248998   3.167   6.177   1.413
 8268TIP3    H148999   3.250   6.131   1.431
 8268TIP3    H249000   3.192   6.269   1.406
 8269TIP3   OH249001   3.435   6.682   0.161
 8269TIP3    H149002   3.388   6.737   0.098
 8269TIP3    H249003   3.450   6.739   0.236
 8270TIP3   OH249004   2.913   6.087   0.145
 8270TIP3    H149005   2.863   6.038   0.211
 8270TIP3    H249006   2.895   6.041   0.063
 8271TIP3   OH249007   2.460   6.306   1.213
 8271TIP3    H149008   2.407   6.302   1.293
 8271TIP3    H249009   2.447   6.396   1.181
 8272TIP3   OH249010   2.462   6.285   0.688
 8272TIP3    H149011   2.367   6.285   0.680
 8272TIP3    H249012   2.493   6.257   0.602
 8273TIP3   OH249013   3.012   6.330   0.587
 8273TIP3    H149014   2.997   6.421   0.560
 8273TIP3    H249015   3.091   6.304   0.541
 8274TIP3   OH249016   2.884   6.326   1.687
 8274TIP3    H149017   2.831   6.266   1.740
 8274TIP3    H249018   2.970   6.323   1.728
 8275TIP3   OH249019   3.056   6.235   0.843
 8275TIP3    H149020   3.030   6.282   0.764
 8275TIP3    H249021   3.128   6.179   0.814
 8276TIP3   OH249022   2.292   6.238   1.429
 8276TIP3    H149023   2.320   6.258   1.518
 8276TIP3    H249024   2.255   6.150   1.434
 8277TIP3   OH249025   2.568   5.937   0.182
 8277TIP3    H149026   2.638   5.953   0.246
 8277TIP3    H249027   2.529   6.023   0.167
 8278TIP3   OH249028   1.946   6.055   0.748
 8278TIP3    H149029   1.983   6.064   0.835
 8278TIP3    H249030   1.933   6.145   0.717
 8279TIP3   OH249031   1.971   6.114   0.278
 8279TIP3    H149032   2.049   6.158   0.244
 8279TIP3    H249033   1.915   6.184   0.309
 8280TIP3   OH249034   3.028   6.455   1.273
 8280TIP3    H149035   3.023   6.372   1.225
 8280TIP3    H249036   2.938   6.472   1.301
 8281TIP3   OH249037   2.728   6.015   0.756
 8281TIP3    H149038   2.641   6.025   0.794
 8281TIP3    H249039   2.780   5.972   0.824
 8282TIP3   OH249040   2.197   6.228   0.656
 8282TIP3    H149041   2.109   6.249   0.624
 8282TIP3    H249042   2.201   6.132   0.653
 8283TIP3   OH249043   2.533   6.170   0.449
 8283TIP3    H149044   2.626   6.189   0.457
 8283TIP3    H249045   2.513   6.187   0.356
 8284TIP3   OH249046   3.260   5.879   1.100
 8284TIP3    H149047   3.196   5.914   1.162
 8284TIP3    H249048   3.209   5.822   1.043
 8285TIP3   OH249049   2.461   6.194   0.183
 8285TIP3    H149050   2.367   6.211   0.173
 8285TIP3    H249051   2.503   6.269   0.141
 8286TIP3   OH249052   3.512   7.537   1.716
 8286TIP3    H149053   3.494   7.553   1.624
 8286TIP3    H249054   3.603   7.565   1.729
 8287TIP3   OH249055   2.274   6.809   1.673
 8287TIP3    H149056   2.333   6.798   1.748
 8287TIP3    H249057   2.187   6.810   1.711
 8288TIP3   OH249058   2.833   6.364   0.962
 8288TIP3    H149059   2.905   6.313   0.926
 8288TIP3    H249060   2.806   6.315   1.040
 8289TIP3   OH249061   2.263   5.956   0.667
 8289TIP3    H149062   2.208   5.877   0.673
 8289TIP3    H249063   2.330   5.933   0.602
 8290TIP3   OH249064   2.731   6.236   1.193
 8290TIP3    H149065   2.646   6.275   1.212
 8290TIP3    H249066   2.778   6.237   1.277
 8291TIP3   OH249067   2.796   6.735   0.389
 8291TIP3    H149068   2.733   6.673   0.353
 8291TIP3    H249069   2.745   6.787   0.452
 8292TIP3   OH249070   3.477   6.746   1.189
 8292TIP3    H149071   3.533   6.806   1.141
 8292TIP3    H249072   3.405   6.727   1.129
 8293TIP3   OH249073   3.093   6.071   0.358
 8293TIP3    H149074   3.049   6.085   0.274
 8293TIP3    H249075   3.146   6.150   0.370
 8294TIP3   OH249076   2.898   6.779   1.519
 8294TIP3    H149077   2.931   6.743   1.601
 8294TIP3    H249078   2.876   6.870   1.540
 8295TIP3   OH249079   3.235   6.294   0.425
 8295TIP3    H149080   3.322   6.272   0.458
 8295TIP3    H249081   3.244   6.382   0.388
 8296TIP3   OH249082   2.300   6.692   0.905
 8296TIP3    H149083   2.351   6.683   0.824
 8296TIP3    H249084   2.346   6.639   0.969
 8297TIP3   OH249085   3.013   6.904   0.337
 8297TIP3    H149086   2.976   6.987   0.306
 8297TIP3    H249087   2.938   6.845   0.342
 8298TIP3   OH249088   2.005   6.532   1.613
 8298TIP3    H149089   2.091   6.518   1.653
 8298TIP3    H249090   1.952   6.459   1.644
 8299TIP3   OH249091   2.702   6.532   1.711
 8299TIP3    H149092   2.638   6.500   1.647
 8299TIP3    H249093   2.780   6.478   1.695
 8300TIP3   OH249094   3.132   7.078   1.553
 8300TIP3    H149095   3.042   7.077   1.523
 8300TIP3    H249096   3.126   7.085   1.648
 8301TIP3   OH249097   3.661   6.306   0.351
 8301TIP3    H149098   3.597   6.270   0.290
 8301TIP3    H249099   3.672   6.397   0.324
 8302TIP3   OH249100   3.765   6.919   1.644
 8302TIP3    H149101   3.672   6.905   1.662
 8302TIP3    H249102   3.777   6.882   1.556
 8303TIP3   OH249103   3.562   7.154   0.498
 8303TIP3    H149104   3.506   7.087   0.539
 8303TIP3    H249105   3.581   7.119   0.411
 8304TIP3   OH249106   3.277   6.669   1.009
 8304TIP3    H149107   3.183   6.666   0.995
 8304TIP3    H249108   3.308   6.582   0.983
 8305TIP3   OH249109   2.530   7.044   0.729
 8305TIP3    H149110   2.543   7.129   0.687
 8305TIP3    H249111   2.436   7.041   0.748
 8306TIP3   OH249112   2.069   6.476   0.253
 8306TIP3    H149113   2.113   6.554   0.288
 8306TIP3    H249114   1.977   6.501   0.250
 8307TIP3   OH249115   2.602   6.849   0.551
 8307TIP3    H149116   2.593   6.921   0.614
 8307TIP3    H249117   2.557   6.776   0.592
 8308TIP3   OH249118   2.746   7.221   1.300
 8308TIP3    H149119   2.798   7.299   1.278
 8308TIP3    H249120   2.804   7.169   1.356
 8309TIP3   OH249121   2.534   7.292   0.608
 8309TIP3    H149122   2.444   7.317   0.629
 8309TIP3    H249123   2.588   7.355   0.655
 8310TIP3   OH249124   3.037   6.876   1.290
 8310TIP3    H149125   2.977   6.844   1.358
 8310TIP3    H249126   3.124   6.851   1.322
 8311TIP3   OH249127   3.272   6.919   0.232
 8311TIP3    H149128   3.328   6.894   0.306
 8311TIP3    H249129   3.183   6.911   0.266
 8312TIP3   OH249130   3.322   7.262   1.481
 8312TIP3    H149131   3.253   7.199   1.502
 8312TIP3    H249132   3.286   7.315   1.410
 8313TIP3   OH249133   3.763   7.365   0.218
 8313TIP3    H149134   3.841   7.420   0.221
 8313TIP3    H249135   3.690   7.425   0.231
 8314TIP3   OH249136   2.192   5.980   1.471
 8314TIP3    H149137   2.106   6.014   1.495
 8314TIP3    H249138   2.211   5.914   1.538
 8315TIP3   OH249139   3.471   6.812   0.397
 8315TIP3    H149140   3.431   6.771   0.473
 8315TIP3    H249141   3.565   6.813   0.416
 8316TIP3   OH249142   2.135   7.163   1.286
 8316TIP3    H149143   2.164   7.090   1.341
 8316TIP3    H249144   2.143   7.240   1.343
 8317TIP3   OH249145   2.532   6.977   0.312
 8317TIP3    H149146   2.558   6.934   0.393
 8317TIP3    H249147   2.570   7.065   0.319
 8318TIP3   OH249148   2.196   6.696   0.363
 8318TIP3    H149149   2.143   6.754   0.418
 8318TIP3    H249150   2.237   6.754   0.299
 8319TIP3   OH249151   3.064   5.973   1.266
 8319TIP3    H149152   3.097   6.043   1.322
 8319TIP3    H249153   3.000   5.928   1.320
 8320TIP3   OH249154   3.130   5.927   0.581
 8320TIP3    H149155   3.113   5.977   0.501
 8320TIP3    H249156   3.177   5.987   0.639
 8321TIP3   OH249157   2.887   7.135   0.265
 8321TIP3    H149158   2.800   7.156   0.300
 8321TIP3    H249159   2.915   7.214   0.220
 8322TIP3   OH249160   2.792   6.174   0.538
 8322TIP3    H149161   2.867   6.232   0.553
 8322TIP3    H249162   2.775   6.134   0.623
 8323TIP3   OH249163   2.888   6.210   1.436
 8323TIP3    H149164   2.883   6.276   1.506
 8323TIP3    H249165   2.981   6.198   1.420
 8324TIP3   OH249166   2.871   5.839   0.593
 8324TIP3    H149167   2.828   5.903   0.648
 8324TIP3    H249168   2.964   5.861   0.597
 8325TIP3   OH249169   2.639   7.228   0.363
 8325TIP3    H149170   2.675   7.314   0.340
 8325TIP3    H249171   2.601   7.240   0.450
 8326TIP3   OH249172   2.482   5.905   0.511
 8326TIP3    H149173   2.503   5.996   0.490
 8326TIP3    H249174   2.557   5.876   0.564
 8327TIP3   OH249175   3.417   6.061   1.453
 8327TIP3    H149176   3.419   5.971   1.419
 8327TIP3    H249177   3.504   6.095   1.436
 8328TIP3   OH249178   3.364   6.406   0.956
 8328TIP3    H149179   3.294   6.340   0.954
 8328TIP3    H249180   3.433   6.365   1.009
 8329TIP3   OH249181   2.297   6.890   0.193
 8329TIP3    H149182   2.361   6.940   0.244
 8329TIP3    H249183   2.350   6.841   0.130
 8330TIP3   OH249184   2.188   6.257   0.150
 8330TIP3    H149185   2.154   6.337   0.191
 8330TIP3    H249186   2.167   6.267   0.057
 8331TIP3   OH249187   3.494   7.340   1.081
 8331TIP3    H149188   3.466   7.402   1.014
 8331TIP3    H249189   3.583   7.368   1.104
 8332TIP3   OH249190   2.189   5.752   0.947
 8332TIP3    H149191   2.183   5.739   0.853
 8332TIP3    H249192   2.167   5.667   0.985
 8333TIP3   OH249193   2.125   7.117   0.640
 8333TIP3    H149194   2.062   7.131   0.710
 8333TIP3    H249195   2.086   7.162   0.564
 8334TIP3   OH249196   2.037   7.406   1.674
 8334TIP3    H149197   2.107   7.397   1.739
 8334TIP3    H249198   1.990   7.323   1.678
 8335TIP3   OH249199   2.450   7.219   1.871
 8335TIP3    H149200   2.531   7.177   1.902
 8335TIP3    H249201   2.438   7.186   1.782
 8336TIP3   OH249202   2.885   7.099   9.876
 8336TIP3    H149203   2.883   7.011   9.839
 8336TIP3    H249204   2.939   7.090   9.955
 8337TIP3   OH249205   3.112   7.095   1.825
 8337TIP3    H149206   3.110   7.011   1.871
 8337TIP3    H249207   3.186   7.141   1.863
 8338TIP3   OH249208   3.385   7.169   0.205
 8338TIP3    H149209   3.343   7.084   0.200
 8338TIP3    H249210   3.479   7.150   0.207
 8339TIP3   OH249211   2.017   6.813   1.787
 8339TIP3    H149212   1.976   6.728   1.806
 8339TIP3    H249213   1.958   6.853   1.722
 8340TIP3   OH249214   2.539   6.768   0.123
 8340TIP3    H149215   2.559   6.700   0.188
 8340TIP3    H249216   2.561   6.850   0.167
 8341TIP3   OH249217   2.688   6.804   1.772
 8341TIP3    H149218   2.669   6.846   1.688
 8341TIP3    H249219   2.708   6.713   1.749
 8342TIP3   OH249220   3.253   6.841   1.480
 8342TIP3    H149221   3.347   6.853   1.469
 8342TIP3    H249222   3.220   6.927   1.506
 8343TIP3   OH249223   2.240   6.473   1.741
 8343TIP3    H149224   2.285   6.389   1.751
 8343TIP3    H249225   2.214   6.496   1.830
 8344TIP3   OH249226   2.584   6.572   0.315
 8344TIP3    H149227   2.514   6.547   0.375
 8344TIP3    H249228   2.585   6.503   0.249
 8345TIP3   OH249229   2.576   6.423   1.485
 8345TIP3    H149230   2.498   6.478   1.483
 8345TIP3    H249231   2.642   6.472   1.436
 8346TIP3   OH249232   2.602   6.412   0.090
 8346TIP3    H149233   2.606   6.479   0.022
 8346TIP3    H249234   2.694   6.393   0.109
 8347TIP3   OH249235   3.008   6.663   1.754
 8347TIP3    H149236   3.096   6.639   1.724
 8347TIP3    H249237   2.986   6.596   1.818
 8348TIP3   OH249238   3.586   6.516   9.879
 8348TIP3    H149239   3.653   6.582   9.900
 8348TIP3    H249240   3.505   6.566   9.869
 8349TIP3   OH249241   2.610   6.151   1.542
 8349TIP3    H149242   2.587   6.108   1.460
 8349TIP3    H249243   2.599   6.245   1.525
 8350TIP3   OH249244   2.601   6.009   1.304
 8350TIP3    H149245   2.644   6.066   1.241
 8350TIP3    H249246   2.511   6.002   1.272
 8351TIP3   OH249247   2.781   6.571   1.367
 8351TIP3    H149248   2.824   6.636   1.422
 8351TIP3    H249249   2.729   6.622   1.305
 8352TIP3   OH249250   3.125   6.271   1.813
 8352TIP3    H149251   3.142   6.208   1.884
 8352TIP3    H249252   3.209   6.278   1.768
 8353TIP3   OH249253   3.269   6.627   1.650
 8353TIP3    H149254   3.252   6.706   1.599
 8353TIP3    H249255   3.364   6.613   1.641
 8354TIP3   OH249256   2.376   6.234   1.692
 8354TIP3    H149257   2.330   6.167   1.744
 8354TIP3    H249258   2.462   6.195   1.675
 8355TIP3   OH249259   2.652   5.750   1.377
 8355TIP3    H149260   2.630   5.838   1.348
 8355TIP3    H249261   2.572   5.699   1.363
 8356TIP3   OH249262   2.758   6.112   1.812
 8356TIP3    H149263   2.810   6.079   1.886
 8356TIP3    H249264   2.667   6.099   1.839
 8357TIP3   OH249265   3.027   6.045   1.675
 8357TIP3    H149266   3.058   6.129   1.709
 8357TIP3    H249267   3.097   5.984   1.696
 8358TIP3   OH249268   3.245   5.933   1.806
 8358TIP3    H149269   3.240   5.837   1.811
 8358TIP3    H249270   3.211   5.963   1.890
 8359TIP3   OH249271   2.249   6.029   1.824
 8359TIP3    H149272   2.227   5.948   1.778
 8359TIP3    H249273   2.167   6.058   1.862
 8360TIP3   OH249274   2.684   5.766   1.662
 8360TIP3    H149275   2.723   5.679   1.671
 8360TIP3    H249276   2.640   5.764   1.577
 8361TIP3   OH249277   2.667   5.817   1.937
 8361TIP3    H149278   2.667   5.788   1.846
 8361TIP3    H249279   2.605   5.889   1.940
 8362TIP3   OH249280   2.778   7.465   0.329
 8362TIP3    H149281   2.845   7.442   0.264
 8362TIP3    H249282   2.761   7.558   0.314
 8363TIP3   OH249283   2.040   6.993   0.200
 8363TIP3    H149284   2.126   6.951   0.199
 8363TIP3    H249285   2.038   7.048   0.122
 8364TIP3   OH249286   1.921   7.388   0.684
 8364TIP3    H149287   1.849   7.377   0.622
 8364TIP3    H249288   1.916   7.313   0.742
 8365TIP3   OH249289   1.973   7.178   0.862
 8365TIP3    H149290   1.962   7.096   0.910
 8365TIP3    H249291   2.012   7.238   0.926
 8366TIP3   OH249292   3.738   7.446   1.153
 8366TIP3    H149293   3.753   7.495   1.234
 8366TIP3    H249294   3.824   7.416   1.126
 8367TIP3   OH249295   3.663   7.327   1.440
 8367TIP3    H149296   3.634   7.249   1.391
 8367TIP3    H249297   3.716   7.292   1.511
 8368TIP3   OH249298   3.553   6.927   1.827
 8368TIP3    H149299   3.474   6.934   1.881
 8368TIP3    H249300   3.613   6.992   1.863
 8369TIP3   OH249301   3.730   6.738   0.458
 8369TIP3    H149302   3.800   6.800   0.474
 8369TIP3    H249303   3.742   6.670   0.525
 8370TIP3   OH249304   3.758   6.535   0.643
 8370TIP3    H149305   3.673   6.516   0.684
 8370TIP3    H249306   3.815   6.556   0.716
 8371TIP3   OH249307   3.741   6.856   1.152
 8371TIP3    H149308   3.785   6.777   1.119
 8371TIP3    H249309   3.797   6.928   1.124
 8372TIP3   OH249310   3.517   7.096   1.363
 8372TIP3    H149311   3.450   7.154   1.401
 8372TIP3    H249312   3.489   7.084   1.272
 8373TIP3   OH249313   3.672   6.564   0.255
 8373TIP3    H149314   3.595   6.594   0.207
 8373TIP3    H249315   3.686   6.630   0.323
 8374TIP3   OH249316   3.474   6.211   0.180
 8374TIP3    H149317   3.416   6.252   0.115
 8374TIP3    H249318   3.482   6.120   0.152
 8375TIP3   OH249319   3.508   6.447   0.723
 8375TIP3    H149320   3.498   6.362   0.680
 8375TIP3    H249321   3.460   6.438   0.806
 8376TIP3   OH249322   1.979   6.591   1.192
 8376TIP3    H149323   1.991   6.583   1.097
 8376TIP3    H249324   2.054   6.545   1.229
 8377TIP3   OH249325   3.540   6.600   1.603
 8377TIP3    H149326   3.606   6.534   1.582
 8377TIP3    H249327   3.556   6.671   1.541
 8378TIP3   OH249328   3.731   6.384   1.630
 8378TIP3    H149329   3.674   6.358   1.703
 8378TIP3    H249330   3.803   6.321   1.633
 8379TIP3   OH249331   3.506   5.956   0.085
 8379TIP3    H149332   3.595   5.932   0.112
 8379TIP3    H249333   3.470   5.876   0.047
 8380TIP3   OH249334   3.481   6.222   0.550
 8380TIP3    H149335   3.509   6.131   0.553
 8380TIP3    H249336   3.541   6.264   0.489
 8381TIP3   OH249337   3.552   6.261   1.103
 8381TIP3    H149338   3.646   6.272   1.090
 8381TIP3    H249339   3.538   6.284   1.195
 8382TIP3   OH249340   3.506   6.365   1.358
 8382TIP3    H149341   3.420   6.401   1.378
 8382TIP3    H249342   3.559   6.441   1.334
 8383TIP3   OH249343   1.956   6.088   1.564
 8383TIP3    H149344   1.955   6.171   1.612
 8383TIP3    H249345   1.899   6.030   1.615
 8384TIP3   OH249346   3.770   5.726   1.814
 8384TIP3    H149347   3.847   5.669   1.807
 8384TIP3    H249348   3.782   5.792   1.746
 8385TIP3   OH249349   3.552   5.958   0.549
 8385TIP3    H149350   3.574   5.914   0.631
 8385TIP3    H249351   3.485   5.903   0.509
 8386TIP3   OH249352   2.076   6.003   0.993
 8386TIP3    H149353   2.113   5.916   0.978
 8386TIP3    H249354   2.151   6.058   1.013
 8387TIP3   OH249355   1.906   6.293   1.066
 8387TIP3    H149356   1.979   6.301   1.006
 8387TIP3    H249357   1.943   6.314   1.152
 8388TIP3   OH249358   3.714   5.918   1.623
 8388TIP3    H149359   3.639   5.948   1.674
 8388TIP3    H249360   3.678   5.852   1.563
 8389TIP3   OH249361   3.750   5.886   0.190
 8389TIP3    H149362   3.820   5.824   0.213
 8389TIP3    H249363   3.786   5.972   0.212
 8390TIP3   OH249364   1.943   5.888   0.439
 8390TIP3    H149365   1.857   5.900   0.481
 8390TIP3    H249366   1.962   5.973   0.400
 8391TIP3   OH249367   3.423   7.447   0.673
 8391TIP3    H149368   3.511   7.440   0.636
 8391TIP3    H249369   3.436   7.485   0.760
 8392TIP3   OH249370   1.957   5.737   1.318
 8392TIP3    H149371   1.891   5.742   1.387
 8392TIP3    H249372   1.933   5.807   1.257
 8393TIP3   OH249373   2.141   7.116   1.683
 8393TIP3    H149374   2.050   7.126   1.654
 8393TIP3    H249375   2.134   7.102   1.778
 8394TIP3   OH249376   2.478   7.206   1.360
 8394TIP3    H149377   2.441   7.289   1.328
 8394TIP3    H249378   2.573   7.217   1.349
 8395TIP3   OH249379   2.888   7.345   1.619
 8395TIP3    H149380   2.875   7.312   1.708
 8395TIP3    H249381   2.978   7.378   1.617
 8396TIP3   OH249382   3.142   7.463   1.615
 8396TIP3    H149383   3.219   7.410   1.596
 8396TIP3    H249384   3.170   7.520   1.687
 8397TIP3   OH249385   3.620   5.702   1.469
 8397TIP3    H149386   3.566   5.733   1.396
 8397TIP3    H249387   3.642   5.612   1.447
 8398TIP3   OH249388   2.145   7.415   1.410
 8398TIP3    H149389   2.073   7.468   1.376
 8398TIP3    H249390   2.134   7.417   1.505
 8399TIP3   OH249391   2.387   7.453   1.279
 8399TIP3    H149392   2.304   7.449   1.327
 8399TIP3    H249393   2.372   7.517   1.210
 8400TIP3   OH249394   2.864   7.454   1.210
 8400TIP3    H149395   2.797   7.484   1.148
 8400TIP3    H249396   2.862   7.518   1.281
 8401TIP3   OH249397   3.093   7.324   1.286
 8401TIP3    H149398   3.013   7.369   1.258
 8401TIP3    H249399   3.163   7.387   1.270
 8402TIP3   OH249400   3.321   7.470   1.248
 8402TIP3    H149401   3.311   7.550   1.196
 8402TIP3    H249402   3.380   7.416   1.196
 8403TIP3   OH249403   2.110   7.326   1.059
 8403TIP3    H149404   2.106   7.280   1.143
 8403TIP3    H249405   2.195   7.304   1.023
 8404TIP3   OH249406   2.346   7.229   0.961
 8404TIP3    H149407   2.333   7.135   0.970
 8404TIP3    H249408   2.431   7.246   1.002
 8405TIP3   OH249409   2.604   7.229   1.065
 8405TIP3    H149410   2.613   7.141   1.029
 8405TIP3    H249411   2.650   7.226   1.149
 8406TIP3   OH249412   2.863   5.844   0.917
 8406TIP3    H149413   2.809   5.778   0.960
 8406TIP3    H249414   2.952   5.810   0.926
 8407TIP3   OH249415   3.418   5.728   0.905
 8407TIP3    H149416   3.494   5.767   0.862
 8407TIP3    H249417   3.385   5.796   0.963
 8408TIP3   OH249418   3.633   5.831   0.779
 8408TIP3    H149419   3.695   5.758   0.769
 8408TIP3    H249420   3.688   5.908   0.793
 8409TIP3   OH249421   2.172   5.691   0.680
 8409TIP3    H149422   2.085   5.658   0.661
 8409TIP3    H249423   2.229   5.613   0.676
 8410TIP3   OH249424   2.084   5.723   0.271
 8410TIP3    H149425   2.172   5.761   0.273
 8410TIP3    H249426   2.035   5.773   0.336
 8411TIP3   OH249427   2.674   5.674   0.717
 8411TIP3    H149428   2.751   5.722   0.687
 8411TIP3    H249429   2.683   5.673   0.813
 8412TIP3   OH249430   3.111   5.717   0.933
 8412TIP3    H149431   3.167   5.705   0.856
 8412TIP3    H249432   3.092   5.628   0.963
 8413TIP3   OH249433   3.345   5.801   0.451
 8413TIP3    H149434   3.275   5.851   0.493
 8413TIP3    H249435   3.310   5.712   0.442
 8414TIP3   OH249436   2.032   7.234   0.415
 8414TIP3    H149437   1.968   7.210   0.348
 8414TIP3    H249438   2.042   7.329   0.407
 8415TIP3   OH249439   2.374   5.771   0.296
 8415TIP3    H149440   2.422   5.826   0.234
 8415TIP3    H249441   2.392   5.809   0.382
 8416TIP3   OH249442   2.779   5.970   0.357
 8416TIP3    H149443   2.813   5.899   0.412
 8416TIP3    H249444   2.788   6.049   0.410
 8417TIP3   OH249445   2.970   7.382   0.152
 8417TIP3    H149446   3.055   7.381   0.196
 8417TIP3    H249447   2.992   7.391   0.059
 8418TIP3   OH249448   3.655   7.408   0.534
 8418TIP3    H149449   3.629   7.317   0.520
 8418TIP3    H249450   3.642   7.451   0.450
 8419TIP3   OH249451   2.221   5.790   1.681
 8419TIP3    H149452   2.154   5.722   1.673
 8419TIP3    H249453   2.291   5.749   1.731
 8420TIP3   OH249454   2.377   5.630   1.850
 8420TIP3    H149455   2.453   5.572   1.845
 8420TIP3    H249456   2.305   5.573   1.876
 8421TIP3   OH249457   2.295   7.563   0.334
 8421TIP3    H149458   2.204   7.538   0.349
 8421TIP3    H249459   2.342   7.480   0.327
 8422TIP3   OH249460   3.254   5.657   1.788
 8422TIP3    H149461   3.243   5.616   1.874
 8422TIP3    H249462   3.346   5.643   1.766
 8423TIP3   OH249463   3.504   7.263   1.706
 8423TIP3    H149464   3.452   7.254   1.626
 8423TIP3    H249465   3.510   7.357   1.720
 8424TIP3   OH249466   5.043   6.708   0.727
 8424TIP3    H149467   5.033   6.799   0.699
 8424TIP3    H249468   4.981   6.659   0.673
 8425TIP3   OH249469   4.782   6.575   1.065
 8425TIP3    H149470   4.845   6.540   1.128
 8425TIP3    H249471   4.756   6.498   1.013
 8426TIP3   OH249472   4.067   6.450   1.174
 8426TIP3    H149473   4.098   6.392   1.243
 8426TIP3    H249474   4.147   6.490   1.139
 8427TIP3   OH249475   5.320   6.933   0.883
 8427TIP3    H149476   5.280   6.853   0.917
 8427TIP3    H249477   5.312   6.996   0.955
 8428TIP3   OH249478   4.196   6.971   0.980
 8428TIP3    H149479   4.177   6.886   0.939
 8428TIP3    H249480   4.291   6.969   0.993
 8429TIP3   OH249481   3.814   6.266   0.585
 8429TIP3    H149482   3.811   6.358   0.611
 8429TIP3    H249483   3.767   6.263   0.501
 8430TIP3   OH249484   3.945   6.568   0.840
 8430TIP3    H149485   3.978   6.479   0.851
 8430TIP3    H249486   4.024   6.623   0.839
 8431TIP3   OH249487   4.958   7.284   0.893
 8431TIP3    H149488   5.039   7.261   0.848
 8431TIP3    H249489   4.962   7.235   0.976
 8432TIP3   OH249490   4.678   6.829   1.058
 8432TIP3    H149491   4.706   6.738   1.046
 8432TIP3    H249492   4.753   6.872   1.099
 8433TIP3   OH249493   5.649   5.976   1.175
 8433TIP3    H149494   5.655   6.054   1.229
 8433TIP3    H249495   5.710   5.992   1.103
 8434TIP3   OH249496   5.013   6.286   1.028
 8434TIP3    H149497   5.004   6.196   1.058
 8434TIP3    H249498   4.971   6.287   0.942
 8435TIP3   OH249499   4.352   6.019   0.791
 8435TIP3    H149500   4.347   6.107   0.754
 8435TIP3    H249501   4.298   5.965   0.733
 8436TIP3   OH249502   5.144   6.092   0.724
 8436TIP3    H149503   5.188   6.058   0.801
 8436TIP3    H249504   5.214   6.134   0.673
 8437TIP3   OH249505   4.016   6.304   0.879
 8437TIP3    H149506   4.084   6.265   0.934
 8437TIP3    H249507   4.024   6.258   0.795
 8438TIP3   OH249508   4.454   6.455   0.856
 8438TIP3    H149509   4.541   6.419   0.874
 8438TIP3    H249510   4.409   6.385   0.808
 8439TIP3   OH249511   5.631   6.148   1.401
 8439TIP3    H149512   5.557   6.204   1.376
 8439TIP3    H249513   5.606   6.113   1.487
 8440TIP3   OH249514   4.244   5.983   1.233
 8440TIP3    H149515   4.205   6.039   1.166
 8440TIP3    H249516   4.185   5.992   1.309
 8441TIP3   OH249517   5.022   6.950   0.595
 8441TIP3    H149518   4.989   6.938   0.506
 8441TIP3    H249519   4.962   7.013   0.634
 8442TIP3   OH249520   4.446   6.758   1.196
 8442TIP3    H149521   4.400   6.831   1.237
 8442TIP3    H249522   4.518   6.798   1.147
 8443TIP3   OH249523   5.239   6.011   0.977
 8443TIP3    H149524   5.152   6.016   1.017
 8443TIP3    H249525   5.284   6.090   1.007
 8444TIP3   OH249526   4.206   6.137   1.003
 8444TIP3    H149527   4.270   6.192   1.048
 8444TIP3    H249528   4.256   6.089   0.938
 8445TIP3   OH249529   4.317   6.959   1.339
 8445TIP3    H149530   4.327   7.054   1.343
 8445TIP3    H249531   4.230   6.943   1.375
 8446TIP3   OH249532   3.941   6.913   0.483
 8446TIP3    H149533   3.926   6.963   0.402
 8446TIP3    H249534   3.972   6.977   0.546
 8447TIP3   OH249535   5.278   7.126   1.083
 8447TIP3    H149536   5.182   7.129   1.086
 8447TIP3    H249537   5.304   7.217   1.069
 8448TIP3   OH249538   5.380   5.929   1.216
 8448TIP3    H149539   5.339   5.948   1.131
 8448TIP3    H249540   5.474   5.937   1.199
 8449TIP3   OH249541   4.587   5.666   1.031
 8449TIP3    H149542   4.562   5.573   1.032
 8449TIP3    H249543   4.505   5.713   1.044
 8450TIP3   OH249544   5.174   7.238   0.739
 8450TIP3    H149545   5.222   7.162   0.706
 8450TIP3    H249546   5.229   7.313   0.716
 8451TIP3   OH249547   5.294   7.019   0.626
 8451TIP3    H149548   5.206   6.985   0.607
 8451TIP3    H249549   5.316   6.980   0.711
 8452TIP3   OH249550   5.359   6.864   1.428
 8452TIP3    H149551   5.359   6.815   1.346
 8452TIP3    H249552   5.374   6.955   1.402
 8453TIP3   OH249553   4.913   6.605   0.491
 8453TIP3    H149554   4.841   6.655   0.452
 8453TIP3    H249555   4.982   6.606   0.425
 8454TIP3   OH249556   4.792   6.358   0.192
 8454TIP3    H149557   4.874   6.388   0.231
 8454TIP3    H249558   4.798   6.263   0.191
 8455TIP3   OH249559   5.539   6.551   1.297
 8455TIP3    H149560   5.473   6.615   1.271
 8455TIP3    H249561   5.604   6.553   1.227
 8456TIP3   OH249562   5.262   6.635   0.578
 8456TIP3    H149563   5.192   6.661   0.639
 8456TIP3    H249564   5.315   6.574   0.628
 8457TIP3   OH249565   5.161   6.385   1.456
 8457TIP3    H149566   5.157   6.455   1.521
 8457TIP3    H249567   5.101   6.412   1.387
 8458TIP3   OH249568   4.370   6.653   0.678
 8458TIP3    H149569   4.344   6.610   0.597
 8458TIP3    H249570   4.411   6.584   0.729
 8459TIP3   OH249571   4.474   6.992   0.969
 8459TIP3    H149572   4.470   7.001   0.873
 8459TIP3    H249573   4.551   6.936   0.984
 8460TIP3   OH249574   4.314   6.552   1.072
 8460TIP3    H149575   4.372   6.528   1.000
 8460TIP3    H249576   4.361   6.621   1.119
 8461TIP3   OH249577   5.005   7.131   1.120
 8461TIP3    H149578   4.985   7.194   1.189
 8461TIP3    H249579   4.967   7.049   1.150
 8462TIP3   OH249580   4.500   6.961   1.551
 8462TIP3    H149581   4.444   7.011   1.610
 8462TIP3    H249582   4.445   6.941   1.475
 8463TIP3   OH249583   5.152   6.553   0.339
 8463TIP3    H149584   5.195   6.585   0.418
 8463TIP3    H249585   5.203   6.589   0.267
 8464TIP3   OH249586   4.152   6.518   1.510
 8464TIP3    H149587   4.157   6.573   1.589
 8464TIP3    H249588   4.063   6.532   1.477
 8465TIP3   OH249589   4.844   7.139   0.685
 8465TIP3    H149590   4.865   7.183   0.767
 8465TIP3    H249591   4.792   7.203   0.637
 8466TIP3   OH249592   4.306   7.130   1.664
 8466TIP3    H149593   4.314   7.172   1.578
 8466TIP3    H249594   4.212   7.115   1.675
 8467TIP3   OH249595   5.462   5.692   0.330
 8467TIP3    H149596   5.374   5.715   0.360
 8467TIP3    H249597   5.498   5.773   0.295
 8468TIP3   OH249598   4.294   6.560   0.430
 8468TIP3    H149599   4.215   6.611   0.409
 8468TIP3    H249600   4.282   6.478   0.382
 8469TIP3   OH249601   5.544   7.130   0.213
 8469TIP3    H149602   5.585   7.215   0.200
 8469TIP3    H249603   5.615   7.067   0.204
 8470TIP3   OH249604   3.853   6.817   1.406
 8470TIP3    H149605   3.807   6.827   1.323
 8470TIP3    H249606   3.869   6.722   1.413
 8471TIP3   OH249607   3.944   7.030   1.086
 8471TIP3    H149608   4.029   7.005   1.051
 8471TIP3    H249609   3.965   7.083   1.163
 8472TIP3   OH249610   5.596   7.117   1.648
 8472TIP3    H149611   5.583   7.023   1.653
 8472TIP3    H249612   5.519   7.154   1.691
 8473TIP3   OH249613   4.734   7.101   1.516
 8473TIP3    H149614   4.723   7.182   1.566
 8473TIP3    H249615   4.653   7.053   1.532
 8474TIP3   OH249616   4.743   7.374   0.575
 8474TIP3    H149617   4.709   7.409   0.493
 8474TIP3    H249618   4.689   7.414   0.643
 8475TIP3   OH249619   4.171   7.344   0.713
 8475TIP3    H149620   4.189   7.327   0.806
 8475TIP3    H249621   4.118   7.269   0.685
 8476TIP3   OH249622   5.081   7.373   0.283
 8476TIP3    H149623   5.149   7.310   0.257
 8476TIP3    H249624   5.061   7.349   0.374
 8477TIP3   OH249625   5.016   7.369   0.551
 8477TIP3    H149626   4.921   7.363   0.559
 8477TIP3    H249627   5.050   7.301   0.610
 8478TIP3   OH249628   5.356   6.271   1.631
 8478TIP3    H149629   5.292   6.320   1.580
 8478TIP3    H249630   5.361   6.186   1.587
 8479TIP3   OH249631   4.070   6.975   1.465
 8479TIP3    H149632   4.060   6.996   1.558
 8479TIP3    H249633   3.996   6.916   1.447
 8480TIP3   OH249634   4.333   5.778   1.072
 8480TIP3    H149635   4.256   5.769   1.016
 8480TIP3    H249636   4.314   5.855   1.126
 8481TIP3   OH249637   4.799   5.782   1.433
 8481TIP3    H149638   4.837   5.739   1.509
 8481TIP3    H249639   4.704   5.778   1.448
 8482TIP3   OH249640   5.090   6.114   1.519
 8482TIP3    H149641   5.045   6.101   1.603
 8482TIP3    H249642   5.097   6.209   1.510
 8483TIP3   OH249643   5.326   6.687   0.164
 8483TIP3    H149644   5.281   6.740   0.098
 8483TIP3    H249645   5.340   6.747   0.237
 8484TIP3   OH249646   4.768   6.084   0.177
 8484TIP3    H149647   4.738   6.021   0.242
 8484TIP3    H249648   4.698   6.087   0.112
 8485TIP3   OH249649   4.362   6.296   1.169
 8485TIP3    H149650   4.308   6.287   1.248
 8485TIP3    H249651   4.352   6.388   1.144
 8486TIP3   OH249652   4.309   6.277   0.702
 8486TIP3    H149653   4.216   6.257   0.691
 8486TIP3    H249654   4.348   6.259   0.617
 8487TIP3   OH249655   4.880   6.337   0.536
 8487TIP3    H149656   4.877   6.433   0.528
 8487TIP3    H249657   4.959   6.312   0.489
 8488TIP3   OH249658   4.827   6.324   1.638
 8488TIP3    H149659   4.782   6.251   1.681
 8488TIP3    H249660   4.903   6.342   1.694
 8489TIP3   OH249661   4.908   6.230   0.783
 8489TIP3    H149662   4.892   6.274   0.699
 8489TIP3    H249663   4.980   6.170   0.765
 8490TIP3   OH249664   4.175   6.280   1.368
 8490TIP3    H149665   4.171   6.347   1.437
 8490TIP3    H249666   4.152   6.198   1.412
 8491TIP3   OH249667   4.512   6.086   0.057
 8491TIP3    H149668   4.460   6.050   0.130
 8491TIP3    H249669   4.496   6.026  -0.015
 8492TIP3   OH249670   3.770   6.064   0.795
 8492TIP3    H149671   3.838   6.065   0.863
 8492TIP3    H249672   3.795   6.134   0.735
 8493TIP3   OH249673   3.862   6.124   0.279
 8493TIP3    H149674   3.939   6.164   0.238
 8493TIP3    H249675   3.802   6.196   0.295
 8494TIP3   OH249676   4.970   6.439   1.251
 8494TIP3    H149677   4.992   6.388   1.173
 8494TIP3    H249678   4.899   6.389   1.292
 8495TIP3   OH249679   4.635   5.998   0.754
 8495TIP3    H149680   4.542   5.997   0.777
 8495TIP3    H249681   4.680   5.975   0.835
 8496TIP3   OH249682   4.064   6.161   0.652
 8496TIP3    H149683   3.982   6.178   0.605
 8496TIP3    H249684   4.087   6.071   0.628
 8497TIP3   OH249685   4.404   6.196   0.464
 8497TIP3    H149686   4.500   6.202   0.469
 8497TIP3    H249687   4.381   6.257   0.394
 8498TIP3   OH249688   4.978   6.021   1.080
 8498TIP3    H149689   4.952   6.017   1.172
 8498TIP3    H249690   4.910   5.973   1.033
 8499TIP3   OH249691   4.292   6.344   0.263
 8499TIP3    H149692   4.215   6.310   0.218
 8499TIP3    H249693   4.360   6.350   0.195
 8500TIP3   OH249694   5.389   7.519   1.743
 8500TIP3    H149695   5.397   7.548   1.653
 8500TIP3    H249696   5.474   7.536   1.782
 8501TIP3   OH249697   4.134   6.659   1.745
 8501TIP3    H149698   4.209   6.690   1.797
 8501TIP3    H249699   4.060   6.709   1.779
 8502TIP3   OH249700   4.696   6.339   0.929
 8502TIP3    H149701   4.761   6.293   0.876
 8502TIP3    H249702   4.676   6.278   1.000
 8503TIP3   OH249703   4.166   5.904   0.608
 8503TIP3    H149704   4.112   5.836   0.649
 8503TIP3    H249705   4.185   5.870   0.521
 8504TIP3   OH249706   4.621   6.204   1.157
 8504TIP3    H149707   4.534   6.244   1.166
 8504TIP3    H249708   4.671   6.240   1.230
 8505TIP3   OH249709   4.704   6.746   0.373
 8505TIP3    H149710   4.645   6.702   0.312
 8505TIP3    H249711   4.646   6.789   0.435
 8506TIP3   OH249712   5.376   6.743   1.182
 8506TIP3    H149713   5.451   6.789   1.146
 8506TIP3    H249714   5.317   6.732   1.108
 8507TIP3   OH249715   4.978   6.053   0.361
 8507TIP3    H149716   4.925   6.060   0.282
 8507TIP3    H249717   5.030   6.133   0.363
 8508TIP3   OH249718   4.819   6.819   1.461
 8508TIP3    H149719   4.898   6.793   1.507
 8508TIP3    H249720   4.792   6.901   1.503
 8509TIP3   OH249721   5.115   6.288   0.403
 8509TIP3    H149722   5.197   6.259   0.443
 8509TIP3    H249723   5.134   6.377   0.372
 8510TIP3   OH249724   4.184   6.710   0.875
 8510TIP3    H149725   4.244   6.702   0.801
 8510TIP3    H249726   4.223   6.658   0.945
 8511TIP3   OH249727   4.915   6.924   0.341
 8511TIP3    H149728   4.873   7.005   0.315
 8511TIP3    H249729   4.845   6.859   0.343
 8512TIP3   OH249730   3.875   6.542   1.453
 8512TIP3    H149731   3.841   6.493   1.528
 8512TIP3    H249732   3.806   6.534   1.386
 8513TIP3   OH249733   4.623   6.501   1.707
 8513TIP3    H149734   4.553   6.480   1.646
 8513TIP3    H249735   4.700   6.455   1.673
 8514TIP3   OH249736   5.009   7.090   1.517
 8514TIP3    H149737   4.916   7.097   1.494
 8514TIP3    H249738   5.011   7.101   1.612
 8515TIP3   OH249739   5.540   6.305   0.361
 8515TIP3    H149740   5.476   6.269   0.300
 8515TIP3    H249741   5.550   6.397   0.334
 8516TIP3   OH249742   5.561   6.833   1.611
 8516TIP3    H149743   5.480   6.843   1.561
 8516TIP3    H249744   5.630   6.835   1.545
 8517TIP3   OH249745   5.491   7.162   0.486
 8517TIP3    H149746   5.426   7.111   0.534
 8517TIP3    H249747   5.480   7.136   0.394
 8518TIP3   OH249748   5.206   6.690   0.959
 8518TIP3    H149749   5.138   6.699   0.892
 8518TIP3    H249750   5.223   6.596   0.963
 8519TIP3   OH249751   4.406   7.046   0.705
 8519TIP3    H149752   4.424   7.135   0.675
 8519TIP3    H249753   4.314   7.032   0.686
 8520TIP3   OH249754   3.940   6.504   0.216
 8520TIP3    H149755   3.986   6.573   0.264
 8520TIP3    H249756   3.848   6.527   0.223
 8521TIP3   OH249757   4.512   6.850   0.542
 8521TIP3    H149758   4.502   6.924   0.602
 8521TIP3    H249759   4.467   6.778   0.585
 8522TIP3   OH249760   4.608   7.268   1.320
 8522TIP3    H149761   4.622   7.360   1.342
 8522TIP3    H249762   4.678   7.222   1.365
 8523TIP3   OH249763   4.422   7.305   0.616
 8523TIP3    H149764   4.332   7.330   0.637
 8523TIP3    H249765   4.477   7.367   0.664
 8524TIP3   OH249766   4.908   6.885   1.206
 8524TIP3    H149767   4.875   6.864   1.294
 8524TIP3    H249768   4.967   6.813   1.185
 8525TIP3   OH249769   5.172   6.931   0.236
 8525TIP3    H149770   5.227   6.904   0.309
 8525TIP3    H249771   5.083   6.925   0.269
 8526TIP3   OH249772   5.201   7.283   1.483
 8526TIP3    H149773   5.128   7.223   1.476
 8526TIP3    H249774   5.185   7.349   1.416
 8527TIP3   OH249775   5.667   7.375   0.221
 8527TIP3    H149776   5.744   7.431   0.229
 8527TIP3    H249777   5.593   7.434   0.233
 8528TIP3   OH249778   4.092   6.025   1.461
 8528TIP3    H149779   4.009   6.061   1.493
 8528TIP3    H249780   4.105   5.946   1.513
 8529TIP3   OH249781   5.365   6.815   0.401
 8529TIP3    H149782   5.324   6.767   0.473
 8529TIP3    H249783   5.458   6.817   0.422
 8530TIP3   OH249784   4.019   7.192   1.303
 8530TIP3    H149785   4.043   7.118   1.359
 8530TIP3    H249786   4.026   7.269   1.359
 8531TIP3   OH249787   4.370   7.005   0.354
 8531TIP3    H149788   4.422   6.946   0.407
 8531TIP3    H249789   4.423   7.085   0.346
 8532TIP3   OH249790   4.074   6.709   0.350
 8532TIP3    H149791   4.027   6.764   0.413
 8532TIP3    H249792   4.112   6.771   0.288
 8533TIP3   OH249793   4.902   6.019   1.344
 8533TIP3    H149794   4.975   6.036   1.404
 8533TIP3    H249795   4.865   5.936   1.374
 8534TIP3   OH249796   5.012   5.896   0.578
 8534TIP3    H149797   4.994   5.945   0.498
 8534TIP3    H249798   5.053   5.959   0.637
 8535TIP3   OH249799   4.771   7.147   0.276
 8535TIP3    H149800   4.683   7.163   0.310
 8535TIP3    H249801   4.794   7.227   0.229
 8536TIP3   OH249802   4.668   6.161   0.527
 8536TIP3    H149803   4.741   6.223   0.529
 8536TIP3    H249804   4.668   6.121   0.614
 8537TIP3   OH249805   4.787   6.270   1.368
 8537TIP3    H149806   4.793   6.294   1.460
 8537TIP3    H249807   4.821   6.180   1.364
 8538TIP3   OH249808   4.752   5.799   0.597
 8538TIP3    H149809   4.713   5.867   0.652
 8538TIP3    H249810   4.846   5.815   0.603
 8539TIP3   OH249811   4.521   7.239   0.369
 8539TIP3    H149812   4.557   7.325   0.345
 8539TIP3    H249813   4.485   7.252   0.457
 8540TIP3   OH249814   4.392   5.984   0.287
 8540TIP3    H149815   4.375   6.051   0.353
 8540TIP3    H249816   4.473   5.943   0.316
 8541TIP3   OH249817   5.348   6.027   1.477
 8541TIP3    H149818   5.253   6.038   1.486
 8541TIP3    H249819   5.359   5.994   1.388
 8542TIP3   OH249820   5.247   6.414   0.957
 8542TIP3    H149821   5.161   6.381   0.980
 8542TIP3    H249822   5.308   6.353   0.999
 8543TIP3   OH249823   4.171   6.913   0.191
 8543TIP3    H149824   4.231   6.958   0.251
 8543TIP3    H249825   4.228   6.872   0.126
 8544TIP3   OH249826   4.054   6.274   0.136
 8544TIP3    H149827   4.016   6.357   0.164
 8544TIP3    H249828   4.043   6.274   0.041
 8545TIP3   OH249829   5.363   7.392   1.090
 8545TIP3    H149830   5.340   7.453   1.019
 8545TIP3    H249831   5.457   7.406   1.104
 8546TIP3   OH249832   4.070   5.765   0.972
 8546TIP3    H149833   4.058   5.746   0.879
 8546TIP3    H249834   4.038   5.686   1.017
 8547TIP3   OH249835   4.005   7.132   0.647
 8547TIP3    H149836   3.944   7.152   0.718
 8547TIP3    H249837   3.970   7.179   0.571
 8548TIP3   OH249838   3.943   7.402   1.705
 8548TIP3    H149839   3.982   7.389   1.792
 8548TIP3    H249840   3.880   7.330   1.696
 8549TIP3   OH249841   4.304   7.221   1.928
 8549TIP3    H149842   4.367   7.174   1.982
 8549TIP3    H249843   4.321   7.192   1.839
 8550TIP3   OH249844   4.814   7.161   9.892
 8550TIP3    H149845   4.828   7.068   9.876
 8550TIP3    H249846   4.843   7.174   9.983
 8551TIP3   OH249847   5.010   7.102   1.787
 8551TIP3    H149848   4.981   7.012   1.797
 8551TIP3    H249849   5.087   7.109   1.843
 8552TIP3   OH249850   5.271   7.187   0.217
 8552TIP3    H149851   5.232   7.100   0.211
 8552TIP3    H249852   5.364   7.173   0.203
 8553TIP3   OH249853   3.903   6.786   1.841
 8553TIP3    H149854   3.837   6.722   1.869
 8553TIP3    H249855   3.860   6.836   1.771
 8554TIP3   OH249856   4.369   6.783   0.052
 8554TIP3    H149857   4.414   6.731   0.118
 8554TIP3    H249858   4.433   6.795  -0.017
 8555TIP3   OH249859   4.569   6.773   1.746
 8555TIP3    H149860   4.560   6.814   1.660
 8555TIP3    H249861   4.603   6.686   1.728
 8556TIP3   OH249862   5.106   6.827   1.532
 8556TIP3    H149863   5.195   6.832   1.497
 8556TIP3    H249864   5.074   6.917   1.530
 8557TIP3   OH249865   4.005   6.412   1.794
 8557TIP3    H149866   4.063   6.477   1.755
 8557TIP3    H249867   3.985   6.447   1.881
 8558TIP3   OH249868   4.494   6.617   0.237
 8558TIP3    H149869   4.433   6.602   0.309
 8558TIP3    H249870   4.505   6.531   0.197
 8559TIP3   OH249871   4.430   6.449   1.506
 8559TIP3    H149872   4.340   6.482   1.503
 8559TIP3    H249873   4.482   6.520   1.467
 8560TIP3   OH249874   4.528   6.359   0.122
 8560TIP3    H149875   4.523   6.271   0.083
 8560TIP3    H249876   4.621   6.372   0.142
 8561TIP3   OH249877   4.981   6.595   1.876
 8561TIP3    H149878   5.031   6.543   1.813
 8561TIP3    H249879   4.939   6.531   1.933
 8562TIP3   OH249880   5.488   6.571   9.899
 8562TIP3    H149881   5.540   6.652   9.909
 8562TIP3    H249882   5.397   6.600   9.903
 8563TIP3   OH249883   4.464   6.183   1.573
 8563TIP3    H149884   4.474   6.129   1.494
 8563TIP3    H249885   4.458   6.273   1.540
 8564TIP3   OH249886   4.492   6.028   1.340
 8564TIP3    H149887   4.548   6.065   1.271
 8564TIP3    H249888   4.407   6.017   1.298
 8565TIP3   OH249889   4.585   6.657   1.419
 8565TIP3    H149890   4.667   6.705   1.429
 8565TIP3    H249891   4.546   6.691   1.338
 8566TIP3   OH249892   5.043   6.315   1.822
 8566TIP3    H149893   5.017   6.224   1.808
 8566TIP3    H249894   5.132   6.310   1.855
 8567TIP3   OH249895   5.177   6.579   1.647
 8567TIP3    H149896   5.144   6.666   1.622
 8567TIP3    H249897   5.262   6.597   1.688
 8568TIP3   OH249898   4.297   6.208   1.796
 8568TIP3    H149899   4.212   6.168   1.778
 8568TIP3    H249900   4.345   6.204   1.713
 8569TIP3   OH249901   4.525   5.773   1.443
 8569TIP3    H149902   4.512   5.863   1.414
 8569TIP3    H249903   4.461   5.722   1.394
 8570TIP3   OH249904   4.675   6.120   1.748
 8570TIP3    H149905   4.629   6.093   1.828
 8570TIP3    H249906   4.605   6.134   1.684
 8571TIP3   OH249907   4.957   6.067   1.756
 8571TIP3    H149908   4.862   6.056   1.767
 8571TIP3    H249909   4.995   6.003   1.816
 8572TIP3   OH249910   5.109   5.909   1.926
 8572TIP3    H149911   5.105   5.819   1.894
 8572TIP3    H249912   5.081   5.903   2.018
 8573TIP3   OH249913   4.066   6.044   1.785
 8573TIP3    H149914   4.081   5.962   1.738
 8573TIP3    H249915   4.077   6.020   1.877
 8574TIP3   OH249916   4.519   5.666   1.694
 8574TIP3    H149917   4.571   5.586   1.688
 8574TIP3    H249918   4.520   5.702   1.605
 8575TIP3   OH249919   4.614   5.811   1.905
 8575TIP3    H149920   4.587   5.760   1.829
 8575TIP3    H249921   4.556   5.887   1.904
 8576TIP3   OH249922   4.652   7.478   0.331
 8576TIP3    H149923   4.719   7.456   0.266
 8576TIP3    H249924   4.634   7.571   0.317
 8577TIP3   OH249925   3.899   6.965   0.204
 8577TIP3    H149926   3.994   6.969   0.195
 8577TIP3    H249927   3.872   6.893   0.147
 8578TIP3   OH249928   3.834   7.450   0.738
 8578TIP3    H149929   3.769   7.441   0.668
 8578TIP3    H249930   3.832   7.365   0.783
 8579TIP3   OH249931   3.864   7.210   0.876
 8579TIP3    H149932   3.847   7.125   0.917
 8579TIP3    H249933   3.903   7.263   0.946
 8580TIP3   OH249934   5.627   7.453   1.139
 8580TIP3    H149935   5.652   7.512   1.210
 8580TIP3    H249936   5.708   7.405   1.118
 8581TIP3   OH249937   5.560   7.309   1.450
 8581TIP3    H149938   5.520   7.249   1.388
 8581TIP3    H249939   5.589   7.254   1.522
 8582TIP3   OH249940   5.391   6.925   1.967
 8582TIP3    H149941   5.322   6.991   1.960
 8582TIP3    H249942   5.472   6.975   1.966
 8583TIP3   OH249943   5.622   6.737   0.466
 8583TIP3    H149944   5.695   6.798   0.479
 8583TIP3    H249945   5.633   6.672   0.534
 8584TIP3   OH249946   5.644   6.539   0.657
 8584TIP3    H149947   5.560   6.514   0.695
 8584TIP3    H249948   5.699   6.559   0.733
 8585TIP3   OH249949   5.642   6.826   1.147
 8585TIP3    H149950   5.680   6.744   1.114
 8585TIP3    H249951   5.703   6.894   1.117
 8586TIP3   OH249952   5.384   7.121   1.339
 8586TIP3    H149953   5.319   7.176   1.384
 8586TIP3    H249954   5.354   7.119   1.248
 8587TIP3   OH249955   5.557   6.563   0.264
 8587TIP3    H149956   5.481   6.595   0.215
 8587TIP3    H249957   5.572   6.629   0.332
 8588TIP3   OH249958   5.352   6.211   0.192
 8588TIP3    H149959   5.285   6.248   0.134
 8588TIP3    H249960   5.354   6.118   0.171
 8589TIP3   OH249961   5.391   6.438   0.722
 8589TIP3    H149962   5.378   6.354   0.679
 8589TIP3    H249963   5.344   6.431   0.804
 8590TIP3   OH249964   3.867   6.620   1.096
 8590TIP3    H149965   3.876   6.609   1.001
 8590TIP3    H249966   3.940   6.571   1.133
 8591TIP3   OH249967   5.443   6.611   1.740
 8591TIP3    H149968   5.502   6.539   1.719
 8591TIP3    H249969   5.484   6.688   1.700
 8592TIP3   OH249970   5.601   6.390   1.681
 8592TIP3    H149971   5.522   6.339   1.663
 8592TIP3    H249972   5.664   6.327   1.716
 8593TIP3   OH249973   5.362   5.949   0.118
 8593TIP3    H149974   5.452   5.921   0.130
 8593TIP3    H249975   5.313   5.869   0.101
 8594TIP3   OH249976   5.352   6.210   0.552
 8594TIP3    H149977   5.376   6.117   0.551
 8594TIP3    H249978   5.416   6.251   0.493
 8595TIP3   OH249979   5.400   6.216   1.071
 8595TIP3    H149980   5.490   6.229   1.043
 8595TIP3    H249981   5.401   6.236   1.165
 8596TIP3   OH249982   5.410   6.311   1.329
 8596TIP3    H149983   5.324   6.332   1.367
 8596TIP3    H249984   5.455   6.396   1.324
 8597TIP3   OH249985   3.875   6.137   1.603
 8597TIP3    H149986   3.938   6.134   1.675
 8597TIP3    H249987   3.821   6.059   1.615
 8598TIP3   OH249988   5.643   5.758   1.808
 8598TIP3    H149989   5.698   5.680   1.800
 8598TIP3    H249990   5.671   5.815   1.736
 8599TIP3   OH249991   5.421   5.945   0.546
 8599TIP3    H149992   5.459   5.900   0.622
 8599TIP3    H249993   5.357   5.883   0.512
 8600TIP3   OH249994   3.949   6.012   1.009
 8600TIP3    H149995   3.982   5.922   1.000
 8600TIP3    H249996   4.028   6.066   1.011
 8601TIP3   OH249997   3.825   6.310   1.087
 8601TIP3    H149998   3.867   6.295   1.002
 8601TIP3    H249999   3.892   6.354   1.139
 8602TIP3   OH250000   5.545   6.021   1.666
 8602TIP3    H150001   5.493   6.016   1.747
 8602TIP3    H250002   5.482   6.000   1.596
 8603TIP3   OH250003   5.620   5.887   0.193
 8603TIP3    H150004   5.692   5.827   0.214
 8603TIP3    H250005   5.655   5.974   0.211
 8604TIP3   OH250006   3.831   5.934   0.481
 8604TIP3    H150007   3.742   5.949   0.513
 8604TIP3    H250008   3.848   6.007   0.421
 8605TIP3   OH250009   5.315   7.461   0.671
 8605TIP3    H150010   5.404   7.459   0.637
 8605TIP3    H250011   5.321   7.509   0.753
 8606TIP3   OH250012   3.862   5.768   1.335
 8606TIP3    H150013   3.788   5.747   1.392
 8606TIP3    H250014   3.827   5.833   1.274
 8607TIP3   OH250015   4.035   7.089   1.719
 8607TIP3    H150016   3.954   7.134   1.698
 8607TIP3    H250017   4.028   7.069   1.812
 8608TIP3   OH250018   4.352   7.225   1.406
 8608TIP3    H150019   4.315   7.310   1.382
 8608TIP3    H250020   4.444   7.231   1.382
 8609TIP3   OH250021   4.733   7.361   1.629
 8609TIP3    H150022   4.734   7.324   1.717
 8609TIP3    H250023   4.821   7.395   1.616
 8610TIP3   OH250024   4.993   7.457   1.623
 8610TIP3    H150025   5.064   7.401   1.593
 8610TIP3    H250026   5.025   7.494   1.705
 8611TIP3   OH250027   5.497   5.684   1.467
 8611TIP3    H150028   5.418   5.687   1.414
 8611TIP3    H250029   5.534   5.598   1.449
 8612TIP3   OH250030   4.033   7.430   1.443
 8612TIP3    H150031   3.965   7.488   1.411
 8612TIP3    H250032   4.017   7.423   1.537
 8613TIP3   OH250033   4.281   7.481   1.331
 8613TIP3    H150034   4.194   7.476   1.371
 8613TIP3    H250035   4.265   7.512   1.242
 8614TIP3   OH250036   4.776   7.508   1.183
 8614TIP3    H150037   4.692   7.519   1.138
 8614TIP3    H250038   4.770   7.564   1.261
 8615TIP3   OH250039   4.969   7.345   1.286
 8615TIP3    H150040   4.896   7.393   1.247
 8615TIP3    H250041   5.041   7.409   1.287
 8616TIP3   OH250042   5.210   7.494   1.293
 8616TIP3    H150043   5.188   7.582   1.263
 8616TIP3    H250044   5.261   7.456   1.222
 8617TIP3   OH250045   3.996   7.350   1.081
 8617TIP3    H150046   3.994   7.301   1.163
 8617TIP3    H250047   4.079   7.326   1.040
 8618TIP3   OH250048   4.223   7.249   0.968
 8618TIP3    H150049   4.209   7.154   0.968
 8618TIP3    H250050   4.309   7.261   1.007
 8619TIP3   OH250051   4.480   7.245   1.077
 8619TIP3    H150052   4.489   7.156   1.043
 8619TIP3    H250053   4.527   7.244   1.160
 8620TIP3   OH250054   4.774   5.866   0.958
 8620TIP3    H150055   4.710   5.805   0.994
 8620TIP3    H250056   4.837   5.812   0.911
 8621TIP3   OH250057   5.337   5.760   0.898
 8621TIP3    H150058   5.416   5.788   0.851
 8621TIP3    H250059   5.293   5.841   0.923
 8622TIP3   OH250060   5.554   5.825   0.752
 8622TIP3    H150061   5.619   5.755   0.742
 8622TIP3    H250062   5.605   5.904   0.766
 8623TIP3   OH250063   4.027   5.689   0.712
 8623TIP3    H150064   3.936   5.662   0.707
 8623TIP3    H250065   4.077   5.608   0.701
 8624TIP3   OH250066   3.937   5.727   0.335
 8624TIP3    H150067   4.031   5.744   0.332
 8624TIP3    H250068   3.904   5.789   0.399
 8625TIP3   OH250069   4.579   5.630   0.746
 8625TIP3    H150070   4.646   5.678   0.698
 8625TIP3    H250071   4.598   5.648   0.838
 8626TIP3   OH250072   4.941   5.701   0.824
 8626TIP3    H150073   5.013   5.709   0.761
 8626TIP3    H250074   4.940   5.608   0.846
 8627TIP3   OH250075   5.230   5.758   0.471
 8627TIP3    H150076   5.151   5.806   0.496
 8627TIP3    H250077   5.204   5.666   0.476
 8628TIP3   OH250078   3.927   7.261   0.424
 8628TIP3    H150079   3.847   7.256   0.372
 8628TIP3    H250080   3.973   7.338   0.389
 8629TIP3   OH250081   4.206   5.789   0.352
 8629TIP3    H150082   4.260   5.711   0.339
 8629TIP3    H250083   4.257   5.860   0.313
 8630TIP3   OH250084   4.652   5.933   0.379
 8630TIP3    H150085   4.684   5.870   0.444
 8630TIP3    H250086   4.656   6.017   0.424
 8631TIP3   OH250087   4.844   7.395   0.154
 8631TIP3    H150088   4.929   7.394   0.198
 8631TIP3    H250089   4.865   7.398   0.061
 8632TIP3   OH250090   5.550   7.426   0.538
 8632TIP3    H150091   5.528   7.335   0.518
 8632TIP3    H250092   5.538   7.472   0.455
 8633TIP3   OH250093   4.112   5.803   1.644
 8633TIP3    H150094   4.054   5.736   1.679
 8633TIP3    H250095   4.194   5.791   1.692
 8634TIP3   OH250096   4.292   5.725   1.836
 8634TIP3    H150097   4.374   5.699   1.794
 8634TIP3    H250098   4.263   5.647   1.883
 8635TIP3   OH250099   4.256   7.575   0.246
 8635TIP3    H150100   4.166   7.546   0.261
 8635TIP3    H250101   4.307   7.494   0.240
 8636TIP3   OH250102   5.136   5.659   1.813
 8636TIP3    H150103   5.142   5.608   1.894
 8636TIP3    H250104   5.224   5.659   1.777
 8637TIP3   OH250105   5.355   7.248   1.716
 8637TIP3    H150106   5.304   7.248   1.635
 8637TIP3    H250107   5.373   7.341   1.733
 8638TIP3   OH250108   6.900   6.693   0.555
 8638TIP3    H150109   6.862   6.779   0.572
 8638TIP3    H250110   6.829   6.643   0.514
 8639TIP3   OH250111   6.748   6.598   1.030
 8639TIP3    H150112   6.766   6.564   1.118
 8639TIP3    H250113   6.697   6.529   0.987
 8640TIP3   OH250114   5.952   6.501   1.252
 8640TIP3    H150115   5.973   6.411   1.277
 8640TIP3    H250116   5.982   6.554   1.326
 8641TIP3   OH250117   7.109   6.908   0.871
 8641TIP3    H150118   7.077   6.824   0.904
 8641TIP3    H250119   7.109   6.966   0.948
 8642TIP3   OH250120   6.103   6.970   0.978
 8642TIP3    H150121   6.082   6.887   0.936
 8642TIP3    H250122   6.196   6.965   0.998
 8643TIP3   OH250123   5.709   6.276   0.586
 8643TIP3    H150124   5.701   6.367   0.613
 8643TIP3    H250125   5.654   6.269   0.507
 8644TIP3   OH250126   5.837   6.574   0.853
 8644TIP3    H150127   5.874   6.485   0.859
 8644TIP3    H250128   5.914   6.631   0.847
 8645TIP3   OH250129   6.774   7.358   1.021
 8645TIP3    H150130   6.794   7.275   1.062
 8645TIP3    H250131   6.729   7.409   1.089
 8646TIP3   OH250132   6.605   6.839   1.059
 8646TIP3    H150133   6.651   6.760   1.029
 8646TIP3    H250134   6.659   6.872   1.131
 8647TIP3   OH250135   7.379   5.999   1.168
 8647TIP3    H150136   7.378   6.040   1.254
 8647TIP3    H250137   7.418   6.065   1.110
 8648TIP3   OH250138   6.866   6.258   1.083
 8648TIP3    H150139   6.879   6.166   1.106
 8648TIP3    H250140   6.864   6.259   0.987
 8649TIP3   OH250141   6.264   6.021   0.797
 8649TIP3    H150142   6.264   6.107   0.754
 8649TIP3    H250143   6.209   5.966   0.742
 8650TIP3   OH250144   7.027   6.101   0.680
 8650TIP3    H150145   7.059   6.079   0.767
 8650TIP3    H250146   7.105   6.135   0.634
 8651TIP3   OH250147   5.906   6.308   0.888
 8651TIP3    H150148   5.972   6.266   0.943
 8651TIP3    H250149   5.919   6.270   0.801
 8652TIP3   OH250150   6.374   6.457   0.812
 8652TIP3    H150151   6.458   6.424   0.844
 8652TIP3    H250152   6.333   6.381   0.771
 8653TIP3   OH250153   7.380   6.123   1.408
 8653TIP3    H150154   7.338   6.209   1.405
 8653TIP3    H250155   7.452   6.134   1.470
 8654TIP3   OH250156   6.112   5.984   1.225
 8654TIP3    H150157   6.091   6.040   1.150
 8654TIP3    H250158   6.037   5.994   1.284
 8655TIP3   OH250159   6.819   6.955   0.537
 8655TIP3    H150160   6.805   6.952   0.442
 8655TIP3    H250161   6.763   7.026   0.567
 8656TIP3   OH250162   6.367   6.753   1.174
 8656TIP3    H150163   6.321   6.826   1.216
 8656TIP3    H250164   6.444   6.794   1.134
 8657TIP3   OH250165   7.083   6.078   0.942
 8657TIP3    H150166   7.024   6.036   1.004
 8657TIP3    H250167   7.134   6.139   0.995
 8658TIP3   OH250168   6.104   6.137   0.994
 8658TIP3    H150169   6.160   6.201   1.039
 8658TIP3    H250170   6.163   6.093   0.933
 8659TIP3   OH250171   6.231   6.951   1.317
 8659TIP3    H150172   6.231   7.046   1.315
 8659TIP3    H250173   6.144   6.927   1.347
 8660TIP3   OH250174   5.836   6.912   0.481
 8660TIP3    H150175   5.810   6.971   0.411
 8660TIP3    H250176   5.871   6.969   0.549
 8661TIP3   OH250177   7.095   7.087   1.081
 8661TIP3    H150178   7.005   7.107   1.107
 8661TIP3    H250179   7.135   7.173   1.066
 8662TIP3   OH250180   7.148   5.838   1.166
 8662TIP3    H150181   7.069   5.893   1.161
 8662TIP3    H250182   7.220   5.901   1.169
 8663TIP3   OH250183   6.476   5.670   1.033
 8663TIP3    H150184   6.458   5.576   1.032
 8663TIP3    H250185   6.392   5.710   1.052
 8664TIP3   OH250186   6.967   7.282   0.654
 8664TIP3    H150187   6.998   7.192   0.652
 8664TIP3    H250188   7.046   7.335   0.668
 8665TIP3   OH250189   7.069   7.027   0.632
 8665TIP3    H150190   6.988   6.987   0.601
 8665TIP3    H250191   7.087   6.982   0.715
 8666TIP3   OH250192   7.231   6.836   1.385
 8666TIP3    H150193   7.235   6.778   1.310
 8666TIP3    H250194   7.254   6.922   1.350
 8667TIP3   OH250195   6.702   6.566   0.410
 8667TIP3    H150196   6.653   6.644   0.384
 8667TIP3    H250197   6.700   6.509   0.333
 8668TIP3   OH250198   6.724   6.382   0.203
 8668TIP3    H150199   6.817   6.403   0.189
 8668TIP3    H250200   6.722   6.286   0.203
 8669TIP3   OH250201   7.459   6.526   1.190
 8669TIP3    H150202   7.374   6.570   1.180
 8669TIP3    H250203   7.515   6.568   1.125
 8670TIP3   OH250204   7.153   6.647   0.477
 8670TIP3    H150205   7.067   6.666   0.516
 8670TIP3    H250206   7.193   6.585   0.537
 8671TIP3   OH250207   6.978   6.394   1.474
 8671TIP3    H150208   6.978   6.463   1.541
 8671TIP3    H250209   6.920   6.427   1.405
 8672TIP3   OH250210   6.253   6.651   0.658
 8672TIP3    H150211   6.226   6.607   0.578
 8672TIP3    H250212   6.302   6.584   0.707
 8673TIP3   OH250213   6.388   6.991   0.970
 8673TIP3    H150214   6.379   6.993   0.875
 8673TIP3    H250215   6.468   6.942   0.986
 8674TIP3   OH250216   6.235   6.564   1.026
 8674TIP3    H150217   6.296   6.535   0.958
 8674TIP3    H250218   6.285   6.627   1.078
 8675TIP3   OH250219   6.844   7.142   1.187
 8675TIP3    H150220   6.862   7.195   1.265
 8675TIP3    H250221   6.806   7.061   1.222
 8676TIP3   OH250222   6.378   6.968   1.556
 8676TIP3    H150223   6.310   7.018   1.601
 8676TIP3    H250224   6.340   6.947   1.471
 8677TIP3   OH250225   7.040   6.509   0.260
 8677TIP3    H150226   7.071   6.557   0.336
 8677TIP3    H250227   7.088   6.548   0.186
 8678TIP3   OH250228   6.015   6.587   1.512
 8678TIP3    H150229   6.032   6.663   1.568
 8678TIP3    H250230   5.922   6.569   1.524
 8679TIP3   OH250231   6.708   7.205   0.577
 8679TIP3    H150232   6.786   7.227   0.628
 8679TIP3    H250233   6.653   7.284   0.582
 8680TIP3   OH250234   6.152   7.138   1.620
 8680TIP3    H150235   6.172   7.172   1.533
 8680TIP3    H250236   6.057   7.139   1.626
 8681TIP3   OH250237   7.369   5.711   0.350
 8681TIP3    H150238   7.278   5.737   0.362
 8681TIP3    H250239   7.410   5.785   0.307
 8682TIP3   OH250240   6.177   6.557   0.411
 8682TIP3    H150241   6.096   6.604   0.391
 8682TIP3    H250242   6.168   6.472   0.368
 8683TIP3   OH250243   7.493   7.090   0.219
 8683TIP3    H150244   7.507   7.184   0.207
 8683TIP3    H250245   7.580   7.051   0.212
 8684TIP3   OH250246   5.744   6.814   1.408
 8684TIP3    H150247   5.702   6.819   1.322
 8684TIP3    H250248   5.749   6.720   1.426
 8685TIP3   OH250249   5.843   7.008   1.089
 8685TIP3    H150250   5.931   6.991   1.054
 8685TIP3    H250251   5.859   7.061   1.167
 8686TIP3   OH250252   7.462   7.150   1.675
 8686TIP3    H150253   7.449   7.060   1.645
 8686TIP3    H250254   7.374   7.184   1.687
 8687TIP3   OH250255   6.604   7.138   1.521
 8687TIP3    H150256   6.611   7.207   1.586
 8687TIP3    H250257   6.531   7.084   1.551
 8688TIP3   OH250258   6.607   7.459   0.533
 8688TIP3    H150259   6.565   7.489   0.453
 8688TIP3    H250260   6.549   7.487   0.603
 8689TIP3   OH250261   6.068   7.341   0.709
 8689TIP3    H150262   6.080   7.328   0.803
 8689TIP3    H250263   6.013   7.268   0.682
 8690TIP3   OH250264   6.920   7.293   0.229
 8690TIP3    H150265   6.835   7.249   0.222
 8690TIP3    H250266   6.908   7.355   0.301
 8691TIP3   OH250267   6.869   7.445   0.453
 8691TIP3    H150268   6.778   7.465   0.476
 8691TIP3    H250269   6.898   7.383   0.520
 8692TIP3   OH250270   7.239   6.249   1.667
 8692TIP3    H150271   7.214   6.284   1.752
 8692TIP3    H250272   7.165   6.194   1.641
 8693TIP3   OH250273   5.985   6.941   1.443
 8693TIP3    H150274   6.014   6.908   1.528
 8693TIP3    H250275   5.900   6.900   1.429
 8694TIP3   OH250276   6.219   5.766   1.093
 8694TIP3    H150277   6.145   5.751   1.034
 8694TIP3    H250278   6.194   5.845   1.142
 8695TIP3   OH250279   6.685   5.810   1.459
 8695TIP3    H150280   6.725   5.747   1.519
 8695TIP3    H250281   6.591   5.801   1.474
 8696TIP3   OH250282   7.007   6.130   1.549
 8696TIP3    H150283   6.944   6.121   1.621
 8696TIP3    H250284   6.998   6.220   1.520
 8697TIP3   OH250285   7.200   6.681   0.107
 8697TIP3    H150286   7.166   6.737   0.038
 8697TIP3    H250287   7.229   6.742   0.175
 8698TIP3   OH250288   6.676   6.108   0.188
 8698TIP3    H150289   6.649   6.051   0.260
 8698TIP3    H250290   6.606   6.100   0.123
 8699TIP3   OH250291   6.230   6.320   1.154
 8699TIP3    H150292   6.170   6.313   1.229
 8699TIP3    H250293   6.218   6.409   1.122
 8700TIP3   OH250294   6.224   6.264   0.676
 8700TIP3    H150295   6.129   6.256   0.675
 8700TIP3    H250296   6.252   6.231   0.591
 8701TIP3   OH250297   6.772   6.342   0.556
 8701TIP3    H150298   6.744   6.425   0.518
 8701TIP3    H250299   6.847   6.316   0.503
 8702TIP3   OH250300   6.652   6.351   1.645
 8702TIP3    H150301   6.620   6.268   1.682
 8702TIP3    H250302   6.732   6.369   1.694
 8703TIP3   OH250303   6.849   6.270   0.808
 8703TIP3    H150304   6.814   6.312   0.730
 8703TIP3    H250305   6.901   6.197   0.775
 8704TIP3   OH250306   6.050   6.266   1.359
 8704TIP3    H150307   6.095   6.287   1.441
 8704TIP3    H250308   5.998   6.188   1.379
 8705TIP3   OH250309   6.426   6.088   0.064
 8705TIP3    H150310   6.385   6.032   0.130
 8705TIP3    H250311   6.397   6.052  -0.020
 8706TIP3   OH250312   5.672   6.065   0.783
 8706TIP3    H150313   5.740   6.065   0.850
 8706TIP3    H250314   5.692   6.141   0.727
 8707TIP3   OH250315   5.740   6.125   0.277
 8707TIP3    H150316   5.819   6.165   0.239
 8707TIP3    H250317   5.682   6.199   0.295
 8708TIP3   OH250318   6.801   6.451   1.261
 8708TIP3    H150319   6.835   6.386   1.200
 8708TIP3    H250320   6.728   6.407   1.304
 8709TIP3   OH250321   6.549   6.009   0.789
 8709TIP3    H150322   6.455   6.004   0.809
 8709TIP3    H250323   6.592   5.977   0.868
 8710TIP3   OH250324   5.962   6.180   0.653
 8710TIP3    H150325   5.880   6.196   0.607
 8710TIP3    H250326   5.984   6.089   0.633
 8711TIP3   OH250327   6.307   6.162   0.435
 8711TIP3    H150328   6.396   6.185   0.460
 8711TIP3    H250329   6.279   6.232   0.376
 8712TIP3   OH250330   6.896   5.981   1.125
 8712TIP3    H150331   6.859   5.996   1.212
 8712TIP3    H250332   6.827   5.935   1.077
 8713TIP3   OH250333   6.190   6.333   0.255
 8713TIP3    H150334   6.111   6.302   0.210
 8713TIP3    H250335   6.256   6.341   0.186
 8714TIP3   OH250336   7.318   7.553   1.709
 8714TIP3    H150337   7.329   7.556   1.614
 8714TIP3    H250338   7.408   7.548   1.743
 8715TIP3   OH250339   6.045   6.806   1.682
 8715TIP3    H150340   6.103   6.795   1.757
 8715TIP3    H250341   5.957   6.807   1.720
 8716TIP3   OH250342   6.606   6.364   0.933
 8716TIP3    H150343   6.684   6.318   0.899
 8716TIP3    H250344   6.575   6.308   1.004
 8717TIP3   OH250345   6.066   5.923   0.616
 8717TIP3    H150346   6.021   5.848   0.655
 8717TIP3    H250347   6.081   5.897   0.525
 8718TIP3   OH250348   6.489   6.224   1.147
 8718TIP3    H150349   6.403   6.267   1.154
 8718TIP3    H250350   6.535   6.249   1.227
 8719TIP3   OH250351   6.562   6.791   0.328
 8719TIP3    H150352   6.501   6.738   0.276
 8719TIP3    H250353   6.510   6.822   0.401
 8720TIP3   OH250354   7.241   6.692   1.150
 8720TIP3    H150355   7.297   6.756   1.108
 8720TIP3    H250356   7.164   6.687   1.093
 8721TIP3   OH250357   6.924   6.038   0.287
 8721TIP3    H150358   6.845   6.056   0.236
 8721TIP3    H250359   6.950   6.124   0.322
 8722TIP3   OH250360   6.607   6.792   1.502
 8722TIP3    H150361   6.658   6.761   1.577
 8722TIP3    H250362   6.552   6.862   1.539
 8723TIP3   OH250363   6.993   6.279   0.397
 8723TIP3    H150364   7.076   6.257   0.439
 8723TIP3    H250365   7.012   6.357   0.345
 8724TIP3   OH250366   6.077   6.717   0.862
 8724TIP3    H150367   6.131   6.706   0.784
 8724TIP3    H250368   6.120   6.662   0.928
 8725TIP3   OH250369   6.771   6.962   0.265
 8725TIP3    H150370   6.723   7.044   0.251
 8725TIP3    H250371   6.703   6.895   0.269
 8726TIP3   OH250372   5.732   6.553   1.499
 8726TIP3    H150373   5.706   6.500   1.574
 8726TIP3    H250374   5.665   6.536   1.433
 8727TIP3   OH250375   6.436   6.516   1.704
 8727TIP3    H150376   6.369   6.486   1.643
 8727TIP3    H250377   6.516   6.470   1.676
 8728TIP3   OH250378   6.875   7.079   1.507
 8728TIP3    H150379   6.781   7.083   1.493
 8728TIP3    H250380   6.887   7.105   1.598
 8729TIP3   OH250381   7.409   6.252   0.300
 8729TIP3    H150382   7.387   6.188   0.233
 8729TIP3    H250383   7.405   6.337   0.256
 8730TIP3   OH250384   7.432   6.901   1.565
 8730TIP3    H150385   7.349   6.867   1.532
 8730TIP3    H250386   7.496   6.875   1.498
 8731TIP3   OH250387   7.303   7.091   0.507
 8731TIP3    H150388   7.221   7.073   0.552
 8731TIP3    H250389   7.370   7.047   0.560
 8732TIP3   OH250390   7.021   6.667   0.976
 8732TIP3    H150391   6.928   6.657   0.994
 8732TIP3    H250392   7.046   6.585   0.933
 8733TIP3   OH250393   6.298   7.040   0.712
 8733TIP3    H150394   6.316   7.129   0.683
 8733TIP3    H250395   6.203   7.036   0.721
 8734TIP3   OH250396   5.821   6.493   0.219
 8734TIP3    H150397   5.867   6.564   0.264
 8734TIP3    H250398   5.728   6.515   0.227
 8735TIP3   OH250399   6.381   6.856   0.526
 8735TIP3    H150400   6.370   6.926   0.590
 8735TIP3    H250401   6.342   6.779   0.567
 8736TIP3   OH250402   6.492   7.267   1.306
 8736TIP3    H150403   6.510   7.359   1.325
 8736TIP3    H250404   6.546   7.218   1.368
 8737TIP3   OH250405   6.322   7.297   0.623
 8737TIP3    H150406   6.230   7.320   0.637
 8737TIP3    H250407   6.371   7.370   0.661
 8738TIP3   OH250408   6.753   6.890   1.288
 8738TIP3    H150409   6.690   6.860   1.353
 8738TIP3    H250410   6.837   6.853   1.316
 8739TIP3   OH250411   7.052   6.951   0.277
 8739TIP3    H150412   7.042   6.879   0.339
 8739TIP3    H250413   6.962   6.973   0.251
 8740TIP3   OH250414   7.089   7.244   1.461
 8740TIP3    H150415   7.022   7.179   1.483
 8740TIP3    H250416   7.042   7.311   1.411
 8741TIP3   OH250417   7.532   7.363   0.209
 8741TIP3    H150418   7.608   7.417   0.187
 8741TIP3    H250419   7.458   7.423   0.202
 8742TIP3   OH250420   5.888   6.040   1.386
 8742TIP3    H150421   5.808   6.093   1.392
 8742TIP3    H250422   5.858   5.950   1.400
 8743TIP3   OH250423   7.307   6.815   0.327
 8743TIP3    H150424   7.252   6.763   0.385
 8743TIP3    H250425   7.395   6.777   0.336
 8744TIP3   OH250426   5.906   7.176   1.308
 8744TIP3    H150427   5.937   7.105   1.364
 8744TIP3    H250428   5.902   7.252   1.367
 8745TIP3   OH250429   6.270   6.976   0.302
 8745TIP3    H150430   6.300   6.926   0.377
 8745TIP3    H250431   6.306   7.064   0.314
 8746TIP3   OH250432   5.954   6.706   0.338
 8746TIP3    H150433   5.913   6.761   0.405
 8746TIP3    H250434   5.985   6.767   0.272
 8747TIP3   OH250435   6.801   6.043   1.376
 8747TIP3    H150436   6.876   6.058   1.434
 8747TIP3    H250437   6.759   5.964   1.411
 8748TIP3   OH250438   6.895   5.914   0.532
 8748TIP3    H150439   6.899   5.953   0.444
 8748TIP3    H250440   6.937   5.979   0.588
 8749TIP3   OH250441   6.652   7.214   0.303
 8749TIP3    H150442   6.556   7.205   0.307
 8749TIP3    H250443   6.680   7.209   0.395
 8750TIP3   OH250444   6.555   6.173   0.562
 8750TIP3    H150445   6.628   6.235   0.566
 8750TIP3    H250446   6.555   6.130   0.648
 8751TIP3   OH250447   6.630   6.268   1.379
 8751TIP3    H150448   6.632   6.300   1.469
 8751TIP3    H250449   6.685   6.190   1.381
 8752TIP3   OH250450   6.659   5.814   0.624
 8752TIP3    H150451   6.625   5.882   0.682
 8752TIP3    H250452   6.750   5.838   0.608
 8753TIP3   OH250453   6.384   7.216   0.368
 8753TIP3    H150454   6.351   7.294   0.322
 8753TIP3    H250455   6.367   7.234   0.461
 8754TIP3   OH250456   6.336   5.934   0.281
 8754TIP3    H150457   6.295   6.003   0.332
 8754TIP3    H250458   6.424   5.925   0.317
 8755TIP3   OH250459   7.227   5.942   1.548
 8755TIP3    H150460   7.141   5.984   1.553
 8755TIP3    H250461   7.278   5.998   1.491
 8756TIP3   OH250462   7.088   6.415   0.876
 8756TIP3    H150463   7.006   6.368   0.861
 8756TIP3    H250464   7.130   6.369   0.949
 8757TIP3   OH250465   6.033   6.910   0.169
 8757TIP3    H150466   6.096   6.953   0.226
 8757TIP3    H250467   6.085   6.877   0.096
 8758TIP3   OH250468   5.945   6.270   0.135
 8758TIP3    H150469   5.904   6.351   0.165
 8758TIP3    H250470   5.920   6.262   0.043
 8759TIP3   OH250471   7.234   7.319   1.071
 8759TIP3    H150472   7.209   7.403   1.031
 8759TIP3    H250473   7.325   7.332   1.099
 8760TIP3   OH250474   5.968   5.745   0.972
 8760TIP3    H150475   5.964   5.730   0.878
 8760TIP3    H250476   5.941   5.663   1.012
 8761TIP3   OH250477   5.904   7.129   0.652
 8761TIP3    H150478   5.845   7.142   0.727
 8761TIP3    H250479   5.857   7.165   0.577
 8762TIP3   OH250480   5.879   7.438   1.708
 8762TIP3    H150481   5.941   7.444   1.780
 8762TIP3    H250482   5.868   7.344   1.693
 8763TIP3   OH250483   6.206   7.172   1.889
 8763TIP3    H150484   6.294   7.136   1.899
 8763TIP3    H250485   6.187   7.163   1.795
 8764TIP3   OH250486   6.667   7.118   9.863
 8764TIP3    H150487   6.660   7.036   9.814
 8764TIP3    H250488   6.713   7.094   9.944
 8765TIP3   OH250489   6.903   7.176   1.757
 8765TIP3    H150490   6.844   7.109   1.791
 8765TIP3    H250491   6.968   7.189   1.826
 8766TIP3   OH250492   7.192   7.248   0.219
 8766TIP3    H150493   7.097   7.259   0.213
 8766TIP3    H250494   7.226   7.337   0.206
 8767TIP3   OH250495   5.786   6.783   1.774
 8767TIP3    H150496   5.802   6.689   1.778
 8767TIP3    H250497   5.701   6.790   1.730
 8768TIP3   OH250498   6.279   6.824   0.068
 8768TIP3    H150499   6.318   6.743   0.101
 8768TIP3    H250500   6.291   6.887   0.139
 8769TIP3   OH250501   6.435   6.788   1.763
 8769TIP3    H150502   6.412   6.831   1.680
 8769TIP3    H250503   6.450   6.697   1.739
 8770TIP3   OH250504   6.970   6.823   1.457
 8770TIP3    H150505   7.062   6.831   1.434
 8770TIP3    H250506   6.944   6.912   1.482
 8771TIP3   OH250507   5.882   6.527   1.798
 8771TIP3    H150508   5.953   6.465   1.782
 8771TIP3    H250509   5.872   6.529   1.894
 8772TIP3   OH250510   6.379   6.615   0.224
 8772TIP3    H150511   6.315   6.598   0.293
 8772TIP3    H250512   6.399   6.528   0.189
 8773TIP3   OH250513   6.248   6.433   1.503
 8773TIP3    H150514   6.169   6.488   1.507
 8773TIP3    H250515   6.311   6.486   1.454
 8774TIP3   OH250516   6.447   6.358   0.137
 8774TIP3    H150517   6.445   6.269   0.103
 8774TIP3    H250518   6.540   6.375   0.153
 8775TIP3   OH250519   6.749   6.698   1.728
 8775TIP3    H150520   6.833   6.662   1.702
 8775TIP3    H250521   6.723   6.646   1.804
 8776TIP3   OH250522   7.446   6.684   9.728
 8776TIP3    H150523   7.361   6.724   9.713
 8776TIP3    H250524   7.493   6.745   9.784
 8777TIP3   OH250525   6.321   6.171   1.559
 8777TIP3    H150526   6.338   6.124   1.478
 8777TIP3    H250527   6.308   6.262   1.532
 8778TIP3   OH250528   6.363   6.031   1.323
 8778TIP3    H150529   6.414   6.074   1.254
 8778TIP3    H250530   6.276   6.018   1.285
 8779TIP3   OH250531   6.431   6.600   1.393
 8779TIP3    H150532   6.502   6.652   1.430
 8779TIP3    H250533   6.408   6.645   1.311
 8780TIP3   OH250534   6.871   6.354   1.825
 8780TIP3    H150535   6.861   6.260   1.808
 8780TIP3    H250536   6.961   6.363   1.856
 8781TIP3   OH250537   7.013   6.623   1.641
 8781TIP3    H150538   6.998   6.692   1.576
 8781TIP3    H250539   7.107   6.605   1.634
 8782TIP3   OH250540   6.163   6.177   1.789
 8782TIP3    H150541   6.087   6.119   1.781
 8782TIP3    H250542   6.207   6.172   1.704
 8783TIP3   OH250543   6.409   5.785   1.449
 8783TIP3    H150544   6.392   5.871   1.409
 8783TIP3    H250545   6.343   5.728   1.410
 8784TIP3   OH250546   6.538   6.112   1.726
 8784TIP3    H150547   6.492   6.088   1.807
 8784TIP3    H250548   6.468   6.122   1.661
 8785TIP3   OH250549   6.818   6.098   1.742
 8785TIP3    H150550   6.724   6.078   1.741
 8785TIP3    H250551   6.859   6.022   1.781
 8786TIP3   OH250552   6.966   5.896   1.848
 8786TIP3    H150553   6.975   5.803   1.825
 8786TIP3    H250554   6.943   5.895   1.941
 8787TIP3   OH250555   5.961   5.980   1.793
 8787TIP3    H150556   5.966   5.900   1.741
 8787TIP3    H250557   5.984   5.952   1.882
 8788TIP3   OH250558   6.416   5.696   1.708
 8788TIP3    H150559   6.465   5.615   1.696
 8788TIP3    H250560   6.408   5.733   1.621
 8789TIP3   OH250561   6.500   5.815   1.942
 8789TIP3    H150562   6.485   5.771   1.859
 8789TIP3    H250563   6.453   5.898   1.934
 8790TIP3   OH250564   6.318   7.456   0.265
 8790TIP3    H150565   6.402   7.497   0.244
 8790TIP3    H250566   6.252   7.515   0.229
 8791TIP3   OH250567   5.761   6.957   0.199
 8791TIP3    H150568   5.855   6.959   0.182
 8791TIP3    H250569   5.732   6.872   0.165
 8792TIP3   OH250570   5.731   7.439   0.743
 8792TIP3    H150571   5.662   7.439   0.676
 8792TIP3    H250572   5.724   7.353   0.784
 8793TIP3   OH250573   5.756   7.195   0.878
 8793TIP3    H150574   5.732   7.111   0.918
 8793TIP3    H250575   5.793   7.246   0.950
 8794TIP3   OH250576   7.511   7.343   1.157
 8794TIP3    H150577   7.495   7.307   1.245
 8794TIP3    H250578   7.538   7.433   1.173
 8795TIP3   OH250579   7.445   7.269   1.416
 8795TIP3    H150580   7.391   7.196   1.385
 8795TIP3    H250581   7.478   7.240   1.501
 8796TIP3   OH250582   7.313   6.885   1.927
 8796TIP3    H150583   7.227   6.912   1.961
 8796TIP3    H250584   7.367   6.963   1.935
 8797TIP3   OH250585   7.531   6.672   0.374
 8797TIP3    H150586   7.604   6.732   0.385
 8797TIP3    H250587   7.528   6.623   0.456
 8798TIP3   OH250588   7.507   6.530   0.611
 8798TIP3    H150589   7.416   6.504   0.627
 8798TIP3    H250590   7.543   6.545   0.698
 8799TIP3   OH250591   7.467   6.843   1.096
 8799TIP3    H150592   7.526   6.784   1.049
 8799TIP3    H250593   7.498   6.930   1.073
 8800TIP3   OH250594   7.262   7.096   1.305
 8800TIP3    H150595   7.201   7.148   1.358
 8800TIP3    H250596   7.220   7.091   1.219
 8801TIP3   OH250597   7.400   6.501   0.193
 8801TIP3    H150598   7.335   6.557   0.151
 8801TIP3    H250599   7.454   6.560   0.245
 8802TIP3   OH250600   7.324   6.066   0.105
 8802TIP3    H150601   7.296   6.097   0.018
 8802TIP3    H250602   7.257   6.003   0.131
 8803TIP3   OH250603   7.245   6.450   0.649
 8803TIP3    H150604   7.243   6.361   0.614
 8803TIP3    H250605   7.195   6.445   0.730
 8804TIP3   OH250606   5.736   6.566   1.105
 8804TIP3    H150607   5.766   6.574   1.014
 8804TIP3    H250608   5.814   6.546   1.155
 8805TIP3   OH250609   7.289   6.570   1.627
 8805TIP3    H150610   7.348   6.498   1.604
 8805TIP3    H250611   7.313   6.594   1.716
 8806TIP3   OH250612   7.475   6.350   1.590
 8806TIP3    H150613   7.390   6.316   1.620
 8806TIP3    H250614   7.537   6.279   1.608
 8807TIP3   OH250615   7.126   5.889   0.167
 8807TIP3    H150616   7.095   5.798   0.164
 8807TIP3    H250617   7.056   5.936   0.213
 8808TIP3   OH250618   7.239   6.205   0.512
 8808TIP3    H150619   7.262   6.114   0.534
 8808TIP3    H250620   7.301   6.229   0.443
 8809TIP3   OH250621   7.215   6.276   1.083
 8809TIP3    H150622   7.309   6.264   1.072
 8809TIP3    H250623   7.204   6.302   1.174
 8810TIP3   OH250624   7.227   6.359   1.352
 8810TIP3    H150625   7.143   6.360   1.398
 8810TIP3    H250626   7.266   6.444   1.373
 8811TIP3   OH250627   5.761   6.171   1.760
 8811TIP3    H150628   5.835   6.110   1.768
 8811TIP3    H250629   5.688   6.116   1.730
 8812TIP3   OH250630   7.551   5.645   1.807
 8812TIP3    H150631   7.640   5.619   1.782
 8812TIP3    H250632   7.544   5.735   1.778
 8813TIP3   OH250633   7.284   5.942   0.571
 8813TIP3    H150634   7.309   5.908   0.656
 8813TIP3    H250635   7.227   5.875   0.533
 8814TIP3   OH250636   5.859   6.002   0.987
 8814TIP3    H150637   5.888   5.911   0.984
 8814TIP3    H250638   5.941   6.053   0.985
 8815TIP3   OH250639   5.660   6.302   1.031
 8815TIP3    H150640   5.737   6.286   0.978
 8815TIP3    H250641   5.673   6.389   1.068
 8816TIP3   OH250642   7.430   5.895   1.732
 8816TIP3    H150643   7.378   5.903   1.812
 8816TIP3    H250644   7.366   5.899   1.662
 8817TIP3   OH250645   7.516   5.913   0.229
 8817TIP3    H150646   7.590   5.890   0.172
 8817TIP3    H250647   7.460   5.968   0.174
 8818TIP3   OH250648   5.706   5.940   0.481
 8818TIP3    H150649   5.616   5.950   0.509
 8818TIP3    H250650   5.722   6.012   0.421
 8819TIP3   OH250651   7.179   7.446   0.685
 8819TIP3    H150652   7.262   7.420   0.646
 8819TIP3    H250653   7.202   7.482   0.771
 8820TIP3   OH250654   5.735   5.800   1.374
 8820TIP3    H150655   5.655   5.767   1.416
 8820TIP3    H250656   5.703   5.846   1.296
 8821TIP3   OH250657   5.870   7.165   1.668
 8821TIP3    H150658   5.780   7.151   1.638
 8821TIP3    H250659   5.873   7.122   1.754
 8822TIP3   OH250660   6.229   7.222   1.366
 8822TIP3    H150661   6.187   7.301   1.333
 8822TIP3    H250662   6.322   7.235   1.348
 8823TIP3   OH250663   6.636   7.376   1.669
 8823TIP3    H150664   6.612   7.340   1.754
 8823TIP3    H250665   6.729   7.398   1.677
 8824TIP3   OH250666   6.900   7.446   1.694
 8824TIP3    H150667   6.916   7.352   1.706
 8824TIP3    H250668   6.934   7.486   1.774
 8825TIP3   OH250669   7.383   5.632   1.433
 8825TIP3    H150670   7.298   5.617   1.389
 8825TIP3    H250671   7.426   5.547   1.429
 8826TIP3   OH250672   5.908   7.437   1.425
 8826TIP3    H150673   5.836   7.492   1.395
 8826TIP3    H250674   5.905   7.443   1.521
 8827TIP3   OH250675   6.146   7.471   1.283
 8827TIP3    H150676   6.062   7.470   1.329
 8827TIP3    H250677   6.130   7.523   1.204
 8828TIP3   OH250678   6.676   7.508   1.232
 8828TIP3    H150679   6.585   7.535   1.215
 8828TIP3    H250680   6.694   7.542   1.320
 8829TIP3   OH250681   6.935   7.405   1.304
 8829TIP3    H150682   6.853   7.441   1.270
 8829TIP3    H250683   7.001   7.471   1.282
 8830TIP3   OH250684   7.137   7.588   1.243
 8830TIP3    H150685   7.137   7.684   1.253
 8830TIP3    H250686   7.143   7.573   1.149
 8831TIP3   OH250687   5.881   7.337   1.086
 8831TIP3    H150688   5.882   7.288   1.168
 8831TIP3    H250689   5.965   7.317   1.045
 8832TIP3   OH250690   6.111   7.248   0.968
 8832TIP3    H150691   6.099   7.153   0.968
 8832TIP3    H250692   6.198   7.262   1.004
 8833TIP3   OH250693   6.372   7.250   1.062
 8833TIP3    H150694   6.384   7.162   1.027
 8833TIP3    H250695   6.419   7.251   1.145
 8834TIP3   OH250696   6.689   5.850   0.976
 8834TIP3    H150697   6.618   5.789   0.999
 8834TIP3    H250698   6.754   5.795   0.932
 8835TIP3   OH250699   7.227   5.699   0.940
 8835TIP3    H150700   7.290   5.756   0.895
 8835TIP3    H250701   7.193   5.752   1.011
 8836TIP3   OH250702   7.406   5.846   0.798
 8836TIP3    H150703   7.472   5.782   0.772
 8836TIP3    H250704   7.453   5.929   0.799
 8837TIP3   OH250705   5.953   5.689   0.705
 8837TIP3    H150706   5.861   5.662   0.697
 8837TIP3    H250707   6.003   5.609   0.690
 8838TIP3   OH250708   5.824   5.741   0.336
 8838TIP3    H150709   5.916   5.766   0.334
 8838TIP3    H250710   5.784   5.800   0.400
 8839TIP3   OH250711   6.471   5.643   0.746
 8839TIP3    H150712   6.538   5.697   0.705
 8839TIP3    H250713   6.484   5.658   0.840
 8840TIP3   OH250714   6.869   5.678   0.865
 8840TIP3    H150715   6.941   5.660   0.804
 8840TIP3    H250716   6.865   5.599   0.920
 8841TIP3   OH250717   7.113   5.756   0.466
 8841TIP3    H150718   7.033   5.803   0.492
 8841TIP3    H250719   7.087   5.664   0.464
 8842TIP3   OH250720   5.764   7.208   0.436
 8842TIP3    H150721   5.671   7.191   0.454
 8842TIP3    H250722   5.763   7.265   0.358
 8843TIP3   OH250723   6.096   5.805   0.363
 8843TIP3    H150724   6.110   5.710   0.369
 8843TIP3    H250725   6.174   5.838   0.319
 8844TIP3   OH250726   6.580   5.957   0.396
 8844TIP3    H150727   6.610   5.886   0.453
 8844TIP3    H250728   6.570   6.032   0.455
 8845TIP3   OH250729   6.595   7.493   0.248
 8845TIP3    H150730   6.665   7.536   0.199
 8845TIP3    H250731   6.621   7.400   0.250
 8846TIP3   OH250732   7.374   7.361   0.494
 8846TIP3    H150733   7.353   7.268   0.489
 8846TIP3    H250734   7.365   7.393   0.404
 8847TIP3   OH250735   5.981   5.718   1.691
 8847TIP3    H150736   5.916   5.654   1.719
 8847TIP3    H250737   6.058   5.701   1.745
 8848TIP3   OH250738   6.192   5.671   1.866
 8848TIP3    H150739   6.270   5.690   1.813
 8848TIP3    H250740   6.202   5.579   1.890
 8849TIP3   OH250741   6.106   7.601   0.161
 8849TIP3    H150742   6.033   7.568   0.213
 8849TIP3    H250743   6.081   7.584   0.070
 8850TIP3   OH250744   7.029   5.634   1.777
 8850TIP3    H150745   7.026   5.593   1.863
 8850TIP3    H250746   7.120   5.626   1.750
 8851TIP3   OH250747   7.225   7.287   1.702
 8851TIP3    H150748   7.175   7.280   1.620
 8851TIP3    H250749   7.245   7.380   1.710
 8852TIP3   OH250750   7.641   6.372   0.427
 8852TIP3    H150751   7.587   6.421   0.488
 8852TIP3    H250752   7.581   6.312   0.385
 8853TIP3   OH250753   7.577   6.791   1.355
 8853TIP3    H150754   7.529   6.804   1.273
 8853TIP3    H250755   7.568   6.697   1.374
 8854TIP3   OH250756   7.591   7.085   1.040
 8854TIP3    H150757   7.686   7.080   1.032
 8854TIP3    H250758   7.575   7.162   1.095
 8855TIP3   OH250759   7.514   6.097   0.748
 8855TIP3    H150760   7.603   6.094   0.783
 8855TIP3    H250761   7.525   6.092   0.653
 8856TIP3   OH250762   7.609   6.515   1.419
 8856TIP3    H150763   7.564   6.464   1.486
 8856TIP3    H250764   7.560   6.498   1.338
 8857TIP3   OH250765   7.563   6.761   1.764
 8857TIP3    H150766   7.497   6.713   1.813
 8857TIP3    H250767   7.514   6.816   1.704
 8858TIP3   OH250768   7.464   7.510   0.703
 8858TIP3    H150769   7.447   7.463   0.622
 8858TIP3    H250770   7.471   7.442   0.770
 8859TIP3   OH250771   7.495   7.307   0.880
 8859TIP3    H150772   7.500   7.212   0.883
 8859TIP3    H250773   7.502   7.334   0.972
 8860TIP3   OH250774   7.642   6.645   1.013
 8860TIP3    H150775   7.672   6.556   0.994
 8860TIP3    H250776   7.722   6.697   1.020
 8861TIP3   OH250777   7.589   6.097   1.609
 8861TIP3    H150778   7.680   6.068   1.617
 8861TIP3    H250779   7.539   6.032   1.659
 8862TIP3   OH250780   7.491   6.265   1.097
 8862TIP3    H150781   7.578   6.273   1.059
 8862TIP3    H250782   7.477   6.346   1.145
 8863TIP3   OH250783   7.539   6.006   0.485
 8863TIP3    H150784   7.452   5.978   0.515
 8863TIP3    H250785   7.541   5.982   0.393
 8864TIP3   OH250786   7.535   5.779   1.246
 8864TIP3    H150787   7.488   5.750   1.324
 8864TIP3    H250788   7.482   5.851   1.211
 8865TIP3   OH250789   0.805   7.505   1.029
 8865TIP3    H150790   0.808   7.409   1.033
 8865TIP3    H250791   0.718   7.528   1.062
 8866TIP3   OH250792   1.636   7.477   0.253
 8866TIP3    H150793   1.544   7.452   0.243
 8866TIP3    H250794   1.636   7.572   0.245
 8867TIP3   OH250795   0.557   7.590   1.114
 8867TIP3    H150796   0.470   7.585   1.072
 8867TIP3    H250797   0.576   7.683   1.117
 8868TIP3   OH250798   1.046   7.600   1.444
 8868TIP3    H150799   1.104   7.551   1.502
 8868TIP3    H250800   0.960   7.563   1.459
 8869TIP3   OH250801   0.302   7.579   1.017
 8869TIP3    H150802   0.253   7.587   0.934
 8869TIP3    H250803   0.237   7.600   1.084
 8870TIP3   OH250804   0.765   7.553   1.388
 8870TIP3    H150805   0.749   7.647   1.377
 8870TIP3    H250806   0.685   7.511   1.356
 8871TIP3   OH250807   0.727   7.460   1.642
 8871TIP3    H150808   0.807   7.411   1.660
 8871TIP3    H250809   0.729   7.477   1.548
 8872TIP3   OH250810   1.858   7.605   1.743
 8872TIP3    H150811   1.923   7.539   1.716
 8872TIP3    H250812   1.910   7.675   1.782
 8873TIP3   OH250813   0.145   7.625   1.237
 8873TIP3    H150814   0.051   7.606   1.245
 8873TIP3    H250815   0.153   7.717   1.260
 8874TIP3   OH250816   1.603   7.544   1.459
 8874TIP3    H150817   1.548   7.539   1.381
 8874TIP3    H250818   1.658   7.466   1.455
 8875TIP3   OH250819   1.500   7.596   0.903
 8875TIP3    H150820   1.518   7.686   0.930
 8875TIP3    H250821   1.408   7.595   0.880
 8876TIP3   OH250822   0.265   7.606   0.741
 8876TIP3    H150823   0.183   7.564   0.715
 8876TIP3    H250824   0.332   7.539   0.726
 8877TIP3   OH250825   0.090   7.518   0.209
 8877TIP3    H150826   0.182   7.501   0.186
 8877TIP3    H250827   0.084   7.613   0.214
 8878TIP3   OH250828   0.815   7.501   0.744
 8878TIP3    H150829   0.798   7.593   0.723
 8878TIP3    H250830   0.825   7.501   0.840
 8879TIP3   OH250831   1.249   7.518   0.794
 8879TIP3    H150832   1.295   7.475   0.723
 8879TIP3    H250833   1.196   7.450   0.834
 8880TIP3   OH250834   1.388   7.577   0.457
 8880TIP3    H150835   1.369   7.514   0.388
 8880TIP3    H250836   1.426   7.524   0.528
 8881TIP3   OH250837   0.477   7.589   1.659
 8881TIP3    H150838   0.556   7.536   1.653
 8881TIP3    H250839   0.412   7.533   1.700
 8882TIP3   OH250840   1.340   7.506   1.842
 8882TIP3    H150841   1.330   7.462   1.927
 8882TIP3    H250842   1.434   7.503   1.825
 8883TIP3   OH250843   2.643   7.501   1.028
 8883TIP3    H150844   2.631   7.407   1.038
 8883TIP3    H250845   2.558   7.539   1.047
 8884TIP3   OH250846   3.573   7.542   0.298
 8884TIP3    H150847   3.486   7.538   0.338
 8884TIP3    H250848   3.573   7.625   0.250
 8885TIP3   OH250849   2.406   7.636   1.069
 8885TIP3    H150850   2.323   7.622   1.024
 8885TIP3    H250851   2.421   7.731   1.061
 8886TIP3   OH250852   2.940   7.572   1.455
 8886TIP3    H150853   3.027   7.561   1.492
 8886TIP3    H250854   2.886   7.506   1.498
 8887TIP3   OH250855   2.162   7.588   0.956
 8887TIP3    H150856   2.145   7.578   0.862
 8887TIP3    H250857   2.125   7.509   0.996
 8888TIP3   OH250858   2.627   7.563   1.357
 8888TIP3    H150859   2.614   7.656   1.342
 8888TIP3    H250860   2.544   7.522   1.331
 8889TIP3   OH250861   2.648   7.493   1.619
 8889TIP3    H150862   2.720   7.431   1.630
 8889TIP3    H250863   2.641   7.505   1.525
 8890TIP3   OH250864   3.773   7.609   1.648
 8890TIP3    H150865   3.836   7.541   1.671
 8890TIP3    H250866   3.799   7.685   1.700
 8891TIP3   OH250867   1.915   7.546   1.332
 8891TIP3    H150868   1.868   7.475   1.374
 8891TIP3    H250869   1.876   7.626   1.369
 8892TIP3   OH250870   3.505   7.553   1.443
 8892TIP3    H150871   3.436   7.527   1.381
 8892TIP3    H250872   3.570   7.483   1.437
 8893TIP3   OH250873   3.378   7.541   0.933
 8893TIP3    H150874   3.391   7.635   0.943
 8893TIP3    H250875   3.291   7.533   0.893
 8894TIP3   OH250876   2.129   7.558   0.682
 8894TIP3    H150877   2.049   7.505   0.679
 8894TIP3    H250878   2.200   7.495   0.674
 8895TIP3   OH250879   2.010   7.507   0.364
 8895TIP3    H150880   2.010   7.596   0.329
 8895TIP3    H250881   1.946   7.509   0.435
 8896TIP3   OH250882   2.679   7.475   0.748
 8896TIP3    H150883   2.673   7.567   0.722
 8896TIP3    H250884   2.678   7.476   0.843
 8897TIP3   OH250885   3.136   7.509   0.793
 8897TIP3    H150886   3.150   7.474   0.705
 8897TIP3    H250887   3.095   7.437   0.842
 8898TIP3   OH250888   3.332   7.561   0.434
 8898TIP3    H150889   3.275   7.506   0.380
 8898TIP3    H250890   3.341   7.513   0.516
 8899TIP3   OH250891   2.371   7.522   1.673
 8899TIP3    H150892   2.461   7.492   1.671
 8899TIP3    H250893   2.329   7.469   1.741
 8900TIP3   OH250894   3.266   7.596   1.827
 8900TIP3    H150895   3.241   7.540   1.901
 8900TIP3    H250896   3.356   7.571   1.807
 8901TIP3   OH250897   4.525   7.514   1.036
 8901TIP3    H150898   4.525   7.419   1.047
 8901TIP3    H250899   4.434   7.539   1.051
 8902TIP3   OH250900   5.469   7.550   0.299
 8902TIP3    H150901   5.380   7.541   0.336
 8902TIP3    H250902   5.468   7.634   0.254
 8903TIP3   OH250903   4.259   7.586   1.074
 8903TIP3    H150904   4.184   7.577   1.014
 8903TIP3    H250905   4.279   7.679   1.073
 8904TIP3   OH250906   4.820   7.598   1.454
 8904TIP3    H150907   4.887   7.560   1.510
 8904TIP3    H250908   4.740   7.550   1.477
 8905TIP3   OH250909   4.009   7.578   0.927
 8905TIP3    H150910   3.952   7.554   0.854
 8905TIP3    H250911   3.992   7.512   0.994
 8906TIP3   OH250912   4.546   7.543   1.387
 8906TIP3    H150913   4.540   7.638   1.392
 8906TIP3    H250914   4.456   7.513   1.377
 8907TIP3   OH250915   4.489   7.490   1.705
 8907TIP3    H150916   4.528   7.517   1.788
 8907TIP3    H250917   4.558   7.441   1.661
 8908TIP3   OH250918   5.649   7.556   1.821
 8908TIP3    H150919   5.726   7.519   1.778
 8908TIP3    H250920   5.668   7.649   1.829
 8909TIP3   OH250921   3.830   7.601   1.374
 8909TIP3    H150922   3.791   7.600   1.461
 8909TIP3    H250923   3.843   7.694   1.355
 8910TIP3   OH250924   5.437   7.552   1.465
 8910TIP3    H150925   5.357   7.534   1.416
 8910TIP3    H250926   5.486   7.470   1.462
 8911TIP3   OH250927   5.269   7.581   0.914
 8911TIP3    H150928   5.277   7.672   0.941
 8911TIP3    H250929   5.180   7.572   0.881
 8912TIP3   OH250930   4.036   7.554   0.587
 8912TIP3    H150931   3.957   7.525   0.633
 8912TIP3    H250932   4.106   7.500   0.622
 8913TIP3   OH250933   3.987   7.523   0.319
 8913TIP3    H150934   3.955   7.608   0.288
 8913TIP3    H250935   4.005   7.537   0.412
 8914TIP3   OH250936   4.568   7.489   0.755
 8914TIP3    H150937   4.560   7.581   0.730
 8914TIP3    H250938   4.566   7.490   0.851
 8915TIP3   OH250939   5.022   7.537   0.788
 8915TIP3    H150940   5.030   7.502   0.700
 8915TIP3    H250941   4.980   7.467   0.838
 8916TIP3   OH250942   5.223   7.565   0.428
 8916TIP3    H150943   5.161   7.514   0.376
 8916TIP3    H250944   5.229   7.519   0.511
 8917TIP3   OH250945   4.232   7.527   1.805
 8917TIP3    H150946   4.309   7.491   1.763
 8917TIP3    H250947   4.186   7.451   1.841
 8918TIP3   OH250948   5.131   7.528   1.855
 8918TIP3    H150949   5.124   7.470   1.931
 8918TIP3    H250950   5.223   7.525   1.832
 8919TIP3   OH250951   6.396   7.521   1.012
 8919TIP3    H150952   6.396   7.427   1.029
 8919TIP3    H250953   6.306   7.548   1.028
 8920TIP3   OH250954   7.297   7.510   0.249
 8920TIP3    H150955   7.229   7.527   0.315
 8920TIP3    H250956   7.313   7.595   0.209
 8921TIP3   OH250957   6.141   7.624   1.049
 8921TIP3    H150958   6.061   7.611   0.997
 8921TIP3    H250959   6.159   7.718   1.042
 8922TIP3   OH250960   6.732   7.571   1.493
 8922TIP3    H150961   6.820   7.561   1.529
 8922TIP3    H250962   6.678   7.512   1.545
 8923TIP3   OH250963   5.889   7.572   0.934
 8923TIP3    H150964   5.835   7.543   0.860
 8923TIP3    H250965   5.876   7.505   1.001
 8924TIP3   OH250966   6.406   7.542   1.349
 8924TIP3    H150967   6.403   7.636   1.336
 8924TIP3    H250968   6.318   7.511   1.326
 8925TIP3   OH250969   6.412   7.531   1.626
 8925TIP3    H150970   6.482   7.469   1.649
 8925TIP3    H250971   6.408   7.528   1.530
 8926TIP3   OH250972   7.579   7.544   1.814
 8926TIP3    H150973   7.554   7.493   1.891
 8926TIP3    H250974   7.594   7.632   1.847
 8927TIP3   OH250975   5.710   7.618   1.352
 8927TIP3    H150976   5.628   7.618   1.400
 8927TIP3    H250977   5.740   7.709   1.354
 8928TIP3   OH250978   7.337   7.527   1.430
 8928TIP3    H150979   7.262   7.531   1.371
 8928TIP3    H250980   7.365   7.436   1.429
 8929TIP3   OH250981   7.142   7.555   0.962
 8929TIP3    H150982   7.157   7.649   0.953
 8929TIP3    H250983   7.056   7.541   0.923
 8930TIP3   OH250984   5.923   7.542   0.575
 8930TIP3    H150985   5.848   7.512   0.626
 8930TIP3    H250986   5.996   7.490   0.607
 8931TIP3   OH250987   5.877   7.536   0.301
 8931TIP3    H150988   5.840   7.624   0.291
 8931TIP3    H250989   5.894   7.528   0.395
 8932TIP3   OH250990   6.433   7.519   0.735
 8932TIP3    H150991   6.419   7.612   0.718
 8932TIP3    H250992   6.430   7.511   0.831
 8933TIP3   OH250993   6.900   7.500   0.828
 8933TIP3    H150994   6.914   7.428   0.765
 8933TIP3    H250995   6.848   7.461   0.898
 8934TIP3   OH250996   7.112   7.567   0.445
 8934TIP3    H150997   7.022   7.536   0.433
 8934TIP3    H250998   7.137   7.533   0.531
 8935TIP3   OH250999   6.169   7.587   1.743
 8935TIP3    H151000   6.248   7.551   1.703
 8935TIP3    H251001   6.139   7.517   1.803
 8936TIP3   OH251002   7.012   7.496   1.950
 8936TIP3    H151003   6.980   7.504   2.040
 8936TIP3    H251004   7.055   7.410   1.948
 8937TIP3   OH251005   7.551   7.596   1.259
 8937TIP3    H151006   7.490   7.576   1.329
 8937TIP3    H251007   7.547   7.691   1.249
 8938TIP3   OH251008   1.210   1.050   2.579
 8938TIP3    H151009   1.189   1.134   2.539
 8938TIP3    H251010   1.152   0.988   2.535
 8939TIP3   OH251011   1.535   1.303   2.749
 8939TIP3    H151012   1.492   1.298   2.835
 8939TIP3    H251013   1.627   1.314   2.770
 8940TIP3   OH251014   0.535   1.346   2.886
 8940TIP3    H151015   0.469   1.278   2.869
 8940TIP3    H251016   0.617   1.297   2.893
 8941TIP3   OH251017   0.152   0.758   2.495
 8941TIP3    H151018   0.147   0.754   2.590
 8941TIP3    H251019   0.067   0.725   2.465
 8942TIP3   OH251020   0.136   0.727   2.773
 8942TIP3    H151021   0.189   0.648   2.770
 8942TIP3    H251022   0.183   0.785   2.833
 8943TIP3   OH251023   1.419   0.453   2.665
 8943TIP3    H151024   1.466   0.408   2.595
 8943TIP3    H251025   1.347   0.497   2.620
 8944TIP3   OH251026   0.263   0.484   2.725
 8944TIP3    H151027   0.344   0.432   2.732
 8944TIP3    H251028   0.208   0.434   2.665
 8945TIP3   OH251029   0.790   0.829   2.707
 8945TIP3    H151030   0.840   0.793   2.780
 8945TIP3    H251031   0.781   0.756   2.646
 8946TIP3   OH251032   1.173   1.298   2.455
 8946TIP3    H151033   1.153   1.287   2.362
 8946TIP3    H251034   1.107   1.360   2.486
 8947TIP3   OH251035   0.190   1.307   2.277
 8947TIP3    H151036   0.201   1.353   2.194
 8947TIP3    H251037   0.193   1.376   2.343
 8948TIP3   OH251038   1.446   1.364   2.478
 8948TIP3    H151039   1.353   1.346   2.486
 8948TIP3    H251040   1.481   1.350   2.566
 8949TIP3   OH251041   1.093   0.843   2.429
 8949TIP3    H151042   0.999   0.834   2.416
 8949TIP3    H251043   1.129   0.853   2.341
 8950TIP3   OH251044   1.113   0.768   2.040
 8950TIP3    H151045   1.166   0.813   2.105
 8950TIP3    H251046   1.176   0.732   1.977
 8951TIP3   OH251047   1.434   0.975   2.437
 8951TIP3    H151048   1.368   1.002   2.502
 8951TIP3    H251049   1.504   0.935   2.489
 8952TIP3   OH251050   0.565   0.980   2.619
 8952TIP3    H151051   0.512   0.937   2.552
 8952TIP3    H251052   0.631   0.914   2.643
 8953TIP3   OH251053   1.298   0.878   2.221
 8953TIP3    H151054   1.339   0.915   2.298
 8953TIP3    H251055   1.352   0.909   2.148
 8954TIP3   OH251056   1.681   0.169   2.230
 8954TIP3    H151057   1.586   0.166   2.236
 8954TIP3    H251058   1.699   0.206   2.144
 8955TIP3   OH251059   0.390   0.887   2.423
 8955TIP3    H151060   0.365   0.951   2.356
 8955TIP3    H251061   0.308   0.847   2.450
 8956TIP3   OH251062   1.858   1.530   1.986
 8956TIP3    H151063   1.878   1.614   2.028
 8956TIP3    H251064   1.943   1.492   1.967
 8957TIP3   OH251065   0.110   1.579   2.936
 8957TIP3    H151066   0.141   1.513   2.998
 8957TIP3    H251067   0.180   1.644   2.933
 8958TIP3   OH251068   0.417   1.671   2.518
 8958TIP3    H151069   0.432   1.640   2.607
 8958TIP3    H251070   0.345   1.617   2.486
 8959TIP3   OH251071   1.473   0.953   2.020
 8959TIP3    H151072   1.407   0.945   1.951
 8959TIP3    H251073   1.525   0.873   2.012
 8960TIP3   OH251074   1.002   0.400   2.111
 8960TIP3    H151075   0.929   0.389   2.173
 8960TIP3    H251076   0.959   0.427   2.029
 8961TIP3   OH251077   0.751   0.616   2.543
 8961TIP3    H151078   0.724   0.535   2.586
 8961TIP3    H251079   0.710   0.611   2.456
 8962TIP3   OH251080   1.219   0.609   2.527
 8962TIP3    H151081   1.168   0.690   2.520
 8962TIP3    H251082   1.266   0.603   2.444
 8963TIP3   OH251083   0.600   0.431   1.958
 8963TIP3    H151084   0.631   0.340   1.951
 8963TIP3    H251085   0.541   0.441   1.883
 8964TIP3   OH251086   0.918   0.397   2.771
 8964TIP3    H151087   0.832   0.358   2.788
 8964TIP3    H251088   0.957   0.408   2.858
 8965TIP3   OH251089   0.647   0.581   2.291
 8965TIP3    H151090   0.698   0.503   2.268
 8965TIP3    H251091   0.626   0.622   2.207
 8966TIP3   OH251092   0.591   0.724   2.057
 8966TIP3    H151093   0.542   0.712   1.976
 8966TIP3    H251094   0.682   0.736   2.028
 8967TIP3   OH251095   0.928   0.702   2.915
 8967TIP3    H151096   0.908   0.611   2.935
 8967TIP3    H251097   0.904   0.750   2.995
 8968TIP3   OH251098   0.859   1.156   2.281
 8968TIP3    H151099   0.809   1.091   2.232
 8968TIP3    H251100   0.821   1.155   2.369
 8969TIP3   OH251101   1.270   0.460   2.083
 8969TIP3    H151102   1.176   0.448   2.097
 8969TIP3    H251103   1.300   0.500   2.165
 8970TIP3   OH251104   1.362   0.617   2.295
 8970TIP3    H151105   1.452   0.624   2.327
 8970TIP3    H251106   1.344   0.702   2.256
 8971TIP3   OH251107   0.419   1.106   2.822
 8971TIP3    H151108   0.454   1.057   2.747
 8971TIP3    H251109   0.355   1.047   2.862
 8972TIP3   OH251110   1.092   1.263   2.192
 8972TIP3    H151111   1.096   1.236   2.100
 8972TIP3    H251112   1.011   1.225   2.225
 8973TIP3   OH251113   1.805   0.714   2.227
 8973TIP3    H151114   1.736   0.708   2.161
 8973TIP3    H251115   1.855   0.792   2.203
 8974TIP3   OH251116   1.494   1.572   2.288
 8974TIP3    H151117   1.482   1.501   2.351
 8974TIP3    H251118   1.545   1.638   2.335
 8975TIP3   OH251119   0.644   1.432   2.548
 8975TIP3    H151120   0.668   1.505   2.491
 8975TIP3    H251121   0.582   1.469   2.610
 8976TIP3   OH251122   0.207   0.954   1.997
 8976TIP3    H151123   0.249   0.982   2.078
 8976TIP3    H251124   0.113   0.968   2.012
 8977TIP3   OH251125   0.736   1.175   2.520
 8977TIP3    H151126   0.692   1.260   2.527
 8977TIP3    H251127   0.672   1.113   2.555
 8978TIP3   OH251128   0.671   1.684   2.421
 8978TIP3    H151129   0.577   1.690   2.441
 8978TIP3    H251130   0.712   1.746   2.482
 8979TIP3   OH251131   1.354   1.237   2.019
 8979TIP3    H151132   1.346   1.231   2.114
 8979TIP3    H251133   1.274   1.198   1.986
 8980TIP3   OH251134   1.901   1.778   2.110
 8980TIP3    H151135   1.941   1.865   2.107
 8980TIP3    H251136   1.808   1.795   2.123
 8981TIP3   OH251137   1.478   1.187   2.265
 8981TIP3    H151138   1.469   1.108   2.319
 8981TIP3    H251139   1.481   1.259   2.328
 8982TIP3   OH251140   0.835   1.400   1.902
 8982TIP3    H151141   0.840   1.319   1.852
 8982TIP3    H251142   0.790   1.376   1.983
 8983TIP3   OH251143   0.723   1.358   2.148
 8983TIP3    H151144   0.774   1.302   2.207
 8983TIP3    H251145   0.747   1.447   2.174
 8984TIP3   OH251146   0.323   1.075   2.218
 8984TIP3    H151147   0.263   1.139   2.256
 8984TIP3    H251148   0.390   1.127   2.174
 8985TIP3   OH251149   1.154   0.269   2.309
 8985TIP3    H151150   1.109   0.291   2.227
 8985TIP3    H251151   1.113   0.326   2.374
 8986TIP3   OH251152   1.028   0.407   2.524
 8986TIP3    H151153   1.088   0.482   2.528
 8986TIP3    H251154   0.980   0.411   2.607
 8987TIP3   OH251155   1.065   0.130   2.541
 8987TIP3    H151156   1.046   0.224   2.548
 8987TIP3    H251157   1.105   0.120   2.455
 8988TIP3   OH251158   0.767   1.629   2.172
 8988TIP3    H151159   0.702   1.656   2.107
 8988TIP3    H251160   0.729   1.655   2.256
 8989TIP3   OH251161   0.481   1.258   2.070
 8989TIP3    H151162   0.555   1.302   2.112
 8989TIP3    H251163   0.519   1.213   1.995
 8990TIP3   OH251164   0.190   1.536   2.431
 8990TIP3    H151165   0.139   1.533   2.512
 8990TIP3    H251166   0.144   1.601   2.377
 8991TIP3   OH251167   1.041   1.576   1.878
 8991TIP3    H151168   0.974   1.510   1.894
 8991TIP3    H251169   1.124   1.528   1.882
 8992TIP3   OH251170   1.501   1.613   2.009
 8992TIP3    H151171   1.499   1.600   2.103
 8992TIP3    H251172   1.595   1.617   1.988
 8993TIP3   OH251173   0.647   1.117   1.897
 8993TIP3    H151174   0.667   1.068   1.977
 8993TIP3    H251175   0.730   1.118   1.849
 8994TIP3   OH251176   1.101   1.159   1.931
 8994TIP3    H151177   1.025   1.168   1.874
 8994TIP3    H251178   1.148   1.083   1.897
 8995TIP3   OH251179   0.716   0.975   2.128
 8995TIP3    H151180   0.643   0.921   2.157
 8995TIP3    H251181   0.773   0.916   2.080
 8996TIP3   OH251182   0.846   0.793   1.971
 8996TIP3    H151183   0.841   0.775   1.878
 8996TIP3    H251184   0.938   0.779   1.993
 8997TIP3   OH251185   1.725   1.078   1.872
 8997TIP3    H151186   1.720   1.036   1.786
 8997TIP3    H251187   1.734   1.171   1.852
 8998TIP3   OH251188   0.255   1.420   2.030
 8998TIP3    H151189   0.341   1.382   2.049
 8998TIP3    H251190   0.222   1.367   1.957
 8999TIP3   OH251191   0.088   1.835   2.552
 8999TIP3    H151192  -0.002   1.855   2.578
 8999TIP3    H251193   0.082   1.812   2.459
 9000TIP3   OH251194   0.054   1.581   2.665
 9000TIP3    H151195   0.074   1.571   2.759
 9000TIP3    H251196   0.074   1.673   2.647
 9001TIP3   OH251197   1.776   1.173   2.189
 9001TIP3    H151198   1.856   1.226   2.192
 9001TIP3    H251199   1.767   1.138   2.277
 9002TIP3   OH251200   1.787   1.046   2.431
 9002TIP3    H151201   1.727   0.983   2.472
 9002TIP3    H251202   1.848   1.070   2.500
 9003TIP3   OH251203   1.904   1.281   2.912
 9003TIP3    H151204   1.954   1.203   2.889
 9003TIP3    H251205   1.907   1.285   3.007
 9004TIP3   OH251206   1.871   0.943   2.071
 9004TIP3    H151207   1.823   0.961   1.990
 9004TIP3    H251208   1.852   1.019   2.127
 9005TIP3   OH251209   1.637   0.727   2.010
 9005TIP3    H151210   1.690   0.741   1.931
 9005TIP3    H251211   1.601   0.639   1.998
 9006TIP3   OH251212   1.640   0.844   2.566
 9006TIP3    H151213   1.638   0.760   2.522
 9006TIP3    H251214   1.718   0.840   2.622
 9007TIP3   OH251215   0.241   0.927   2.952
 9007TIP3    H151216   0.166   0.960   3.002
 9007TIP3    H251217   0.304   0.899   3.018
 9008TIP3   OH251218   1.580   0.468   1.956
 9008TIP3    H151219   1.645   0.399   1.967
 9008TIP3    H251220   1.511   0.427   1.904
 9009TIP3   OH251221   1.615   0.612   2.415
 9009TIP3    H151222   1.612   0.517   2.428
 9009TIP3    H251223   1.687   0.626   2.354
 9010TIP3   OH251224   1.574   0.332   2.445
 9010TIP3    H151225   1.650   0.292   2.404
 9010TIP3    H251226   1.499   0.295   2.398
 9011TIP3   OH251227   0.051   0.730   3.141
 9011TIP3    H151228   0.117   0.713   3.209
 9011TIP3    H251229   0.046   0.826   3.136
 9012TIP3   OH251230   1.786   0.293   2.010
 9012TIP3    H151231   1.844   0.253   1.946
 9012TIP3    H251232   1.840   0.360   2.053
 9013TIP3   OH251233   0.331   1.739   2.917
 9013TIP3    H151234   0.374   1.719   3.000
 9013TIP3    H251235   0.394   1.710   2.850
 9014TIP3   OH251236   0.522   1.588   2.762
 9014TIP3    H151237   0.514   1.507   2.813
 9014TIP3    H251238   0.614   1.613   2.773
 9015TIP3   OH251239   0.799   1.632   2.767
 9015TIP3    H151240   0.799   1.708   2.709
 9015TIP3    H251241   0.891   1.607   2.774
 9016TIP3   OH251242   1.522   0.118   2.655
 9016TIP3    H151243   1.535   0.167   2.574
 9016TIP3    H251244   1.541   0.027   2.632
 9017TIP3   OH251245   0.102   0.064   2.097
 9017TIP3    H151246   0.034   0.095   2.037
 9017TIP3    H251247   0.055   0.048   2.179
 9018TIP3   OH251248   0.798   0.107   2.441
 9018TIP3    H151249   0.881   0.087   2.485
 9018TIP3    H251250   0.769   0.023   2.407
 9019TIP3   OH251251   1.411   0.167   2.301
 9019TIP3    H151252   1.321   0.199   2.291
 9019TIP3    H251253   1.401   0.072   2.309
 9020TIP3   OH251254   0.060   1.738   2.292
 9020TIP3    H151255  -0.017   1.730   2.235
 9020TIP3    H251256   0.120   1.794   2.244
 9021TIP3   OH251257   0.827   0.360   2.323
 9021TIP3    H151258   0.799   0.272   2.349
 9021TIP3    H251259   0.880   0.390   2.396
 9022TIP3   OH251260   1.615   1.780   2.437
 9022TIP3    H151261   1.539   1.798   2.492
 9022TIP3    H251262   1.617   1.851   2.373
 9023TIP3   OH251263   0.165   1.689   1.978
 9023TIP3    H151264   0.200   1.750   2.044
 9023TIP3    H251265   0.204   1.605   2.000
 9024TIP3   OH251266   3.185   1.178   2.579
 9024TIP3    H151267   3.163   1.238   2.508
 9024TIP3    H251268   3.105   1.127   2.592
 9025TIP3   OH251269   3.309   1.378   2.739
 9025TIP3    H151270   3.287   1.313   2.672
 9025TIP3    H251271   3.363   1.442   2.693
 9026TIP3   OH251272   1.928   0.648   2.483
 9026TIP3    H151273   1.932   0.726   2.538
 9026TIP3    H251274   1.898   0.680   2.398
 9027TIP3   OH251275   1.874   0.867   2.710
 9027TIP3    H151276   1.941   0.803   2.734
 9027TIP3    H251277   1.896   0.945   2.762
 9028TIP3   OH251278   2.743   1.183   3.002
 9028TIP3    H151279   2.795   1.109   3.033
 9028TIP3    H251280   2.803   1.257   3.003
 9029TIP3   OH251281   2.450   0.339   2.619
 9029TIP3    H151282   2.466   0.430   2.593
 9029TIP3    H251283   2.358   0.338   2.645
 9030TIP3   OH251284   3.156   0.358   2.638
 9030TIP3    H151285   3.190   0.274   2.665
 9030TIP3    H251286   3.101   0.388   2.711
 9031TIP3   OH251287   2.082   0.707   2.771
 9031TIP3    H151288   2.139   0.775   2.808
 9031TIP3    H251289   2.139   0.659   2.710
 9032TIP3   OH251290   2.617   0.730   2.723
 9032TIP3    H151291   2.672   0.806   2.744
 9032TIP3    H251292   2.678   0.659   2.707
 9033TIP3   OH251293   3.117   1.342   2.377
 9033TIP3    H151294   3.075   1.319   2.294
 9033TIP3    H251295   3.110   1.437   2.382
 9034TIP3   OH251296   2.174   0.335   2.987
 9034TIP3    H151297   2.123   0.350   3.067
 9034TIP3    H251298   2.248   0.281   3.016
 9035TIP3   OH251299   2.029   1.291   2.201
 9035TIP3    H151300   2.046   1.336   2.118
 9035TIP3    H251301   2.060   1.352   2.268
 9036TIP3   OH251302   2.947   0.917   2.318
 9036TIP3    H151303   2.887   0.985   2.287
 9036TIP3    H251304   3.026   0.930   2.266
 9037TIP3   OH251305   3.032   0.818   1.967
 9037TIP3    H151306   3.082   0.840   2.046
 9037TIP3    H251307   3.084   0.749   1.925
 9038TIP3   OH251308   3.336   1.021   2.404
 9038TIP3    H151309   3.292   1.074   2.470
 9038TIP3    H251310   3.389   0.959   2.454
 9039TIP3   OH251311   3.201   0.926   2.180
 9039TIP3    H151312   3.245   0.964   2.256
 9039TIP3    H251313   3.254   0.951   2.105
 9040TIP3   OH251314   3.048   1.616   2.358
 9040TIP3    H151315   3.008   1.698   2.385
 9040TIP3    H251316   2.981   1.574   2.304
 9041TIP3   OH251317   3.550   0.092   2.090
 9041TIP3    H151318   3.490   0.122   2.159
 9041TIP3    H251319   3.615   0.162   2.082
 9042TIP3   OH251320   2.400   0.863   2.187
 9042TIP3    H151321   2.335   0.932   2.185
 9042TIP3    H251322   2.394   0.827   2.275
 9043TIP3   OH251323   2.926   1.867   2.341
 9043TIP3    H151324   2.917   1.844   2.248
 9043TIP3    H251325   2.936   1.962   2.341
 9044TIP3   OH251326   2.270   1.799   2.614
 9044TIP3    H151327   2.299   1.814   2.704
 9044TIP3    H251328   2.195   1.740   2.623
 9045TIP3   OH251329   3.206   1.802   2.064
 9045TIP3    H151330   3.255   1.724   2.035
 9045TIP3    H251331   3.230   1.812   2.156
 9046TIP3   OH251332   3.260   1.793   2.336
 9046TIP3    H151333   3.196   1.722   2.344
 9046TIP3    H251334   3.301   1.799   2.422
 9047TIP3   OH251335   2.415   0.174   2.857
 9047TIP3    H151336   2.345   0.119   2.821
 9047TIP3    H251337   2.453   0.217   2.781
 9048TIP3   OH251338   3.357   0.996   1.965
 9048TIP3    H151339   3.351   0.971   1.873
 9048TIP3    H251340   3.445   1.031   1.975
 9049TIP3   OH251341   2.463   0.606   2.530
 9049TIP3    H151342   2.369   0.614   2.546
 9049TIP3    H251343   2.504   0.660   2.598
 9050TIP3   OH251344   2.967   0.673   2.456
 9050TIP3    H151345   2.946   0.761   2.422
 9050TIP3    H251346   3.054   0.654   2.420
 9051TIP3   OH251347   2.816   0.552   2.665
 9051TIP3    H151348   2.880   0.584   2.602
 9051TIP3    H251349   2.861   0.484   2.713
 9052TIP3   OH251350   2.562   0.390   1.928
 9052TIP3    H151351   2.474   0.353   1.925
 9052TIP3    H251352   2.549   0.481   1.954
 9053TIP3   OH251353   1.933   0.471   2.161
 9053TIP3    H151354   2.005   0.505   2.107
 9053TIP3    H251355   1.889   0.550   2.192
 9054TIP3   OH251356   2.190   0.564   2.561
 9054TIP3    H151357   2.104   0.575   2.519
 9054TIP3    H251358   2.186   0.478   2.601
 9055TIP3   OH251359   2.536   0.655   2.008
 9055TIP3    H151360   2.480   0.719   2.050
 9055TIP3    H251361   2.612   0.705   1.978
 9056TIP3   OH251362   2.819   0.897   2.810
 9056TIP3    H151363   2.893   0.837   2.799
 9056TIP3    H251364   2.834   0.938   2.895
 9057TIP3   OH251365   2.761   1.115   2.226
 9057TIP3    H151366   2.703   1.080   2.158
 9057TIP3    H251367   2.702   1.152   2.291
 9058TIP3   OH251368   3.121   0.455   2.160
 9058TIP3    H151369   3.126   0.388   2.229
 9058TIP3    H251370   3.149   0.535   2.203
 9059TIP3   OH251371   3.206   0.672   2.306
 9059TIP3    H151372   3.296   0.655   2.337
 9059TIP3    H251373   3.212   0.757   2.263
 9060TIP3   OH251374   2.958   1.289   2.150
 9060TIP3    H151375   2.913   1.373   2.156
 9060TIP3    H251376   2.892   1.225   2.177
 9061TIP3   OH251377   3.674   0.723   2.224
 9061TIP3    H151378   3.655   0.681   2.140
 9061TIP3    H251379   3.697   0.813   2.201
 9062TIP3   OH251380   2.379   1.412   2.468
 9062TIP3    H151381   2.417   1.499   2.479
 9062TIP3    H251382   2.294   1.428   2.428
 9063TIP3   OH251383   2.122   0.873   1.993
 9063TIP3    H151384   2.172   0.938   2.042
 9063TIP3    H251385   2.031   0.888   2.018
 9064TIP3   OH251386   2.577   1.235   2.397
 9064TIP3    H151387   2.503   1.291   2.422
 9064TIP3    H251388   2.600   1.190   2.478
 9065TIP3   OH251389   2.491   1.664   2.523
 9065TIP3    H151390   2.416   1.721   2.543
 9065TIP3    H251391   2.532   1.647   2.608
 9066TIP3   OH251392   3.368   1.327   2.029
 9066TIP3    H151393   3.399   1.281   2.106
 9066TIP3    H251394   3.291   1.278   2.000
 9067TIP3   OH251395   3.471   1.209   2.251
 9067TIP3    H151396   3.416   1.147   2.299
 9067TIP3    H251397   3.559   1.196   2.286
 9068TIP3   OH251398   2.704   1.418   1.908
 9068TIP3    H151399   2.724   1.337   1.861
 9068TIP3    H251400   2.669   1.389   1.992
 9069TIP3   OH251401   2.567   1.380   2.153
 9069TIP3    H151402   2.576   1.325   2.231
 9069TIP3    H251403   2.568   1.470   2.187
 9070TIP3   OH251404   2.221   1.080   2.151
 9070TIP3    H151405   2.147   1.125   2.191
 9070TIP3    H251406   2.271   1.149   2.108
 9071TIP3   OH251407   3.139   0.286   2.372
 9071TIP3    H151408   3.148   0.325   2.459
 9071TIP3    H251409   3.101   0.200   2.389
 9072TIP3   OH251410   2.847   1.540   2.188
 9072TIP3    H151411   2.759   1.557   2.220
 9072TIP3    H251412   2.869   1.616   2.134
 9073TIP3   OH251413   2.598   1.631   2.266
 9073TIP3    H151414   2.604   1.716   2.222
 9073TIP3    H251415   2.562   1.650   2.352
 9074TIP3   OH251416   2.339   1.296   2.020
 9074TIP3    H151417   2.409   1.339   2.070
 9074TIP3    H251418   2.385   1.255   1.947
 9075TIP3   OH251419   2.109   0.595   1.996
 9075TIP3    H151420   2.126   0.689   1.994
 9075TIP3    H251421   2.140   0.563   1.912
 9076TIP3   OH251422   2.176   0.056   2.731
 9076TIP3    H151423   2.137   0.046   2.644
 9076TIP3    H251424   2.187  -0.034   2.763
 9077TIP3   OH251425   2.130   1.491   2.373
 9077TIP3    H151426   2.091   1.524   2.454
 9077TIP3    H251427   2.141   1.569   2.318
 9078TIP3   OH251428   2.889   1.617   1.851
 9078TIP3    H151429   2.821   1.552   1.871
 9078TIP3    H251430   2.969   1.565   1.842
 9079TIP3   OH251431   3.345   1.587   1.965
 9079TIP3    H151432   3.352   1.498   1.997
 9079TIP3    H251433   3.406   1.591   1.891
 9080TIP3   OH251434   2.487   1.157   1.837
 9080TIP3    H151435   2.508   1.096   1.908
 9080TIP3    H251436   2.571   1.177   1.797
 9081TIP3   OH251437   3.123   1.242   1.934
 9081TIP3    H151438   3.063   1.240   2.008
 9081TIP3    H251439   3.107   1.160   1.888
 9082TIP3   OH251440   2.585   1.003   2.043
 9082TIP3    H151441   2.524   0.953   2.096
 9082TIP3    H251442   2.646   0.938   2.008
 9083TIP3   OH251443   2.753   0.818   1.933
 9083TIP3    H151444   2.753   0.850   1.843
 9083TIP3    H251445   2.845   0.810   1.956
 9084TIP3   OH251446   3.615   1.099   1.922
 9084TIP3    H151447   3.629   1.054   1.839
 9084TIP3    H251448   3.626   1.192   1.902
 9085TIP3   OH251449   2.670   1.859   2.124
 9085TIP3    H151450   2.761   1.837   2.105
 9085TIP3    H251451   2.644   1.920   2.055
 9086TIP3   OH251452   2.096   1.387   1.934
 9086TIP3    H151453   2.185   1.369   1.965
 9086TIP3    H251454   2.074   1.311   1.879
 9087TIP3   OH251455   1.893   1.815   2.486
 9087TIP3    H151456   1.802   1.787   2.475
 9087TIP3    H251457   1.933   1.745   2.538
 9088TIP3   OH251458   2.057   1.610   2.621
 9088TIP3    H151459   2.027   1.661   2.696
 9088TIP3    H251460   2.096   1.532   2.660
 9089TIP3   OH251461   3.727   1.171   2.345
 9089TIP3    H151462   3.812   1.212   2.362
 9089TIP3    H251463   3.709   1.120   2.424
 9090TIP3   OH251464   3.678   1.027   2.568
 9090TIP3    H151465   3.612   0.959   2.578
 9090TIP3    H251466   3.722   1.031   2.653
 9091TIP3   OH251467   3.735   0.981   2.141
 9091TIP3    H151468   3.688   1.020   2.068
 9091TIP3    H251469   3.729   1.046   2.211
 9092TIP3   OH251470   3.608   0.626   1.977
 9092TIP3    H151471   3.648   0.667   1.900
 9092TIP3    H251472   3.565   0.548   1.943
 9093TIP3   OH251473   3.469   0.834   2.564
 9093TIP3    H151474   3.473   0.761   2.502
 9093TIP3    H251475   3.431   0.796   2.644
 9094TIP3   OH251476   3.532   0.378   1.866
 9094TIP3    H151477   3.596   0.344   1.928
 9094TIP3    H251478   3.457   0.318   1.874
 9095TIP3   OH251479   3.471   0.627   2.382
 9095TIP3    H151480   3.484   0.533   2.385
 9095TIP3    H251481   3.539   0.659   2.322
 9096TIP3   OH251482   3.519   0.354   2.381
 9096TIP3    H151483   3.527   0.309   2.465
 9096TIP3    H251484   3.460   0.298   2.330
 9097TIP3   OH251485   2.188   0.332   2.711
 9097TIP3    H151486   2.183   0.236   2.705
 9097TIP3    H251487   2.190   0.350   2.805
 9098TIP3   OH251488   3.737   0.283   2.024
 9098TIP3    H151489   3.799   0.242   1.964
 9098TIP3    H251490   3.789   0.348   2.071
 9099TIP3   OH251491   1.959   0.213   2.260
 9099TIP3    H151492   1.867   0.189   2.257
 9099TIP3    H251493   1.960   0.307   2.238
 9100TIP3   OH251494   3.448   0.025   2.793
 9100TIP3    H151495   3.364   0.046   2.752
 9100TIP3    H251496   3.427   0.011   2.885
 9101TIP3   OH251497   3.562   0.193   2.597
 9101TIP3    H151498   3.529   0.123   2.653
 9101TIP3    H251499   3.657   0.191   2.610
 9102TIP3   OH251500   2.055   0.071   2.480
 9102TIP3    H151501   2.033   0.126   2.406
 9102TIP3    H251502   2.068  -0.016   2.442
 9103TIP3   OH251503   2.114   0.113   2.046
 9103TIP3    H151504   2.053   0.133   1.975
 9103TIP3    H251505   2.070   0.146   2.125
 9104TIP3   OH251506   3.190   0.104   2.738
 9104TIP3    H151507   3.106   0.068   2.708
 9104TIP3    H251508   3.175   0.126   2.830
 9105TIP3   OH251509   3.356   0.163   2.264
 9105TIP3    H151510   3.280   0.216   2.288
 9105TIP3    H251511   3.335   0.075   2.295
 9106TIP3   OH251512   2.144   1.723   2.228
 9106TIP3    H151513   2.056   1.732   2.191
 9106TIP3    H251514   2.154   1.800   2.284
 9107TIP3   OH251515   2.318   0.258   1.910
 9107TIP3    H151516   2.342   0.199   1.838
 9107TIP3    H251517   2.268   0.203   1.970
 9108TIP3   OH251518   2.930   1.782   2.067
 9108TIP3    H151519   3.025   1.798   2.065
 9108TIP3    H251520   2.912   1.741   1.982
 9109TIP3   OH251521   2.272   1.753   1.981
 9109TIP3    H151522   2.242   1.735   2.070
 9109TIP3    H251523   2.338   1.687   1.963
 9110TIP3   OH251524   3.849   0.598   2.400
 9110TIP3    H151525   3.825   0.611   2.492
 9110TIP3    H251526   3.787   0.652   2.351
 9111TIP3   OH251527   3.817   1.033   2.810
 9111TIP3    H151528   3.874   0.960   2.831
 9111TIP3    H251529   3.840   1.101   2.873
 9112TIP3   OH251530   5.221   0.570   2.518
 9112TIP3    H151531   5.217   0.511   2.593
 9112TIP3    H251532   5.294   0.537   2.466
 9113TIP3   OH251533   3.926   0.517   2.686
 9113TIP3    H151534   3.961   0.456   2.751
 9113TIP3    H251535   3.993   0.519   2.617
 9114TIP3   OH251536   4.425   0.681   2.783
 9114TIP3    H151537   4.450   0.589   2.780
 9114TIP3    H251538   4.380   0.697   2.700
 9115TIP3   OH251539   5.238   0.366   2.706
 9115TIP3    H151540   5.238   0.390   2.799
 9115TIP3    H251541   5.321   0.319   2.694
 9116TIP3   OH251542   3.969   1.294   2.391
 9116TIP3    H151543   3.993   1.385   2.375
 9116TIP3    H251544   4.012   1.271   2.473
 9117TIP3   OH251545   4.588   0.094   2.808
 9117TIP3    H151546   4.611   0.001   2.815
 9117TIP3    H251547   4.501   0.094   2.768
 9118TIP3   OH251548   4.848   1.006   2.323
 9118TIP3    H151549   4.776   1.069   2.320
 9118TIP3    H251550   4.916   1.050   2.374
 9119TIP3   OH251551   4.853   0.811   1.989
 9119TIP3    H151552   4.870   0.786   2.080
 9119TIP3    H251553   4.912   0.756   1.937
 9120TIP3   OH251554   4.379   1.139   2.564
 9120TIP3    H151555   4.376   1.084   2.485
 9120TIP3    H251556   4.422   1.219   2.536
 9121TIP3   OH251557   5.348   0.060   2.118
 9121TIP3    H151558   5.306   0.101   2.194
 9121TIP3    H251559   5.421   0.118   2.097
 9122TIP3   OH251560   4.338   0.983   2.339
 9122TIP3    H151561   4.248   0.991   2.308
 9122TIP3    H251562   4.356   0.890   2.336
 9123TIP3   OH251563   5.606   1.354   2.044
 9123TIP3    H151564   5.539   1.378   1.980
 9123TIP3    H251565   5.689   1.370   1.999
 9124TIP3   OH251566   4.039   1.562   2.404
 9124TIP3    H151567   4.113   1.537   2.460
 9124TIP3    H251568   4.053   1.655   2.387
 9125TIP3   OH251569   5.094   1.805   2.116
 9125TIP3    H151570   5.173   1.752   2.103
 9125TIP3    H251571   5.084   1.810   2.211
 9126TIP3   OH251572   4.913   1.604   2.348
 9126TIP3    H151573   4.973   1.675   2.370
 9126TIP3    H251574   4.935   1.535   2.410
 9127TIP3   OH251575   4.731   0.379   2.051
 9127TIP3    H151576   4.674   0.378   2.128
 9127TIP3    H251577   4.705   0.302   2.001
 9128TIP3   OH251578   4.290   0.694   2.550
 9128TIP3    H151579   4.228   0.622   2.535
 9128TIP3    H251580   4.337   0.702   2.467
 9129TIP3   OH251581   4.917   0.752   2.250
 9129TIP3    H151582   4.890   0.838   2.281
 9129TIP3    H251583   5.011   0.749   2.267
 9130TIP3   OH251584   4.411   0.399   1.963
 9130TIP3    H151585   4.371   0.397   2.050
 9130TIP3    H251586   4.364   0.467   1.916
 9131TIP3   OH251587   3.839   0.249   2.602
 9131TIP3    H151588   3.865   0.338   2.626
 9131TIP3    H251589   3.828   0.252   2.506
 9132TIP3   OH251590   3.893   0.458   2.170
 9132TIP3    H151591   3.931   0.519   2.107
 9132TIP3    H251592   3.883   0.510   2.250
 9133TIP3   OH251593   4.483   0.407   2.751
 9133TIP3    H151594   4.427   0.379   2.679
 9133TIP3    H251595   4.567   0.364   2.733
 9134TIP3   OH251596   4.132   0.472   2.510
 9134TIP3    H151597   4.093   0.455   2.424
 9134TIP3    H251598   4.198   0.403   2.520
 9135TIP3   OH251599   4.427   0.722   2.314
 9135TIP3    H151600   4.516   0.691   2.328
 9135TIP3    H251601   4.410   0.708   2.221
 9136TIP3   OH251602   5.202   0.326   2.987
 9136TIP3    H151603   5.159   0.399   3.032
 9136TIP3    H251604   5.130   0.277   2.947
 9137TIP3   OH251605   4.395   0.717   2.042
 9137TIP3    H151606   4.347   0.686   1.965
 9137TIP3    H251607   4.461   0.776   2.007
 9138TIP3   OH251608   4.626   1.270   2.282
 9138TIP3    H151609   4.577   1.205   2.232
 9138TIP3    H251610   4.566   1.298   2.351
 9139TIP3   OH251611   4.966   0.493   2.137
 9139TIP3    H151612   4.885   0.452   2.106
 9139TIP3    H251613   4.940   0.579   2.169
 9140TIP3   OH251614   5.190   0.725   2.287
 9140TIP3    H151615   5.193   0.701   2.380
 9140TIP3    H251616   5.253   0.667   2.245
 9141TIP3   OH251617   4.137   1.270   2.604
 9141TIP3    H151618   4.218   1.218   2.596
 9141TIP3    H251619   4.167   1.361   2.603
 9142TIP3   OH251620   4.850   1.390   2.177
 9142TIP3    H151621   4.883   1.455   2.239
 9142TIP3    H251622   4.783   1.342   2.226
 9143TIP3   OH251623   5.609   0.649   2.208
 9143TIP3    H151624   5.578   0.645   2.117
 9143TIP3    H251625   5.618   0.742   2.227
 9144TIP3   OH251626   5.565   1.577   2.213
 9144TIP3    H151627   5.488   1.627   2.187
 9144TIP3    H251628   5.575   1.510   2.145
 9145TIP3   OH251629   5.232   0.910   2.815
 9145TIP3    H151630   5.143   0.939   2.794
 9145TIP3    H251631   5.219   0.829   2.864
 9146TIP3   OH251632   3.989   0.933   2.048
 9146TIP3    H151633   4.038   0.981   2.114
 9146TIP3    H251634   3.898   0.937   2.077
 9147TIP3   OH251635   4.772   1.385   1.797
 9147TIP3    H151636   4.707   1.315   1.781
 9147TIP3    H251637   4.836   1.345   1.855
 9148TIP3   OH251638   4.104   1.106   2.231
 9148TIP3    H151639   4.047   1.155   2.290
 9148TIP3    H251640   4.157   1.173   2.188
 9149TIP3   OH251641   5.045   0.387   2.384
 9149TIP3    H151642   5.028   0.420   2.295
 9149TIP3    H251643   5.095   0.457   2.426
 9150TIP3   OH251644   4.686   0.620   2.355
 9150TIP3    H151645   4.759   0.673   2.324
 9150TIP3    H251646   4.725   0.562   2.421
 9151TIP3   OH251647   4.789   0.410   2.501
 9151TIP3    H151648   4.787   0.371   2.589
 9151TIP3    H251649   4.876   0.388   2.468
 9152TIP3   OH251650   4.314   0.340   2.236
 9152TIP3    H151651   4.287   0.329   2.327
 9152TIP3    H251652   4.409   0.354   2.241
 9153TIP3   OH251653   4.263   1.316   2.131
 9153TIP3    H151654   4.330   1.296   2.197
 9153TIP3    H251655   4.305   1.295   2.048
 9154TIP3   OH251656   3.987   0.655   2.007
 9154TIP3    H151657   3.997   0.750   2.016
 9154TIP3    H251658   3.998   0.639   1.913
 9155TIP3   OH251659   4.844   1.635   1.879
 9155TIP3    H151660   4.808   1.551   1.853
 9155TIP3    H251661   4.939   1.620   1.883
 9156TIP3   OH251662   5.354   1.702   2.062
 9156TIP3    H151663   5.359   1.627   2.003
 9156TIP3    H251664   5.373   1.778   2.006
 9157TIP3   OH251665   4.409   1.232   1.909
 9157TIP3    H151666   4.433   1.172   1.979
 9157TIP3    H251667   4.479   1.224   1.844
 9158TIP3   OH251668   4.969   1.289   1.956
 9158TIP3    H151669   4.934   1.312   2.041
 9158TIP3    H251670   4.990   1.196   1.963
 9159TIP3   OH251671   4.483   1.086   2.131
 9159TIP3    H151672   4.437   1.042   2.201
 9159TIP3    H251673   4.525   1.016   2.081
 9160TIP3   OH251674   4.592   0.896   1.961
 9160TIP3    H151675   4.592   0.910   1.866
 9160TIP3    H251676   4.681   0.867   1.981
 9161TIP3   OH251677   4.020   1.436   2.062
 9161TIP3    H151678   4.099   1.395   2.098
 9161TIP3    H251679   3.995   1.381   1.988
 9162TIP3   OH251680   5.614   0.861   2.517
 9162TIP3    H151681   5.524   0.845   2.543
 9162TIP3    H251682   5.664   0.861   2.598
 9163TIP3   OH251683   5.662   0.920   2.256
 9163TIP3    H151684   5.677   1.015   2.251
 9163TIP3    H251685   5.648   0.903   2.349
 9164TIP3   OH251686   5.525   0.648   1.949
 9164TIP3    H151687   5.536   0.701   1.870
 9164TIP3    H251688   5.480   0.569   1.919
 9165TIP3   OH251689   5.358   0.813   2.590
 9165TIP3    H151690   5.306   0.733   2.579
 9165TIP3    H251691   5.321   0.855   2.667
 9166TIP3   OH251692   5.398   0.412   1.875
 9166TIP3    H151693   5.431   0.345   1.936
 9166TIP3    H251694   5.303   0.408   1.886
 9167TIP3   OH251695   5.408   0.496   2.336
 9167TIP3    H151696   5.438   0.406   2.349
 9167TIP3    H251697   5.483   0.540   2.294
 9168TIP3   OH251698   5.466   0.229   2.406
 9168TIP3    H151699   5.472   0.220   2.502
 9168TIP3    H251700   5.379   0.195   2.385
 9169TIP3   OH251701   3.862   0.648   2.930
 9169TIP3    H151702   3.873   0.626   2.838
 9169TIP3    H251703   3.912   0.729   2.941
 9170TIP3   OH251704   5.549   0.234   2.032
 9170TIP3    H151705   5.603   0.191   1.965
 9170TIP3    H251706   5.611   0.286   2.083
 9171TIP3   OH251707   3.784   0.270   2.340
 9171TIP3    H151708   3.694   0.304   2.340
 9171TIP3    H251709   3.829   0.322   2.273
 9172TIP3   OH251710   4.773   0.284   2.751
 9172TIP3    H151711   4.717   0.208   2.765
 9172TIP3    H251712   4.862   0.252   2.769
 9173TIP3   OH251713   5.395   7.640   2.708
 9173TIP3    H151714   5.424   7.730   2.694
 9173TIP3    H251715   5.325   7.647   2.773
 9174TIP3   OH251716   5.484   0.231   2.688
 9174TIP3    H151717   5.483   0.224   2.784
 9174TIP3    H251718   5.555   0.292   2.670
 9175TIP3   OH251719   5.035   0.182   2.812
 9175TIP3    H151720   5.090   0.228   2.748
 9175TIP3    H251721   5.084   0.103   2.833
 9176TIP3   OH251722   5.205   0.160   2.334
 9176TIP3    H151723   5.149   0.234   2.357
 9176TIP3    H251724   5.144   0.086   2.329
 9177TIP3   OH251725   4.125   0.292   1.998
 9177TIP3    H151726   4.188   0.229   1.962
 9177TIP3    H251727   4.159   0.313   2.085
 9178TIP3   OH251728   4.582   0.373   2.284
 9178TIP3    H151729   4.615   0.320   2.357
 9178TIP3    H251730   4.607   0.463   2.306
 9179TIP3   OH251731   4.833   1.881   2.021
 9179TIP3    H151732   4.912   1.866   2.073
 9179TIP3    H251733   4.827   1.804   1.964
 9180TIP3   OH251734   4.081   1.667   1.926
 9180TIP3    H151735   4.055   1.600   1.989
 9180TIP3    H251736   4.113   1.618   1.850
 9181TIP3   OH251737   6.869   1.121   2.504
 9181TIP3    H151738   6.824   1.203   2.489
 9181TIP3    H251739   6.808   1.054   2.474
 9182TIP3   OH251740   6.742   0.918   2.909
 9182TIP3    H151741   6.794   0.847   2.871
 9182TIP3    H251742   6.651   0.889   2.900
 9183TIP3   OH251743   5.742   0.616   2.458
 9183TIP3    H151744   5.706   0.698   2.492
 9183TIP3    H251745   5.708   0.610   2.369
 9184TIP3   OH251746   5.774   0.834   2.737
 9184TIP3    H151747   5.729   0.782   2.803
 9184TIP3    H251748   5.867   0.817   2.752
 9185TIP3   OH251749   6.952   1.608   3.033
 9185TIP3    H151750   6.937   1.524   2.990
 9185TIP3    H251751   6.875   1.621   3.088
 9186TIP3   OH251752   6.570   1.246   3.059
 9186TIP3    H151753   6.527   1.193   3.126
 9186TIP3    H251754   6.661   1.215   3.059
 9187TIP3   OH251755   6.291   0.372   2.605
 9187TIP3    H151756   6.284   0.466   2.591
 9187TIP3    H251757   6.215   0.335   2.560
 9188TIP3   OH251758   6.989   0.563   2.541
 9188TIP3    H151759   7.020   0.539   2.628
 9188TIP3    H251760   7.068   0.562   2.486
 9189TIP3   OH251761   5.870   0.533   2.814
 9189TIP3    H151762   5.920   0.524   2.895
 9189TIP3    H251763   5.936   0.535   2.745
 9190TIP3   OH251764   6.398   0.840   2.669
 9190TIP3    H151765   6.448   0.806   2.743
 9190TIP3    H251766   6.339   0.768   2.645
 9191TIP3   OH251767   6.765   1.372   2.443
 9191TIP3    H151768   6.719   1.395   2.362
 9191TIP3    H251769   6.732   1.433   2.508
 9192TIP3   OH251770   5.708   1.201   2.253
 9192TIP3    H151771   5.675   1.248   2.176
 9192TIP3    H251772   5.714   1.268   2.321
 9193TIP3   OH251773   6.969   1.625   2.624
 9193TIP3    H151774   7.008   1.559   2.567
 9193TIP3    H251775   7.031   1.698   2.622
 9194TIP3   OH251776   7.034   1.445   2.420
 9194TIP3    H151777   7.095   1.377   2.389
 9194TIP3    H251778   6.949   1.402   2.423
 9195TIP3   OH251779   6.745   0.918   2.348
 9195TIP3    H151780   6.671   0.968   2.313
 9195TIP3    H251781   6.805   0.909   2.274
 9196TIP3   OH251782   6.754   0.865   1.951
 9196TIP3    H151783   6.808   0.889   2.026
 9196TIP3    H251784   6.800   0.791   1.911
 9197TIP3   OH251785   7.076   1.014   2.361
 9197TIP3    H151786   7.010   1.044   2.424
 9197TIP3    H251787   7.125   0.947   2.408
 9198TIP3   OH251788   6.295   1.038   2.504
 9198TIP3    H151789   6.246   0.984   2.442
 9198TIP3    H251790   6.333   0.975   2.565
 9199TIP3   OH251791   6.435   1.326   2.836
 9199TIP3    H151792   6.411   1.244   2.793
 9199TIP3    H251793   6.476   1.299   2.918
 9200TIP3   OH251794   6.951   0.895   2.147
 9200TIP3    H151795   7.000   0.937   2.217
 9200TIP3    H251796   7.004   0.909   2.069
 9201TIP3   OH251797   6.701   1.606   2.583
 9201TIP3    H151798   6.792   1.614   2.611
 9201TIP3    H251799   6.694   1.663   2.506
 9202TIP3   OH251800   7.273   0.108   2.136
 9202TIP3    H151801   7.232   0.094   2.050
 9202TIP3    H251802   7.350   0.162   2.117
 9203TIP3   OH251803   6.150   0.910   2.296
 9203TIP3    H151804   6.079   0.968   2.270
 9203TIP3    H251805   6.114   0.822   2.287
 9204TIP3   OH251806   7.514   1.472   2.075
 9204TIP3    H151807   7.522   1.567   2.075
 9204TIP3    H251808   7.604   1.440   2.072
 9205TIP3   OH251809   6.729   1.779   2.372
 9205TIP3    H151810   6.709   1.782   2.279
 9205TIP3    H251811   6.693   1.861   2.407
 9206TIP3   OH251812   6.008   1.812   2.568
 9206TIP3    H151813   6.049   1.895   2.593
 9206TIP3    H251814   5.935   1.801   2.628
 9207TIP3   OH251815   6.998   1.747   2.044
 9207TIP3    H151816   7.051   1.677   2.007
 9207TIP3    H251817   7.007   1.738   2.139
 9208TIP3   OH251818   6.992   1.700   2.315
 9208TIP3    H151819   6.905   1.718   2.351
 9208TIP3    H251820   7.014   1.614   2.349
 9209TIP3   OH251821   7.092   0.927   1.914
 9209TIP3    H151822   7.062   0.950   1.826
 9209TIP3    H251823   7.174   0.879   1.899
 9210TIP3   OH251824   6.657   0.304   2.162
 9210TIP3    H151825   6.591   0.319   2.229
 9210TIP3    H251826   6.616   0.244   2.101
 9211TIP3   OH251827   6.251   0.639   2.547
 9211TIP3    H151828   6.158   0.625   2.564
 9211TIP3    H251829   6.258   0.646   2.452
 9212TIP3   OH251830   6.753   0.703   2.529
 9212TIP3    H151831   6.750   0.780   2.472
 9212TIP3    H251832   6.837   0.663   2.510
 9213TIP3   OH251833   6.845   0.687   2.795
 9213TIP3    H151834   6.809   0.690   2.706
 9213TIP3    H251835   6.894   0.605   2.798
 9214TIP3   OH251836   6.363   0.386   1.964
 9214TIP3    H151837   6.320   0.384   2.049
 9214TIP3    H251838   6.304   0.436   1.907
 9215TIP3   OH251839   5.676   0.420   2.649
 9215TIP3    H151840   5.736   0.446   2.719
 9215TIP3    H251841   5.693   0.482   2.578
 9216TIP3   OH251842   5.735   0.404   2.156
 9216TIP3    H151843   5.802   0.430   2.093
 9216TIP3    H251844   5.691   0.485   2.181
 9217TIP3   OH251845   5.993   0.548   2.560
 9217TIP3    H151846   5.909   0.573   2.523
 9217TIP3    H251847   6.009   0.460   2.527
 9218TIP3   OH251848   6.292   0.626   2.276
 9218TIP3    H151849   6.388   0.621   2.277
 9218TIP3    H251850   6.271   0.657   2.188
 9219TIP3   OH251851   6.253   0.693   2.017
 9219TIP3    H151852   6.219   0.644   1.942
 9219TIP3    H251853   6.333   0.734   1.985
 9220TIP3   OH251854   6.548   0.716   2.871
 9220TIP3    H151855   6.637   0.681   2.871
 9220TIP3    H251856   6.514   0.694   2.958
 9221TIP3   OH251857   6.067   0.303   2.456
 9221TIP3    H151858   6.022   0.223   2.482
 9221TIP3    H251859   6.088   0.290   2.364
 9222TIP3   OH251860   6.545   1.085   2.247
 9222TIP3    H151861   6.472   1.060   2.190
 9222TIP3    H251862   6.506   1.145   2.311
 9223TIP3   OH251863   6.924   0.338   2.177
 9223TIP3    H151864   6.829   0.332   2.163
 9223TIP3    H251865   6.945   0.430   2.157
 9224TIP3   OH251866   6.990   0.607   2.108
 9224TIP3    H151867   7.085   0.605   2.106
 9224TIP3    H251868   6.968   0.695   2.141
 9225TIP3   OH251869   6.709   1.259   2.113
 9225TIP3    H151870   6.679   1.343   2.149
 9225TIP3    H251871   6.656   1.193   2.157
 9226TIP3   OH251872   7.611   0.693   2.117
 9226TIP3    H151873   7.533   0.641   2.101
 9226TIP3    H251874   7.581   0.784   2.109
 9227TIP3   OH251875   7.382   1.477   2.329
 9227TIP3    H151876   7.319   1.405   2.329
 9227TIP3    H251877   7.430   1.467   2.246
 9228TIP3   OH251878   6.335   1.462   2.575
 9228TIP3    H151879   6.304   1.545   2.540
 9228TIP3    H251880   6.277   1.444   2.649
 9229TIP3   OH251881   5.858   0.844   2.072
 9229TIP3    H151882   5.914   0.917   2.097
 9229TIP3    H251883   5.781   0.852   2.128
 9230TIP3   OH251884   6.400   1.263   2.398
 9230TIP3    H151885   6.389   1.335   2.460
 9230TIP3    H251886   6.359   1.188   2.442
 9231TIP3   OH251887   6.249   1.705   2.487
 9231TIP3    H151888   6.160   1.735   2.505
 9231TIP3    H251889   6.305   1.775   2.520
 9232TIP3   OH251890   7.146   1.298   2.043
 9232TIP3    H151891   7.160   1.272   2.134
 9232TIP3    H251892   7.068   1.248   2.015
 9233TIP3   OH251893   7.539   1.747   2.094
 9233TIP3    H151894   7.583   1.790   2.020
 9233TIP3    H251895   7.463   1.802   2.111
 9234TIP3   OH251896   7.214   1.244   2.313
 9234TIP3    H151897   7.155   1.171   2.329
 9234TIP3    H251898   7.302   1.206   2.315
 9235TIP3   OH251899   6.444   1.387   1.910
 9235TIP3    H151900   6.452   1.302   1.867
 9235TIP3    H251901   6.407   1.367   1.996
 9236TIP3   OH251902   6.322   1.375   2.158
 9236TIP3    H151903   6.348   1.325   2.236
 9236TIP3    H251904   6.334   1.466   2.184
 9237TIP3   OH251905   5.955   1.078   2.188
 9237TIP3    H151906   5.876   1.120   2.220
 9237TIP3    H251907   6.005   1.148   2.145
 9238TIP3   OH251908   6.851   0.342   2.453
 9238TIP3    H151909   6.874   0.338   2.360
 9238TIP3    H251910   6.899   0.417   2.486
 9239TIP3   OH251911   6.633   1.498   2.231
 9239TIP3    H151912   6.544   1.526   2.251
 9239TIP3    H251913   6.675   1.575   2.193
 9240TIP3   OH251914   6.528   0.545   2.510
 9240TIP3    H151915   6.605   0.602   2.516
 9240TIP3    H251916   6.456   0.599   2.542
 9241TIP3   OH251917   6.638   0.311   2.621
 9241TIP3    H151918   6.593   0.391   2.596
 9241TIP3    H251919   6.718   0.311   2.569
 9242TIP3   OH251920   6.385   1.622   2.260
 9242TIP3    H151921   6.406   1.705   2.215
 9242TIP3    H251922   6.335   1.648   2.336
 9243TIP3   OH251923   6.219   0.366   2.206
 9243TIP3    H151924   6.214   0.457   2.234
 9243TIP3    H251925   6.295   0.331   2.252
 9244TIP3   OH251926   7.123   0.794   2.756
 9244TIP3    H151927   7.033   0.772   2.782
 9244TIP3    H251928   7.178   0.744   2.816
 9245TIP3   OH251929   6.085   1.281   2.051
 9245TIP3    H151930   6.158   1.325   2.095
 9245TIP3    H251931   6.125   1.231   1.980
 9246TIP3   OH251932   5.856   0.577   1.974
 9246TIP3    H151933   5.866   0.664   2.012
 9246TIP3    H251934   5.794   0.589   1.902
 9247TIP3   OH251935   6.031   0.059   2.773
 9247TIP3    H151936   5.988   0.054   2.688
 9247TIP3    H251937   6.015  -0.026   2.814
 9248TIP3   OH251938   5.693   1.430   2.408
 9248TIP3    H151939   5.642   1.482   2.346
 9248TIP3    H251940   5.723   1.494   2.473
 9249TIP3   OH251941   6.645   1.573   1.889
 9249TIP3    H151942   6.577   1.506   1.901
 9249TIP3    H251943   6.725   1.523   1.874
 9250TIP3   OH251944   7.137   1.546   1.928
 9250TIP3    H151945   7.154   1.464   1.973
 9250TIP3    H251946   7.203   1.550   1.859
 9251TIP3   OH251947   6.211   1.116   1.872
 9251TIP3    H151948   6.236   1.071   1.952
 9251TIP3    H251949   6.293   1.131   1.826
 9252TIP3   OH251950   6.905   1.204   1.937
 9252TIP3    H151951   6.837   1.215   2.004
 9252TIP3    H251952   6.865   1.147   1.872
 9253TIP3   OH251953   6.323   1.003   2.098
 9253TIP3    H151954   6.270   0.961   2.167
 9253TIP3    H251955   6.370   0.932   2.056
 9254TIP3   OH251956   6.479   0.832   1.949
 9254TIP3    H151957   6.475   0.853   1.856
 9254TIP3    H251958   6.572   0.837   1.971
 9255TIP3   OH251959   7.418   1.052   1.869
 9255TIP3    H151960   7.372   1.015   1.794
 9255TIP3    H251961   7.388   1.142   1.873
 9256TIP3   OH251962   6.479   1.851   2.141
 9256TIP3    H151963   6.567   1.821   2.116
 9256TIP3    H251964   6.461   1.924   2.082
 9257TIP3   OH251965   5.856   1.369   1.927
 9257TIP3    H151966   5.934   1.350   1.979
 9257TIP3    H251967   5.842   1.289   1.876
 9258TIP3   OH251968   7.440   1.094   2.322
 9258TIP3    H151969   7.450   1.039   2.244
 9258TIP3    H251970   7.463   1.036   2.395
 9259TIP3   OH251971   7.470   0.885   2.506
 9259TIP3    H151972   7.378   0.862   2.499
 9259TIP3    H251973   7.517   0.808   2.473
 9260TIP3   OH251974   7.449   0.917   2.108
 9260TIP3    H151975   7.434   0.959   2.023
 9260TIP3    H251976   7.386   0.845   2.111
 9261TIP3   OH251977   7.304   0.764   1.825
 9261TIP3    H151978   7.316   0.722   1.910
 9261TIP3    H251979   7.240   0.708   1.780
 9262TIP3   OH251980   7.206   0.811   2.495
 9262TIP3    H151981   7.207   0.722   2.460
 9262TIP3    H251982   7.172   0.802   2.584
 9263TIP3   OH251983   5.688   0.685   2.952
 9263TIP3    H151984   5.744   0.620   2.910
 9263TIP3    H251985   5.739   0.717   3.026
 9264TIP3   OH251986   7.286   0.391   1.894
 9264TIP3    H151987   7.285   0.468   1.951
 9264TIP3    H251988   7.194   0.367   1.885
 9265TIP3   OH251989   7.212   0.553   2.386
 9265TIP3    H151990   7.219   0.457   2.381
 9265TIP3    H251991   7.244   0.583   2.300
 9266TIP3   OH251992   7.314   0.684   2.923
 9266TIP3    H151993   7.404   0.653   2.923
 9266TIP3    H251994   7.269   0.628   2.986
 9267TIP3   OH251995   7.252   0.279   2.362
 9267TIP3    H151996   7.277   0.220   2.434
 9267TIP3    H251997   7.236   0.220   2.288
 9268TIP3   OH251998   7.482   0.281   2.059
 9268TIP3    H151999   7.538   0.235   1.996
 9268TIP3    H252000   7.421   0.330   2.004
 9269TIP3   OH252001   5.735   0.183   2.324
 9269TIP3    H152002   5.645   0.183   2.356
 9269TIP3    H252003   5.743   0.266   2.276
 9270TIP3   OH252004   7.156   1.828   2.597
 9270TIP3    H152005   7.202   1.798   2.518
 9270TIP3    H252006   7.202   1.908   2.622
 9271TIP3   OH252007   7.134   0.228   2.699
 9271TIP3    H152008   7.210   0.195   2.651
 9271TIP3    H252009   7.061   0.173   2.669
 9272TIP3   OH252010   7.362   0.129   2.571
 9272TIP3    H152011   7.399   0.042   2.558
 9272TIP3    H252012   7.438   0.187   2.576
 9273TIP3   OH252013   5.928   0.067   2.500
 9273TIP3    H152014   5.853   0.097   2.449
 9273TIP3    H252015   5.938  -0.025   2.477
 9274TIP3   OH252016   5.909   0.061   2.140
 9274TIP3    H152017   5.941   0.136   2.091
 9274TIP3    H252018   5.844   0.097   2.200
 9275TIP3   OH252019   6.486   0.108   2.517
 9275TIP3    H152020   6.537   0.174   2.565
 9275TIP3    H252021   6.478   0.035   2.579
 9276TIP3   OH252022   6.945   0.044   2.604
 9276TIP3    H152023   6.852   0.051   2.628
 9276TIP3    H252024   6.969  -0.045   2.627
 9277TIP3   OH252025   6.917   0.063   2.315
 9277TIP3    H152026   6.928   0.149   2.273
 9277TIP3    H252027   6.932   0.080   2.408
 9278TIP3   OH252028   6.037   0.277   2.011
 9278TIP3    H152029   6.099   0.235   1.952
 9278TIP3    H252030   6.091   0.313   2.081
 9279TIP3   OH252031   6.450   0.325   2.348
 9279TIP3    H152032   6.449   0.247   2.404
 9279TIP3    H252033   6.471   0.397   2.407
 9280TIP3   OH252034   6.725   1.734   2.093
 9280TIP3    H152035   6.817   1.751   2.073
 9280TIP3    H252036   6.692   1.685   2.018
 9281TIP3   OH252037   7.325   1.745   2.386
 9281TIP3    H152038   7.337   1.653   2.362
 9281TIP3    H252039   7.329   1.792   2.303
 9282TIP3   OH252040   7.593   0.658   2.390
 9282TIP3    H152041   7.603   0.679   2.297
 9282TIP3    H252042   7.547   0.574   2.390
 9283TIP3   OH252043   7.572   0.302   2.559
 9283TIP3    H152044   7.667   0.306   2.567
 9283TIP3    H252045   7.553   0.341   2.474
 9284TIP3   OH252046   7.493   1.791   2.596
 9284TIP3    H152047   7.443   1.788   2.515
 9284TIP3    H252048   7.495   1.701   2.627
 9285TIP3   OH252049   7.469   1.514   2.608
 9285TIP3    H152050   7.444   1.488   2.519
 9285TIP3    H252051   7.564   1.507   2.610
 9286TIP3   OH252052   7.585   0.656   2.921
 9286TIP3    H152053   7.655   0.663   2.856
 9286TIP3    H252054   7.629   0.671   3.005
 9287TIP3   OH252055   7.497   0.400   2.312
 9287TIP3    H152056   7.407   0.376   2.335
 9287TIP3    H252057   7.508   0.370   2.222
 9288TIP3   OH252058   1.077   2.919   2.574
 9288TIP3    H152059   1.078   3.014   2.570
 9288TIP3    H252060   1.080   2.891   2.482
 9289TIP3   OH252061   1.093   2.834   2.897
 9289TIP3    H152062   1.089   2.790   2.982
 9289TIP3    H252063   1.171   2.889   2.901
 9290TIP3   OH252064   1.389   2.941   2.686
 9290TIP3    H152065   1.363   2.959   2.776
 9290TIP3    H252066   1.422   2.851   2.688
 9291TIP3   OH252067   0.202   2.520   2.310
 9291TIP3    H152068   0.237   2.608   2.296
 9291TIP3    H252069   0.107   2.531   2.312
 9292TIP3   OH252070   0.187   2.870   2.749
 9292TIP3    H152071   0.232   2.786   2.748
 9292TIP3    H252072   0.119   2.863   2.682
 9293TIP3   OH252073   1.216   3.570   2.792
 9293TIP3    H152074   1.299   3.542   2.830
 9293TIP3    H252075   1.164   3.598   2.867
 9294TIP3   OH252076   0.896   3.090   2.866
 9294TIP3    H152077   0.930   3.002   2.851
 9294TIP3    H252078   0.974   3.144   2.878
 9295TIP3   OH252079   1.225   2.366   2.426
 9295TIP3    H152080   1.150   2.338   2.478
 9295TIP3    H252081   1.291   2.392   2.491
 9296TIP3   OH252082   0.299   2.625   2.746
 9296TIP3    H152083   0.230   2.572   2.786
 9296TIP3    H252084   0.328   2.573   2.671
 9297TIP3   OH252085   0.869   2.661   2.726
 9297TIP3    H152086   0.830   2.653   2.813
 9297TIP3    H252087   0.800   2.631   2.667
 9298TIP3   OH252088   1.080   3.188   2.497
 9298TIP3    H152089   1.101   3.189   2.403
 9298TIP3    H252090   1.083   3.280   2.523
 9299TIP3   OH252091   0.156   3.247   2.285
 9299TIP3    H152092   0.133   3.314   2.221
 9299TIP3    H252093   0.181   3.296   2.363
 9300TIP3   OH252094   0.774   2.008   2.835
 9300TIP3    H152095   0.755   1.970   2.921
 9300TIP3    H252096   0.709   2.079   2.825
 9301TIP3   OH252097   1.476   3.428   2.760
 9301TIP3    H152098   1.434   3.355   2.715
 9301TIP3    H252099   1.476   3.499   2.696
 9302TIP3   OH252100   1.347   3.215   2.639
 9302TIP3    H152101   1.262   3.212   2.597
 9302TIP3    H252102   1.369   3.123   2.655
 9303TIP3   OH252103   1.086   2.831   2.313
 9303TIP3    H152104   1.012   2.880   2.276
 9303TIP3    H252105   1.155   2.838   2.247
 9304TIP3   OH252106   1.140   2.715   1.972
 9304TIP3    H152107   1.195   2.729   2.049
 9304TIP3    H252108   1.189   2.655   1.917
 9305TIP3   OH252109   1.429   2.914   2.401
 9305TIP3    H152110   1.398   2.946   2.485
 9305TIP3    H252111   1.471   2.830   2.421
 9306TIP3   OH252112   0.662   3.251   2.821
 9306TIP3    H152113   0.677   3.294   2.736
 9306TIP3    H252114   0.741   3.199   2.836
 9307TIP3   OH252115   1.326   2.793   2.168
 9307TIP3    H152116   1.363   2.836   2.245
 9307TIP3    H252117   1.384   2.821   2.096
 9308TIP3   OH252118   1.100   3.447   2.571
 9308TIP3    H152119   1.138   3.488   2.648
 9308TIP3    H252120   1.094   3.517   2.506
 9309TIP3   OH252121   1.646   1.881   2.113
 9309TIP3    H152122   1.587   1.931   2.170
 9309TIP3    H252123   1.677   1.944   2.048
 9310TIP3   OH252124   0.310   2.772   2.293
 9310TIP3    H152125   0.289   2.860   2.262
 9310TIP3    H252126   0.369   2.787   2.367
 9311TIP3   OH252127   1.829   3.383   2.012
 9311TIP3    H152128   1.844   3.476   2.029
 9311TIP3    H252129   1.911   3.340   2.034
 9312TIP3   OH252130   7.618   3.407   2.915
 9312TIP3    H152131   7.523   3.417   2.911
 9312TIP3    H252132   7.632   3.343   2.986
 9313TIP3   OH252133   1.095   3.650   2.383
 9313TIP3    H152134   1.084   3.659   2.288
 9313TIP3    H252135   1.065   3.734   2.418
 9314TIP3   OH252136   0.408   3.562   2.624
 9314TIP3    H152137   0.355   3.627   2.670
 9314TIP3    H252138   0.348   3.523   2.560
 9315TIP3   OH252139   1.357   3.658   2.087
 9315TIP3    H152140   1.409   3.585   2.053
 9315TIP3    H252141   1.379   3.660   2.181
 9316TIP3   OH252142   1.373   3.652   2.370
 9316TIP3    H152143   1.279   3.644   2.388
 9316TIP3    H252144   1.415   3.635   2.454
 9317TIP3   OH252145   0.574   2.193   2.830
 9317TIP3    H152146   0.520   2.211   2.752
 9317TIP3    H252147   0.530   2.241   2.900
 9318TIP3   OH252148   1.478   2.850   1.947
 9318TIP3    H152149   1.447   2.854   1.856
 9318TIP3    H252150   1.570   2.874   1.942
 9319TIP3   OH252151   1.069   2.174   2.050
 9319TIP3    H152152   0.998   2.167   2.114
 9319TIP3    H252153   1.027   2.159   1.966
 9320TIP3   OH252154   0.646   2.555   2.597
 9320TIP3    H152155   0.551   2.555   2.588
 9320TIP3    H252156   0.675   2.480   2.546
 9321TIP3   OH252157   1.113   2.620   2.483
 9321TIP3    H152158   1.112   2.687   2.415
 9321TIP3    H252159   1.156   2.545   2.442
 9322TIP3   OH252160   0.686   2.288   1.896
 9322TIP3    H152161   0.662   2.265   1.985
 9322TIP3    H252162   0.608   2.267   1.844
 9323TIP3   OH252163   0.162   2.161   2.585
 9323TIP3    H152164   0.252   2.193   2.594
 9323TIP3    H252165   0.155   2.134   2.494
 9324TIP3   OH252166   0.178   2.300   2.144
 9324TIP3    H152167   0.180   2.334   2.055
 9324TIP3    H252168   0.192   2.377   2.199
 9325TIP3   OH252169   0.994   2.280   2.546
 9325TIP3    H152170   0.901   2.294   2.525
 9325TIP3    H252171   0.993   2.239   2.633
 9326TIP3   OH252172   0.379   2.479   2.528
 9326TIP3    H152173   0.318   2.484   2.453
 9326TIP3    H252174   0.399   2.386   2.536
 9327TIP3   OH252175   0.634   2.546   2.191
 9327TIP3    H152176   0.728   2.551   2.207
 9327TIP3    H252177   0.601   2.486   2.258
 9328TIP3   OH252178   1.300   2.046   2.956
 9328TIP3    H152179   1.352   1.976   2.995
 9328TIP3    H252180   1.276   2.013   2.869
 9329TIP3   OH252181   0.438   2.563   1.993
 9329TIP3    H152182   0.487   2.542   1.914
 9329TIP3    H252183   0.502   2.554   2.064
 9330TIP3   OH252184   0.445   2.205   2.568
 9330TIP3    H152185   0.430   2.112   2.554
 9330TIP3    H252186   0.526   2.224   2.521
 9331TIP3   OH252187   0.862   2.987   2.248
 9331TIP3    H152188   0.794   2.929   2.212
 9331TIP3    H252189   0.816   3.039   2.314
 9332TIP3   OH252190   1.269   2.349   1.962
 9332TIP3    H152191   1.197   2.303   2.006
 9332TIP3    H252192   1.310   2.401   2.031
 9333TIP3   OH252193   1.387   2.513   2.147
 9333TIP3    H152194   1.435   2.484   2.225
 9333TIP3    H252195   1.366   2.604   2.165
 9334TIP3   OH252196   1.068   3.163   2.211
 9334TIP3    H152197   1.030   3.251   2.209
 9334TIP3    H252198   0.992   3.105   2.219
 9335TIP3   OH252199   1.689   3.373   2.262
 9335TIP3    H152200   1.645   3.289   2.276
 9335TIP3    H252201   1.722   3.368   2.173
 9336TIP3   OH252202   0.660   3.393   2.581
 9336TIP3    H152203   0.705   3.477   2.567
 9336TIP3    H252204   0.567   3.414   2.572
 9337TIP3   OH252205   0.299   2.807   1.974
 9337TIP3    H152206   0.279   2.857   2.053
 9337TIP3    H252207   0.344   2.729   2.006
 9338TIP3   OH252208   0.792   3.192   2.431
 9338TIP3    H152209   0.746   3.255   2.486
 9338TIP3    H252210   0.881   3.190   2.466
 9339TIP3   OH252211   0.672   3.674   2.537
 9339TIP3    H152212   0.579   3.675   2.560
 9339TIP3    H252213   0.703   3.762   2.557
 9340TIP3   OH252214   1.498   3.195   2.025
 9340TIP3    H152215   1.526   3.163   2.111
 9340TIP3    H252216   1.406   3.169   2.019
 9341TIP3   OH252217   1.873   3.646   2.093
 9341TIP3    H152218   1.941   3.714   2.095
 9341TIP3    H252219   1.793   3.691   2.121
 9342TIP3   OH252220   1.588   3.101   2.265
 9342TIP3    H152221   1.523   3.051   2.315
 9342TIP3    H252222   1.669   3.050   2.275
 9343TIP3   OH252223   0.771   3.348   1.960
 9343TIP3    H152224   0.789   3.263   1.919
 9343TIP3    H252225   0.740   3.327   2.048
 9344TIP3   OH252226   0.655   3.302   2.208
 9344TIP3    H152227   0.698   3.252   2.278
 9344TIP3    H252228   0.664   3.393   2.235
 9345TIP3   OH252229   0.265   3.018   2.177
 9345TIP3    H152230   0.209   3.079   2.224
 9345TIP3    H252231   0.333   3.073   2.138
 9346TIP3   OH252232   1.253   2.150   2.253
 9346TIP3    H152233   1.188   2.164   2.184
 9346TIP3    H252234   1.244   2.226   2.310
 9347TIP3   OH252235   0.962   3.412   2.216
 9347TIP3    H152236   0.882   3.450   2.252
 9347TIP3    H252237   1.015   3.488   2.191
 9348TIP3   OH252238   0.889   2.535   2.301
 9348TIP3    H152239   0.944   2.568   2.371
 9348TIP3    H252240   0.843   2.460   2.339
 9349TIP3   OH252241   0.952   2.016   2.456
 9349TIP3    H152242   0.980   2.100   2.492
 9349TIP3    H252243   1.019   1.954   2.485
 9350TIP3   OH252244   0.732   3.553   2.292
 9350TIP3    H152245   0.749   3.622   2.228
 9350TIP3    H252246   0.713   3.599   2.374
 9351TIP3   OH252247   0.608   2.170   2.135
 9351TIP3    H152248   0.591   2.220   2.216
 9351TIP3    H252249   0.691   2.126   2.151
 9352TIP3   OH252250   0.433   3.203   2.061
 9352TIP3    H152251   0.493   3.253   2.116
 9352TIP3    H252252   0.490   3.142   2.013
 9353TIP3   OH252253   0.214   2.427   1.890
 9353TIP3    H152254   0.290   2.462   1.937
 9353TIP3    H252255   0.179   2.502   1.843
 9354TIP3   OH252256   1.724   3.496   2.857
 9354TIP3    H152257   1.640   3.461   2.826
 9354TIP3    H252258   1.719   3.590   2.838
 9355TIP3   OH252259   0.110   2.015   2.818
 9355TIP3    H152260   0.132   2.057   2.735
 9355TIP3    H252261   0.175   1.946   2.828
 9356TIP3   OH252262   0.203   3.461   2.467
 9356TIP3    H152263   0.127   3.468   2.525
 9356TIP3    H252264   0.175   3.502   2.385
 9357TIP3   OH252265   0.993   3.502   1.900
 9357TIP3    H152266   0.920   3.448   1.930
 9357TIP3    H252267   1.065   3.440   1.887
 9358TIP3   OH252268   1.476   3.457   1.944
 9358TIP3    H152269   1.498   3.372   1.982
 9358TIP3    H252270   1.540   3.470   1.874
 9359TIP3   OH252271   0.603   3.016   1.956
 9359TIP3    H152272   0.627   2.948   2.019
 9359TIP3    H252273   0.687   3.050   1.925
 9360TIP3   OH252274   1.233   3.138   1.996
 9360TIP3    H152275   1.178   3.140   2.074
 9360TIP3    H252276   1.199   3.065   1.944
 9361TIP3   OH252277   0.693   2.811   2.116
 9361TIP3    H152278   0.649   2.736   2.157
 9361TIP3    H252279   0.756   2.771   2.055
 9362TIP3   OH252280   0.865   2.703   1.930
 9362TIP3    H152281   0.957   2.710   1.958
 9362TIP3    H252282   0.859   2.615   1.891
 9363TIP3   OH252283   1.745   2.932   1.873
 9363TIP3    H152284   1.724   2.902   1.784
 9363TIP3    H252285   1.729   3.027   1.871
 9364TIP3   OH252286   0.821   3.745   2.120
 9364TIP3    H152287   0.915   3.728   2.116
 9364TIP3    H252288   0.806   3.814   2.056
 9365TIP3   OH252289   0.172   3.245   1.956
 9365TIP3    H152290   0.257   3.256   1.998
 9365TIP3    H252291   0.160   3.151   1.950
 9366TIP3   OH252292   0.044   3.745   2.532
 9366TIP3    H152293  -0.048   3.770   2.521
 9366TIP3    H252294   0.040   3.662   2.579
 9367TIP3   OH252295   7.680   3.494   2.655
 9367TIP3    H152296   7.684   3.434   2.729
 9367TIP3    H252297   7.591   3.530   2.658
 9368TIP3   OH252298   1.817   2.951   2.309
 9368TIP3    H152299   1.887   3.015   2.324
 9368TIP3    H252300   1.813   2.900   2.390
 9369TIP3   OH252301   1.847   2.787   2.086
 9369TIP3    H152302   1.806   2.833   2.013
 9369TIP3    H252303   1.828   2.841   2.163
 9370TIP3   OH252304   0.105   2.105   2.317
 9370TIP3    H152305   0.010   2.116   2.318
 9370TIP3    H252306   0.137   2.174   2.259
 9371TIP3   OH252307   1.516   3.654   2.610
 9371TIP3    H152308   1.594   3.662   2.555
 9371TIP3    H252309   1.524   3.726   2.672
 9372TIP3   OH252310   0.484   3.481   2.881
 9372TIP3    H152311   0.470   3.504   2.789
 9372TIP3    H252312   0.543   3.406   2.879
 9373TIP3   OH252313   1.024   2.107   2.757
 9373TIP3    H152314   0.946   2.060   2.787
 9373TIP3    H252315   1.092   2.040   2.752
 9374TIP3   OH252316   1.814   2.075   2.411
 9374TIP3    H152317   1.841   1.990   2.447
 9374TIP3    H252318   1.812   2.134   2.486
 9375TIP3   OH252319   0.357   1.941   2.540
 9375TIP3    H152320   0.263   1.926   2.547
 9375TIP3    H252321   0.394   1.854   2.526
 9376TIP3   OH252322   0.216   1.914   2.149
 9376TIP3    H152323   0.274   1.963   2.091
 9376TIP3    H252324   0.185   1.978   2.212
 9377TIP3   OH252325   0.783   1.857   2.605
 9377TIP3    H152326   0.832   1.913   2.545
 9377TIP3    H252327   0.767   1.911   2.682
 9378TIP3   OH252328   1.467   1.989   2.301
 9378TIP3    H152329   1.397   2.052   2.280
 9378TIP3    H252330   1.444   1.957   2.389
 9379TIP3   OH252331   0.124   3.550   2.214
 9379TIP3    H152332   0.057   3.542   2.146
 9379TIP3    H252333   0.164   3.635   2.198
 9380TIP3   OH252334   0.401   2.054   1.993
 9380TIP3    H152335   0.447   1.984   1.947
 9380TIP3    H252336   0.467   2.091   2.052
 9381TIP3   OH252337   0.867   2.126   2.226
 9381TIP3    H152338   0.894   2.067   2.297
 9381TIP3    H252339   0.822   2.198   2.270
 9382TIP3   OH252340   1.083   3.651   2.108
 9382TIP3    H152341   1.177   3.666   2.096
 9382TIP3    H252342   1.054   3.612   2.025
 9383TIP3   OH252343   1.707   3.616   2.399
 9383TIP3    H152344   1.696   3.529   2.361
 9383TIP3    H252345   1.690   3.676   2.327
 9384TIP3   OH252346   0.268   3.598   1.917
 9384TIP3    H152347   0.253   3.657   1.991
 9384TIP3    H252348   0.356   3.563   1.931
 9385TIP3   OH252349   3.148   2.969   2.568
 9385TIP3    H152350   3.123   3.048   2.521
 9385TIP3    H252351   3.120   2.984   2.658
 9386TIP3   OH252352   1.943   2.566   2.551
 9386TIP3    H152353   1.973   2.592   2.638
 9386TIP3    H252354   1.849   2.552   2.562
 9387TIP3   OH252355   2.970   3.675   2.811
 9387TIP3    H152356   3.045   3.646   2.760
 9387TIP3    H252357   2.922   3.595   2.832
 9388TIP3   OH252358   3.337   2.288   2.578
 9388TIP3    H152359   3.313   2.368   2.626
 9388TIP3    H252360   3.407   2.316   2.520
 9389TIP3   OH252361   2.143   2.598   2.760
 9389TIP3    H152362   2.181   2.558   2.839
 9389TIP3    H252363   2.172   2.543   2.688
 9390TIP3   OH252364   2.485   2.679   2.748
 9390TIP3    H152365   2.518   2.637   2.827
 9390TIP3    H252366   2.474   2.606   2.686
 9391TIP3   OH252367   3.116   3.194   2.410
 9391TIP3    H152368   3.070   3.178   2.327
 9391TIP3    H252369   3.099   3.286   2.429
 9392TIP3   OH252370   2.023   3.138   2.330
 9392TIP3    H152371   2.019   3.176   2.242
 9392TIP3    H252372   2.047   3.211   2.387
 9393TIP3   OH252373   3.193   3.604   2.666
 9393TIP3    H152374   3.256   3.663   2.624
 9393TIP3    H252375   3.239   3.570   2.743
 9394TIP3   OH252376   3.365   3.260   2.523
 9394TIP3    H152377   3.279   3.243   2.484
 9394TIP3    H252378   3.427   3.240   2.453
 9395TIP3   OH252379   2.954   2.811   2.224
 9395TIP3    H152380   2.901   2.886   2.252
 9395TIP3    H252381   3.044   2.844   2.222
 9396TIP3   OH252382   2.952   2.751   1.953
 9396TIP3    H152383   2.961   2.765   2.047
 9396TIP3    H252384   2.999   2.670   1.936
 9397TIP3   OH252385   3.357   2.899   2.396
 9397TIP3    H152386   3.286   2.922   2.455
 9397TIP3    H252387   3.395   2.820   2.434
 9398TIP3   OH252388   2.511   2.893   2.575
 9398TIP3    H152389   2.480   2.852   2.494
 9398TIP3    H252390   2.513   2.822   2.639
 9399TIP3   OH252391   2.838   3.437   2.870
 9399TIP3    H152392   2.783   3.360   2.854
 9399TIP3    H252393   2.927   3.403   2.876
 9400TIP3   OH252394   2.610   3.068   2.838
 9400TIP3    H152395   2.616   3.019   2.756
 9400TIP3    H252396   2.701   3.091   2.859
 9401TIP3   OH252397   3.230   2.806   2.165
 9401TIP3    H152398   3.286   2.847   2.231
 9401TIP3    H252399   3.278   2.819   2.083
 9402TIP3   OH252400   3.100   3.459   2.455
 9402TIP3    H152401   3.132   3.498   2.536
 9402TIP3    H252402   3.042   3.525   2.417
 9403TIP3   OH252403   2.401   2.775   2.343
 9403TIP3    H152404   2.322   2.821   2.315
 9403TIP3    H252405   2.375   2.683   2.346
 9404TIP3   OH252406   3.758   3.407   2.016
 9404TIP3    H152407   3.781   3.499   2.032
 9404TIP3    H252408   3.840   3.366   1.990
 9405TIP3   OH252409   2.955   3.654   2.333
 9405TIP3    H152410   2.982   3.693   2.250
 9405TIP3    H252411   2.933   3.729   2.389
 9406TIP3   OH252412   2.236   3.603   2.613
 9406TIP3    H152413   2.280   3.562   2.688
 9406TIP3    H252414   2.176   3.535   2.581
 9407TIP3   OH252415   3.353   2.826   1.909
 9407TIP3    H152416   3.312   2.855   1.827
 9407TIP3    H252417   3.441   2.863   1.907
 9408TIP3   OH252418   2.872   2.189   1.931
 9408TIP3    H152419   2.850   2.216   2.020
 9408TIP3    H252420   2.815   2.114   1.914
 9409TIP3   OH252421   2.453   2.476   2.563
 9409TIP3    H152422   2.361   2.451   2.566
 9409TIP3    H252423   2.476   2.473   2.470
 9410TIP3   OH252424   2.998   2.590   2.383
 9410TIP3    H152425   2.974   2.672   2.340
 9410TIP3    H252426   3.082   2.566   2.344
 9411TIP3   OH252427   3.016   2.496   2.645
 9411TIP3    H152428   3.013   2.549   2.565
 9411TIP3    H252429   2.956   2.423   2.627
 9412TIP3   OH252430   2.505   2.248   1.880
 9412TIP3    H152431   2.487   2.255   1.974
 9412TIP3    H252432   2.453   2.318   1.841
 9413TIP3   OH252433   1.808   2.270   2.611
 9413TIP3    H152434   1.771   2.355   2.587
 9413TIP3    H252435   1.786   2.260   2.704
 9414TIP3   OH252436   2.823   2.288   2.588
 9414TIP3    H152437   2.736   2.267   2.623
 9414TIP3    H252438   2.882   2.230   2.636
 9415TIP3   OH252439   2.184   2.427   2.535
 9415TIP3    H152440   2.096   2.462   2.523
 9415TIP3    H252441   2.186   2.348   2.481
 9416TIP3   OH252442   2.506   2.471   2.290
 9416TIP3    H152443   2.600   2.473   2.309
 9416TIP3    H252444   2.500   2.505   2.200
 9417TIP3   OH252445   2.507   2.542   2.028
 9417TIP3    H152446   2.463   2.517   1.947
 9417TIP3    H252447   2.572   2.607   2.002
 9418TIP3   OH252448   2.209   2.204   2.366
 9418TIP3    H152449   2.185   2.115   2.392
 9418TIP3    H252450   2.283   2.192   2.306
 9419TIP3   OH252451   2.760   3.011   2.274
 9419TIP3    H152452   2.690   2.976   2.220
 9419TIP3    H252453   2.715   3.054   2.347
 9420TIP3   OH252454   3.177   2.322   2.019
 9420TIP3    H152455   3.141   2.293   2.103
 9420TIP3    H252456   3.266   2.350   2.039
 9421TIP3   OH252457   3.231   2.537   2.243
 9421TIP3    H152458   3.311   2.504   2.202
 9421TIP3    H252459   3.228   2.630   2.218
 9422TIP3   OH252460   2.959   3.171   2.177
 9422TIP3    H152461   2.926   3.260   2.186
 9422TIP3    H252462   2.888   3.115   2.207
 9423TIP3   OH252463   3.763   2.304   2.149
 9423TIP3    H152464   3.676   2.330   2.119
 9423TIP3    H252465   3.752   2.289   2.243
 9424TIP3   OH252466   3.559   3.412   2.213
 9424TIP3    H152467   3.540   3.322   2.240
 9424TIP3    H252468   3.628   3.403   2.147
 9425TIP3   OH252469   3.439   2.699   3.060
 9425TIP3    H152470   3.382   2.720   3.134
 9425TIP3    H252471   3.401   2.619   3.023
 9426TIP3   OH252472   2.383   3.327   2.526
 9426TIP3    H152473   2.420   3.410   2.497
 9426TIP3    H252474   2.290   3.332   2.503
 9427TIP3   OH252475   2.114   2.729   2.066
 9427TIP3    H152476   2.152   2.794   2.124
 9427TIP3    H252477   2.019   2.743   2.072
 9428TIP3   OH252478   2.564   3.129   2.441
 9428TIP3    H152479   2.508   3.196   2.481
 9428TIP3    H252480   2.549   3.051   2.494
 9429TIP3   OH252481   2.460   3.588   2.457
 9429TIP3    H152482   2.380   3.616   2.500
 9429TIP3    H252483   2.524   3.656   2.477
 9430TIP3   OH252484   3.377   3.222   2.041
 9430TIP3    H152485   3.401   3.188   2.127
 9430TIP3    H252486   3.294   3.179   2.020
 9431TIP3   OH252487   3.805   3.674   2.081
 9431TIP3    H152488   3.865   3.726   2.134
 9431TIP3    H252489   3.782   3.732   2.008
 9432TIP3   OH252490   3.486   3.127   2.285
 9432TIP3    H152491   3.438   3.054   2.324
 9432TIP3    H252492   3.576   3.096   2.278
 9433TIP3   OH252493   2.683   3.315   1.953
 9433TIP3    H152494   2.696   3.236   1.901
 9433TIP3    H252495   2.648   3.283   2.037
 9434TIP3   OH252496   2.547   3.242   2.188
 9434TIP3    H152497   2.561   3.198   2.272
 9434TIP3    H252498   2.556   3.335   2.208
 9435TIP3   OH252499   2.199   2.936   2.235
 9435TIP3    H152500   2.134   2.986   2.284
 9435TIP3    H252501   2.247   3.002   2.185
 9436TIP3   OH252502   3.179   2.280   2.345
 9436TIP3    H152503   3.195   2.369   2.312
 9436TIP3    H252504   3.223   2.278   2.430
 9437TIP3   OH252505   2.852   3.417   2.222
 9437TIP3    H152506   2.759   3.438   2.227
 9437TIP3    H252507   2.895   3.490   2.268
 9438TIP3   OH252508   2.771   2.439   2.358
 9438TIP3    H152509   2.844   2.500   2.356
 9438TIP3    H252510   2.779   2.393   2.441
 9439TIP3   OH252511   2.940   2.143   2.360
 9439TIP3    H152512   2.902   2.184   2.438
 9439TIP3    H252513   3.024   2.186   2.349
 9440TIP3   OH252514   2.588   3.505   2.232
 9440TIP3    H152515   2.614   3.584   2.185
 9440TIP3    H252516   2.541   3.537   2.308
 9441TIP3   OH252517   2.459   2.226   2.159
 9441TIP3    H152518   2.454   2.309   2.207
 9441TIP3    H252519   2.550   2.199   2.167
 9442TIP3   OH252520   3.284   2.516   2.720
 9442TIP3    H152521   3.190   2.524   2.706
 9442TIP3    H252522   3.294   2.518   2.815
 9443TIP3   OH252523   2.310   3.148   2.090
 9443TIP3    H152524   2.386   3.189   2.132
 9443TIP3    H252525   2.346   3.104   2.013
 9444TIP3   OH252526   2.090   2.457   2.009
 9444TIP3    H152527   2.105   2.545   2.045
 9444TIP3    H252528   2.125   2.462   1.919
 9445TIP3   OH252529   2.098   3.381   2.477
 9445TIP3    H152530   2.029   3.408   2.537
 9445TIP3    H252531   2.087   3.439   2.401
 9446TIP3   OH252532   2.892   3.522   1.926
 9446TIP3    H152533   2.827   3.464   1.966
 9446TIP3    H252534   2.966   3.464   1.906
 9447TIP3   OH252535   3.354   3.472   1.920
 9447TIP3    H152536   3.373   3.398   1.978
 9447TIP3    H252537   3.417   3.463   1.848
 9448TIP3   OH252538   2.451   3.000   1.907
 9448TIP3    H152539   2.483   2.959   1.988
 9448TIP3    H252540   2.529   3.037   1.866
 9449TIP3   OH252541   3.126   3.128   1.964
 9449TIP3    H152542   3.067   3.133   2.039
 9449TIP3    H252543   3.086   3.063   1.906
 9450TIP3   OH252544   2.552   2.887   2.138
 9450TIP3    H152545   2.507   2.842   2.210
 9450TIP3    H252546   2.594   2.817   2.088
 9451TIP3   OH252547   2.678   2.736   1.944
 9451TIP3    H152548   2.662   2.774   1.857
 9451TIP3    H252549   2.773   2.740   1.955
 9452TIP3   OH252550   3.588   2.956   1.839
 9452TIP3    H152551   3.592   2.931   1.746
 9452TIP3    H252552   3.599   3.051   1.839
 9453TIP3   OH252553   2.703   3.718   2.109
 9453TIP3    H152554   2.796   3.708   2.129
 9453TIP3    H252555   2.701   3.777   2.033
 9454TIP3   OH252556   2.048   3.217   2.061
 9454TIP3    H152557   2.142   3.211   2.075
 9454TIP3    H252558   2.031   3.158   1.988
 9455TIP3   OH252559   1.885   3.728   2.572
 9455TIP3    H152560   1.825   3.695   2.504
 9455TIP3    H252561   1.907   3.651   2.623
 9456TIP3   OH252562   1.959   3.489   2.703
 9456TIP3    H152563   1.877   3.470   2.748
 9456TIP3    H252564   2.021   3.507   2.773
 9457TIP3   OH252565   3.744   3.024   2.268
 9457TIP3    H152566   3.818   3.084   2.275
 9457TIP3    H252567   3.761   2.958   2.335
 9458TIP3   OH252568   3.811   2.831   2.450
 9458TIP3    H152569   3.755   2.758   2.475
 9458TIP3    H252570   3.897   2.809   2.487
 9459TIP3   OH252571   3.716   2.841   2.053
 9459TIP3    H152572   3.674   2.890   1.982
 9459TIP3    H252573   3.720   2.903   2.126
 9460TIP3   OH252574   3.626   2.610   1.917
 9460TIP3    H152575   3.655   2.683   1.971
 9460TIP3    H252576   3.584   2.550   1.979
 9461TIP3   OH252577   3.434   2.654   2.513
 9461TIP3    H152578   3.466   2.575   2.471
 9461TIP3    H252579   3.385   2.623   2.590
 9462TIP3   OH252580   3.495   2.297   1.798
 9462TIP3    H152581   3.504   2.322   1.889
 9462TIP3    H252582   3.405   2.266   1.789
 9463TIP3   OH252583   3.520   2.404   2.407
 9463TIP3    H152584   3.604   2.359   2.417
 9463TIP3    H252585   3.504   2.405   2.313
 9464TIP3   OH252586   3.634   2.002   2.407
 9464TIP3    H152587   3.627   1.910   2.429
 9464TIP3    H252588   3.545   2.029   2.387
 9465TIP3   OH252589   3.932   2.103   2.050
 9465TIP3    H152590   3.870   2.047   2.005
 9465TIP3    H252591   3.879   2.176   2.083
 9466TIP3   OH252592   2.135   3.531   2.914
 9466TIP3    H152593   2.106   3.489   2.995
 9466TIP3    H252594   2.222   3.494   2.897
 9467TIP3   OH252595   2.379   3.457   2.800
 9467TIP3    H152596   2.420   3.395   2.739
 9467TIP3    H252597   2.453   3.501   2.842
 9468TIP3   OH252598   2.598   3.591   2.908
 9468TIP3    H152599   2.684   3.549   2.911
 9468TIP3    H252600   2.591   3.637   2.992
 9469TIP3   OH252601   3.002   2.115   2.694
 9469TIP3    H152602   2.955   2.039   2.661
 9469TIP3    H252603   3.095   2.089   2.692
 9470TIP3   OH252604   2.134   1.937   2.412
 9470TIP3    H152605   2.047   1.909   2.438
 9470TIP3    H252606   2.192   1.904   2.481
 9471TIP3   OH252607   2.028   2.021   2.128
 9471TIP3    H152608   2.105   2.054   2.082
 9471TIP3    H252609   2.046   2.037   2.221
 9472TIP3   OH252610   2.840   1.917   2.597
 9472TIP3    H152611   2.870   1.888   2.511
 9472TIP3    H252612   2.751   1.882   2.605
 9473TIP3   OH252613   3.269   2.029   2.679
 9473TIP3    H152614   3.301   2.099   2.624
 9473TIP3    H252615   3.303   1.949   2.639
 9474TIP3   OH252616   3.367   2.054   2.356
 9474TIP3    H152617   3.306   2.122   2.326
 9474TIP3    H252618   3.321   1.972   2.340
 9475TIP3   OH252619   2.075   3.551   2.258
 9475TIP3    H152620   1.989   3.558   2.218
 9475TIP3    H252621   2.113   3.638   2.251
 9476TIP3   OH252622   2.256   2.111   1.998
 9476TIP3    H152623   2.306   2.057   1.937
 9476TIP3    H252624   2.322   2.148   2.057
 9477TIP3   OH252625   2.747   2.230   2.179
 9477TIP3    H152626   2.803   2.173   2.232
 9477TIP3    H252627   2.749   2.314   2.225
 9478TIP3   OH252628   3.002   3.734   2.077
 9478TIP3    H152629   2.983   3.822   2.042
 9478TIP3    H252630   2.970   3.674   2.009
 9479TIP3   OH252631   2.191   3.496   1.946
 9479TIP3    H152632   2.169   3.489   2.039
 9479TIP3    H252633   2.286   3.494   1.943
 9480TIP3   OH252634   4.994   2.924   2.561
 9480TIP3    H152635   5.002   3.018   2.545
 9480TIP3    H252636   4.917   2.897   2.512
 9481TIP3   OH252637   5.270   3.258   2.746
 9481TIP3    H152638   5.193   3.268   2.802
 9481TIP3    H252639   5.343   3.256   2.808
 9482TIP3   OH252640   4.269   3.115   2.825
 9482TIP3    H152641   4.279   3.206   2.853
 9482TIP3    H252642   4.358   3.084   2.811
 9483TIP3   OH252643   4.052   2.758   2.562
 9483TIP3    H152644   4.084   2.667   2.568
 9483TIP3    H252645   4.132   2.810   2.549
 9484TIP3   OH252646   5.039   3.524   2.737
 9484TIP3    H152647   5.026   3.431   2.755
 9484TIP3    H252648   5.072   3.560   2.819
 9485TIP3   OH252649   5.171   2.226   2.513
 9485TIP3    H152650   5.197   2.198   2.601
 9485TIP3    H252651   5.251   2.258   2.473
 9486TIP3   OH252652   4.418   2.601   2.593
 9486TIP3    H152653   4.469   2.536   2.545
 9486TIP3    H252654   4.328   2.567   2.592
 9487TIP3   OH252655   5.001   3.178   2.430
 9487TIP3    H152656   4.947   3.162   2.353
 9487TIP3    H252657   4.980   3.267   2.456
 9488TIP3   OH252658   5.262   2.226   2.772
 9488TIP3    H152659   5.277   2.169   2.847
 9488TIP3    H252660   5.330   2.293   2.779
 9489TIP3   OH252661   3.983   3.165   2.306
 9489TIP3    H152662   4.047   3.190   2.240
 9489TIP3    H252663   4.002   3.221   2.381
 9490TIP3   OH252664   5.252   3.539   2.497
 9490TIP3    H152665   5.251   3.443   2.487
 9490TIP3    H252666   5.297   3.553   2.580
 9491TIP3   OH252667   5.277   3.265   2.471
 9491TIP3    H152668   5.194   3.221   2.448
 9491TIP3    H252669   5.284   3.252   2.566
 9492TIP3   OH252670   4.802   2.852   2.366
 9492TIP3    H152671   4.718   2.898   2.365
 9492TIP3    H252672   4.852   2.892   2.295
 9493TIP3   OH252673   4.877   2.726   1.952
 9493TIP3    H152674   4.934   2.746   2.027
 9493TIP3    H252675   4.917   2.649   1.912
 9494TIP3   OH252676   5.188   2.841   2.377
 9494TIP3    H152677   5.133   2.874   2.448
 9494TIP3    H252678   5.232   2.765   2.414
 9495TIP3   OH252679   4.310   2.848   2.519
 9495TIP3    H152680   4.352   2.932   2.538
 9495TIP3    H252681   4.365   2.783   2.562
 9496TIP3   OH252682   5.075   2.760   2.139
 9496TIP3    H152683   5.118   2.806   2.211
 9496TIP3    H252684   5.135   2.770   2.065
 9497TIP3   OH252685   4.943   3.442   2.487
 9497TIP3    H152686   4.984   3.478   2.566
 9497TIP3    H252687   4.902   3.518   2.445
 9498TIP3   OH252688   4.246   2.711   2.286
 9498TIP3    H152689   4.178   2.771   2.257
 9498TIP3    H252690   4.272   2.745   2.372
 9499TIP3   OH252691   5.576   3.360   2.065
 9499TIP3    H152692   5.582   3.454   2.050
 9499TIP3    H252693   5.665   3.327   2.048
 9500TIP3   OH252694   4.858   3.685   2.367
 9500TIP3    H152695   4.824   3.681   2.278
 9500TIP3    H252696   4.824   3.768   2.401
 9501TIP3   OH252697   4.110   3.680   2.634
 9501TIP3    H152698   4.142   3.674   2.724
 9501TIP3    H252699   4.039   3.616   2.629
 9502TIP3   OH252700   5.090   3.649   2.039
 9502TIP3    H152701   5.141   3.572   2.012
 9502TIP3    H252702   5.116   3.664   2.130
 9503TIP3   OH252703   5.129   3.689   2.309
 9503TIP3    H152704   5.038   3.684   2.340
 9503TIP3    H252705   5.178   3.635   2.371
 9504TIP3   OH252706   4.228   2.169   2.899
 9504TIP3    H152707   4.156   2.106   2.889
 9504TIP3    H252708   4.237   2.210   2.813
 9505TIP3   OH252709   5.207   2.752   1.891
 9505TIP3    H152710   5.188   2.792   1.806
 9505TIP3    H252711   5.292   2.787   1.917
 9506TIP3   OH252712   4.669   2.118   1.998
 9506TIP3    H152713   4.689   2.164   2.079
 9506TIP3    H252714   4.729   2.043   1.997
 9507TIP3   OH252715   4.831   2.574   2.406
 9507TIP3    H152716   4.815   2.668   2.404
 9507TIP3    H252717   4.909   2.562   2.352
 9508TIP3   OH252718   5.021   2.438   2.590
 9508TIP3    H152719   4.973   2.476   2.517
 9508TIP3    H252720   5.066   2.362   2.553
 9509TIP3   OH252721   3.695   2.228   2.715
 9509TIP3    H152722   3.785   2.215   2.747
 9509TIP3    H252723   3.705   2.247   2.622
 9510TIP3   OH252724   4.574   3.018   2.317
 9510TIP3    H152725   4.510   2.971   2.264
 9510TIP3    H252726   4.528   3.037   2.399
 9511TIP3   OH252727   4.978   2.293   2.159
 9511TIP3    H152728   4.886   2.292   2.182
 9511TIP3    H252729   5.013   2.371   2.202
 9512TIP3   OH252730   5.074   2.525   2.284
 9512TIP3    H152731   5.154   2.530   2.335
 9512TIP3    H252732   5.078   2.601   2.226
 9513TIP3   OH252733   4.808   3.127   2.217
 9513TIP3    H152734   4.789   3.221   2.213
 9513TIP3    H252735   4.727   3.088   2.251
 9514TIP3   OH252736   5.478   2.495   2.172
 9514TIP3    H152737   5.439   2.474   2.087
 9514TIP3    H252738   5.506   2.586   2.164
 9515TIP3   OH252739   5.504   3.381   2.341
 9515TIP3    H152740   5.429   3.338   2.382
 9515TIP3    H252741   5.490   3.369   2.247
 9516TIP3   OH252742   4.992   2.754   2.797
 9516TIP3    H152743   4.987   2.823   2.731
 9516TIP3    H252744   5.074   2.708   2.778
 9517TIP3   OH252745   4.325   3.350   2.578
 9517TIP3    H152746   4.349   3.438   2.549
 9517TIP3    H252747   4.232   3.341   2.554
 9518TIP3   OH252748   3.961   2.717   2.050
 9518TIP3    H152749   4.011   2.779   2.104
 9518TIP3    H252750   3.872   2.751   2.050
 9519TIP3   OH252751   4.445   3.092   2.550
 9519TIP3    H152752   4.403   3.177   2.556
 9519TIP3    H252753   4.487   3.080   2.636
 9520TIP3   OH252754   4.361   3.622   2.508
 9520TIP3    H152755   4.276   3.649   2.543
 9520TIP3    H252756   4.417   3.698   2.521
 9521TIP3   OH252757   5.222   3.169   2.017
 9521TIP3    H152758   5.257   3.114   2.087
 9521TIP3    H252759   5.131   3.142   2.009
 9522TIP3   OH252760   5.601   3.631   2.038
 9522TIP3    H152761   5.618   3.682   1.959
 9522TIP3    H252762   5.551   3.690   2.094
 9523TIP3   OH252763   5.329   2.998   2.199
 9523TIP3    H152764   5.284   2.954   2.270
 9523TIP3    H252765   5.422   2.990   2.221
 9524TIP3   OH252766   4.553   3.261   1.930
 9524TIP3    H152767   4.559   3.175   1.887
 9524TIP3    H252768   4.518   3.241   2.017
 9525TIP3   OH252769   4.433   3.244   2.185
 9525TIP3    H152770   4.486   3.192   2.244
 9525TIP3    H252771   4.441   3.334   2.218
 9526TIP3   OH252772   4.079   2.916   2.201
 9526TIP3    H152773   4.027   2.963   2.266
 9526TIP3    H252774   4.128   2.985   2.155
 9527TIP3   OH252775   5.000   2.090   2.354
 9527TIP3    H152776   5.008   2.143   2.274
 9527TIP3    H252777   5.063   2.127   2.414
 9528TIP3   OH252778   4.725   3.387   2.216
 9528TIP3    H152779   4.642   3.421   2.252
 9528TIP3    H252780   4.773   3.465   2.188
 9529TIP3   OH252781   4.611   2.417   2.457
 9529TIP3    H152782   4.679   2.482   2.441
 9529TIP3    H252783   4.651   2.353   2.516
 9530TIP3   OH252784   4.757   2.087   2.478
 9530TIP3    H152785   4.776   2.065   2.569
 9530TIP3    H252786   4.841   2.076   2.433
 9531TIP3   OH252787   4.476   3.500   2.283
 9531TIP3    H152788   4.491   3.576   2.227
 9531TIP3    H252789   4.437   3.536   2.362
 9532TIP3   OH252790   5.207   2.580   2.740
 9532TIP3    H152791   5.154   2.511   2.701
 9532TIP3    H252792   5.279   2.534   2.784
 9533TIP3   OH252793   4.186   3.160   2.090
 9533TIP3    H152794   4.262   3.202   2.131
 9533TIP3    H252795   4.222   3.114   2.014
 9534TIP3   OH252796   3.982   2.443   2.039
 9534TIP3    H152797   3.971   2.538   2.045
 9534TIP3    H252798   3.902   2.407   2.077
 9535TIP3   OH252799   5.398   3.520   2.944
 9535TIP3    H152800   5.416   3.552   2.855
 9535TIP3    H252801   5.424   3.428   2.942
 9536TIP3   OH252802   4.048   3.360   2.506
 9536TIP3    H152803   4.010   3.382   2.591
 9536TIP3    H252804   4.019   3.430   2.447
 9537TIP3   OH252805   4.741   3.460   1.897
 9537TIP3    H152806   4.676   3.392   1.917
 9537TIP3    H252807   4.822   3.411   1.880
 9538TIP3   OH252808   5.224   3.433   1.934
 9538TIP3    H152809   5.242   3.348   1.973
 9538TIP3    H252810   5.291   3.443   1.866
 9539TIP3   OH252811   4.321   3.004   1.907
 9539TIP3    H152812   4.345   2.953   1.985
 9539TIP3    H252813   4.402   3.012   1.857
 9540TIP3   OH252814   4.956   3.106   1.979
 9540TIP3    H152815   4.900   3.101   2.057
 9540TIP3    H252816   4.918   3.042   1.918
 9541TIP3   OH252817   4.418   2.870   2.134
 9541TIP3    H152818   4.366   2.803   2.180
 9541TIP3    H252819   4.484   2.821   2.087
 9542TIP3   OH252820   4.602   2.739   1.982
 9542TIP3    H152821   4.587   2.745   1.888
 9542TIP3    H252822   4.697   2.733   1.991
 9543TIP3   OH252823   5.446   2.888   1.901
 9543TIP3    H152824   5.458   2.872   1.808
 9543TIP3    H252825   5.465   2.982   1.912
 9544TIP3   OH252826   4.549   3.715   2.130
 9544TIP3    H152827   4.642   3.703   2.115
 9544TIP3    H252828   4.521   3.777   2.062
 9545TIP3   OH252829   3.982   3.267   1.926
 9545TIP3    H152830   4.053   3.245   1.986
 9545TIP3    H252831   3.956   3.183   1.887
 9546TIP3   OH252832   3.960   3.454   2.759
 9546TIP3    H152833   3.887   3.427   2.815
 9546TIP3    H252834   4.022   3.496   2.818
 9547TIP3   OH252835   5.594   2.956   2.278
 9547TIP3    H152836   5.644   3.030   2.311
 9547TIP3    H252837   5.583   2.899   2.354
 9548TIP3   OH252838   5.541   2.758   2.456
 9548TIP3    H152839   5.454   2.719   2.460
 9548TIP3    H252840   5.598   2.696   2.502
 9549TIP3   OH252841   5.576   2.747   2.096
 9549TIP3    H152842   5.521   2.795   2.033
 9549TIP3    H252843   5.592   2.811   2.166
 9550TIP3   OH252844   5.391   2.445   1.913
 9550TIP3    H152845   5.387   2.487   1.827
 9550TIP3    H252846   5.389   2.351   1.893
 9551TIP3   OH252847   5.297   2.609   2.477
 9551TIP3    H152848   5.340   2.524   2.464
 9551TIP3    H252849   5.274   2.610   2.570
 9552TIP3   OH252850   5.344   2.188   1.817
 9552TIP3    H152851   5.354   2.097   1.845
 9552TIP3    H252852   5.253   2.209   1.835
 9553TIP3   OH252853   5.399   2.358   2.426
 9553TIP3    H152854   5.439   2.279   2.463
 9553TIP3    H252855   5.451   2.377   2.348
 9554TIP3   OH252856   5.409   2.445   2.873
 9554TIP3    H152857   5.502   2.426   2.887
 9554TIP3    H252858   5.368   2.425   2.957
 9555TIP3   OH252859   3.754   2.250   2.435
 9555TIP3    H152860   3.732   2.157   2.427
 9555TIP3    H252861   3.848   2.251   2.454
 9556TIP3   OH252862   5.436   3.633   2.689
 9556TIP3    H152863   5.483   3.632   2.606
 9556TIP3    H252864   5.412   3.725   2.702
 9557TIP3   OH252865   4.357   3.386   2.858
 9557TIP3    H152866   4.362   3.375   2.763
 9557TIP3    H252867   4.444   3.362   2.890
 9558TIP3   OH252868   4.855   2.013   2.727
 9558TIP3    H152869   4.809   1.938   2.764
 9558TIP3    H252870   4.947   1.986   2.724
 9559TIP3   OH252871   4.509   1.990   2.392
 9559TIP3    H152872   4.594   2.019   2.424
 9559TIP3    H252873   4.486   1.915   2.447
 9560TIP3   OH252874   5.119   1.926   2.728
 9560TIP3    H152875   5.180   1.922   2.655
 9560TIP3    H252876   5.171   1.897   2.804
 9561TIP3   OH252877   5.090   1.829   2.389
 9561TIP3    H152878   5.050   1.916   2.389
 9561TIP3    H252879   5.171   1.839   2.440
 9562TIP3   OH252880   3.958   3.552   2.325
 9562TIP3    H152881   3.881   3.537   2.271
 9562TIP3    H252882   3.985   3.642   2.304
 9563TIP3   OH252883   4.712   2.248   2.246
 9563TIP3    H152884   4.723   2.182   2.315
 9563TIP3    H252885   4.666   2.320   2.290
 9564TIP3   OH252886   4.816   3.635   2.092
 9564TIP3    H152887   4.908   3.652   2.072
 9564TIP3    H252888   4.784   3.583   2.019
 9565TIP3   OH252889   5.536   3.652   2.420
 9565TIP3    H152890   5.519   3.559   2.404
 9565TIP3    H252891   5.505   3.696   2.341
 9566TIP3   OH252892   4.159   3.617   1.975
 9566TIP3    H152893   4.158   3.606   2.070
 9566TIP3    H252894   4.219   3.550   1.943
 9567TIP3   OH252895   6.863   2.881   2.538
 9567TIP3    H152896   6.819   2.964   2.551
 9567TIP3    H252897   6.806   2.832   2.479
 9568TIP3   OH252898   7.299   3.237   2.712
 9568TIP3    H152899   7.364   3.174   2.743
 9568TIP3    H252900   7.299   3.306   2.779
 9569TIP3   OH252901   5.983   3.229   2.944
 9569TIP3    H152902   5.892   3.244   2.971
 9569TIP3    H252903   6.030   3.219   3.027
 9570TIP3   OH252904   5.676   2.553   2.573
 9570TIP3    H152905   5.726   2.494   2.517
 9570TIP3    H252906   5.674   2.509   2.658
 9571TIP3   OH252907   6.990   2.275   2.581
 9571TIP3    H152908   7.015   2.238   2.665
 9571TIP3    H252909   7.014   2.367   2.587
 9572TIP3   OH252910   6.707   3.109   2.502
 9572TIP3    H152911   6.720   3.119   2.408
 9572TIP3    H252912   6.757   3.180   2.542
 9573TIP3   OH252913   7.073   2.233   2.853
 9573TIP3    H152914   7.030   2.147   2.853
 9573TIP3    H252915   7.147   2.223   2.913
 9574TIP3   OH252916   5.725   3.206   2.312
 9574TIP3    H152917   5.735   3.210   2.217
 9574TIP3    H252918   5.653   3.266   2.331
 9575TIP3   OH252919   7.129   3.248   2.491
 9575TIP3    H152920   7.162   3.178   2.434
 9575TIP3    H252921   7.188   3.247   2.566
 9576TIP3   OH252922   6.726   2.776   2.323
 9576TIP3    H152923   6.662   2.832   2.279
 9576TIP3    H252924   6.802   2.775   2.264
 9577TIP3   OH252925   6.750   2.786   1.985
 9577TIP3    H152926   6.816   2.786   2.054
 9577TIP3    H252927   6.778   2.717   1.924
 9578TIP3   OH252928   7.092   2.830   2.398
 9578TIP3    H152929   7.021   2.852   2.459
 9578TIP3    H252930   7.143   2.764   2.445
 9579TIP3   OH252931   6.456   2.741   2.683
 9579TIP3    H152932   6.526   2.677   2.693
 9579TIP3    H252933   6.382   2.705   2.732
 9580TIP3   OH252934   6.958   2.756   2.169
 9580TIP3    H152935   7.014   2.788   2.240
 9580TIP3    H252936   7.015   2.757   2.092
 9581TIP3   OH252937   6.877   3.307   2.595
 9581TIP3    H152938   6.960   3.277   2.556
 9581TIP3    H252939   6.902   3.384   2.647
 9582TIP3   OH252940   7.327   1.914   2.157
 9582TIP3    H152941   7.241   1.935   2.194
 9582TIP3    H252942   7.361   1.998   2.128
 9583TIP3   OH252943   7.580   3.319   1.952
 9583TIP3    H152944   7.584   3.413   1.973
 9583TIP3    H252945   7.672   3.291   1.953
 9584TIP3   OH252946   6.307   2.104   2.757
 9584TIP3    H152947   6.213   2.085   2.747
 9584TIP3    H252948   6.329   2.072   2.844
 9585TIP3   OH252949   7.095   2.756   1.928
 9585TIP3    H152950   7.100   2.814   1.851
 9585TIP3    H252951   7.182   2.761   1.967
 9586TIP3   OH252952   6.637   2.189   2.108
 9586TIP3    H152953   6.579   2.186   2.184
 9586TIP3    H252954   6.592   2.136   2.041
 9587TIP3   OH252955   6.721   2.526   2.437
 9587TIP3    H152956   6.710   2.615   2.405
 9587TIP3    H252957   6.795   2.491   2.387
 9588TIP3   OH252958   6.339   2.293   1.979
 9588TIP3    H152959   6.304   2.277   2.067
 9588TIP3    H252960   6.266   2.332   1.931
 9589TIP3   OH252961   5.728   2.384   2.179
 9589TIP3    H152962   5.640   2.423   2.180
 9589TIP3    H252963   5.758   2.391   2.270
 9590TIP3   OH252964   6.528   2.265   2.707
 9590TIP3    H152965   6.444   2.222   2.725
 9590TIP3    H252966   6.593   2.200   2.733
 9591TIP3   OH252967   6.666   2.506   2.707
 9591TIP3    H152968   6.617   2.424   2.710
 9591TIP3    H252969   6.696   2.512   2.616
 9592TIP3   OH252970   6.473   3.026   2.216
 9592TIP3    H152971   6.460   2.954   2.153
 9592TIP3    H252972   6.460   2.985   2.301
 9593TIP3   OH252973   6.898   2.246   2.137
 9593TIP3    H152974   6.804   2.233   2.125
 9593TIP3    H252975   6.906   2.335   2.171
 9594TIP3   OH252976   6.940   2.487   2.267
 9594TIP3    H152977   7.027   2.464   2.298
 9594TIP3    H252978   6.950   2.575   2.231
 9595TIP3   OH252979   6.073   2.845   2.938
 9595TIP3    H152980   6.142   2.901   2.974
 9595TIP3    H252981   6.121   2.771   2.900
 9596TIP3   OH252982   6.726   3.135   2.216
 9596TIP3    H152983   6.715   3.230   2.217
 9596TIP3    H252984   6.637   3.101   2.206
 9597TIP3   OH252985   7.371   2.515   2.149
 9597TIP3    H152986   7.365   2.475   2.063
 9597TIP3    H252987   7.355   2.608   2.134
 9598TIP3   OH252988   7.100   3.420   2.271
 9598TIP3    H152989   7.099   3.372   2.354
 9598TIP3    H252990   7.112   3.353   2.204
 9599TIP3   OH252991   6.485   2.929   2.472
 9599TIP3    H152992   6.562   2.978   2.499
 9599TIP3    H252993   6.475   2.860   2.538
 9600TIP3   OH252994   6.355   3.632   2.492
 9600TIP3    H152995   6.340   3.652   2.584
 9600TIP3    H252996   6.416   3.699   2.462
 9601TIP3   OH252997   7.151   3.221   2.082
 9601TIP3    H152998   7.177   3.163   2.153
 9601TIP3    H252999   7.068   3.184   2.050
 9602TIP3   OH253000   7.604   3.586   2.013
 9602TIP3    H153001   7.614   3.653   1.945
 9602TIP3    H253002   7.557   3.630   2.084
 9603TIP3   OH253003   7.211   3.057   2.297
 9603TIP3    H153004   7.160   2.983   2.330
 9603TIP3    H253005   7.301   3.025   2.296
 9604TIP3   OH253006   6.489   3.273   1.913
 9604TIP3    H153007   6.470   3.203   1.851
 9604TIP3    H253008   6.432   3.255   1.987
 9605TIP3   OH253009   6.327   3.246   2.136
 9605TIP3    H153010   6.377   3.177   2.179
 9605TIP3    H253011   6.349   3.325   2.185
 9606TIP3   OH253012   6.884   2.118   2.384
 9606TIP3    H153013   6.892   2.167   2.302
 9606TIP3    H253014   6.921   2.176   2.450
 9607TIP3   OH253015   6.663   3.400   2.209
 9607TIP3    H153016   6.575   3.426   2.237
 9607TIP3    H253017   6.672   3.438   2.121
 9608TIP3   OH253018   6.481   2.390   2.463
 9608TIP3    H153019   6.560   2.442   2.450
 9608TIP3    H253020   6.488   2.356   2.552
 9609TIP3   OH253021   6.652   2.022   2.495
 9609TIP3    H153022   6.670   2.035   2.588
 9609TIP3    H253023   6.730   2.057   2.451
 9610TIP3   OH253024   6.403   3.477   2.270
 9610TIP3    H153025   6.425   3.557   2.221
 9610TIP3    H253026   6.381   3.509   2.357
 9611TIP3   OH253027   6.220   2.223   2.225
 9611TIP3    H153028   6.178   2.267   2.298
 9611TIP3    H253029   6.300   2.186   2.261
 9612TIP3   OH253030   6.078   3.163   2.046
 9612TIP3    H153031   6.160   3.201   2.078
 9612TIP3    H253032   6.106   3.098   1.981
 9613TIP3   OH253033   7.223   3.672   2.940
 9613TIP3    H153034   7.158   3.701   2.876
 9613TIP3    H253035   7.297   3.731   2.927
 9614TIP3   OH253036   6.035   2.044   2.716
 9614TIP3    H153037   5.999   2.100   2.648
 9614TIP3    H253038   5.959   2.004   2.758
 9615TIP3   OH253039   6.685   3.462   1.939
 9615TIP3    H153040   6.618   3.395   1.928
 9615TIP3    H253041   6.763   3.425   1.898
 9616TIP3   OH253042   7.145   3.465   1.914
 9616TIP3    H153043   7.170   3.402   1.981
 9616TIP3    H253044   7.217   3.461   1.850
 9617TIP3   OH253045   6.189   2.984   1.861
 9617TIP3    H153046   6.219   2.893   1.866
 9617TIP3    H253047   6.264   3.032   1.825
 9618TIP3   OH253048   6.902   3.129   1.997
 9618TIP3    H153049   6.845   3.122   2.073
 9618TIP3    H253050   6.859   3.075   1.931
 9619TIP3   OH253051   6.478   2.825   2.025
 9619TIP3    H153052   6.447   2.817   1.935
 9619TIP3    H253053   6.572   2.808   2.020
 9620TIP3   OH253054   7.386   2.919   1.857
 9620TIP3    H153055   7.361   2.898   1.767
 9620TIP3    H253056   7.368   3.013   1.865
 9621TIP3   OH253057   6.509   3.722   2.200
 9621TIP3    H153058   6.513   3.782   2.275
 9621TIP3    H253059   6.479   3.777   2.127
 9622TIP3   OH253060   5.809   3.209   2.040
 9622TIP3    H153061   5.903   3.194   2.053
 9622TIP3    H253062   5.780   3.131   1.992
 9623TIP3   OH253063   7.451   2.921   2.297
 9623TIP3    H153064   7.536   2.966   2.302
 9623TIP3    H253065   7.457   2.852   2.363
 9624TIP3   OH253066   7.470   2.717   2.479
 9624TIP3    H153067   7.383   2.687   2.505
 9624TIP3    H253068   7.525   2.701   2.556
 9625TIP3   OH253069   7.499   3.097   2.855
 9625TIP3    H153070   7.527   3.006   2.865
 9625TIP3    H253071   7.550   3.146   2.919
 9626TIP3   OH253072   7.329   2.783   2.086
 9626TIP3    H153073   7.366   2.828   2.010
 9626TIP3    H253074   7.365   2.829   2.162
 9627TIP3   OH253075   7.335   2.413   1.896
 9627TIP3    H153076   7.302   2.476   1.833
 9627TIP3    H253077   7.296   2.330   1.869
 9628TIP3   OH253078   7.215   2.620   2.529
 9628TIP3    H153079   7.209   2.546   2.468
 9628TIP3    H253080   7.179   2.586   2.611
 9629TIP3   OH253081   7.224   2.175   1.827
 9629TIP3    H153082   7.242   2.110   1.895
 9629TIP3    H253083   7.129   2.180   1.823
 9630TIP3   OH253084   7.197   2.417   2.343
 9630TIP3    H153085   7.217   2.327   2.366
 9630TIP3    H253086   7.263   2.441   2.278
 9631TIP3   OH253087   7.258   2.151   2.406
 9631TIP3    H153088   7.273   2.120   2.495
 9631TIP3    H253089   7.198   2.087   2.368
 9632TIP3   OH253090   7.440   2.144   2.040
 9632TIP3    H153091   7.479   2.093   1.969
 9632TIP3    H253092   7.435   2.233   2.006
 9633TIP3   OH253093   6.066   3.424   2.768
 9633TIP3    H153094   6.035   3.351   2.821
 9633TIP3    H253095   6.021   3.501   2.803
 9634TIP3   OH253096   6.702   2.053   2.765
 9634TIP3    H153097   6.650   1.988   2.811
 9634TIP3    H253098   6.792   2.037   2.795
 9635TIP3   OH253099   7.354   2.025   2.639
 9635TIP3    H153100   7.406   1.944   2.636
 9635TIP3    H253101   7.420   2.094   2.635
 9636TIP3   OH253102   6.409   1.902   2.587
 9636TIP3    H153103   6.491   1.940   2.553
 9636TIP3    H253104   6.375   1.968   2.647
 9637TIP3   OH253105   6.965   1.973   2.839
 9637TIP3    H153106   6.987   1.907   2.774
 9637TIP3    H253107   7.022   1.953   2.913
 9638TIP3   OH253108   7.093   1.956   2.301
 9638TIP3    H153109   7.014   2.005   2.325
 9638TIP3    H253110   7.068   1.864   2.313
 9639TIP3   OH253111   6.074   2.086   2.019
 9639TIP3    H153112   6.115   2.005   1.988
 9639TIP3    H253113   6.130   2.114   2.092
 9640TIP3   OH253114   6.469   2.159   2.324
 9640TIP3    H153115   6.516   2.098   2.381
 9640TIP3    H253116   6.469   2.242   2.372
 9641TIP3   OH253117   7.269   3.625   2.340
 9641TIP3    H153118   7.221   3.546   2.313
 9641TIP3    H253119   7.338   3.635   2.274
 9642TIP3   OH253120   6.124   3.641   2.031
 9642TIP3    H153121   6.100   3.690   1.953
 9642TIP3    H253122   6.193   3.581   2.001
 9643TIP3   OH253123   7.610   2.561   2.296
 9643TIP3    H153124   7.569   2.615   2.363
 9643TIP3    H253125   7.538   2.529   2.243
 9644TIP3   OH253126   7.332   3.423   2.925
 9644TIP3    H153127   7.289   3.507   2.942
 9644TIP3    H253128   7.294   3.363   2.990
 9645TIP3   OH253129   7.568   2.185   2.585
 9645TIP3    H153130   7.663   2.188   2.598
 9645TIP3    H253131   7.556   2.196   2.491
 9646TIP3   OH253132   7.442   3.759   2.506
 9646TIP3    H153133   7.373   3.723   2.450
 9646TIP3    H253134   7.438   3.707   2.586
 9647TIP3   OH253135   7.437   3.598   2.724
 9647TIP3    H153136   7.385   3.530   2.767
 9647TIP3    H253137   7.445   3.668   2.790
 9648TIP3   OH253138   7.630   2.855   2.904
 9648TIP3    H153139   7.718   2.882   2.877
 9648TIP3    H253140   7.644   2.788   2.970
 9649TIP3   OH253141   7.623   2.669   2.700
 9649TIP3    H153142   7.674   2.600   2.742
 9649TIP3    H253143   7.604   2.731   2.770
 9650TIP3   OH253144   7.515   2.159   2.309
 9650TIP3    H153145   7.425   2.159   2.343
 9650TIP3    H253146   7.504   2.163   2.214
 9651TIP3   OH253147   1.239   4.740   2.509
 9651TIP3    H153148   1.227   4.832   2.532
 9651TIP3    H253149   1.165   4.720   2.452
 9652TIP3   OH253150   1.470   5.063   2.834
 9652TIP3    H153151   1.396   5.028   2.885
 9652TIP3    H253152   1.528   5.101   2.899
 9653TIP3   OH253153   0.210   4.401   2.389
 9653TIP3    H153154   0.248   4.485   2.365
 9653TIP3    H253155   0.116   4.416   2.388
 9654TIP3   OH253156   0.262   4.595   2.633
 9654TIP3    H153157   0.303   4.509   2.627
 9654TIP3    H253158   0.270   4.631   2.545
 9655TIP3   OH253159   1.087   5.411   2.702
 9655TIP3    H153160   1.169   5.418   2.653
 9655TIP3    H253161   1.103   5.457   2.784
 9656TIP3   OH253162   0.537   4.179   2.886
 9656TIP3    H153163   0.540   4.275   2.887
 9656TIP3    H253164   0.507   4.157   2.798
 9657TIP3   OH253165   1.327   4.220   2.531
 9657TIP3    H153166   1.345   4.165   2.606
 9657TIP3    H253167   1.328   4.309   2.566
 9658TIP3   OH253168   0.627   4.598   2.699
 9658TIP3    H153169   0.589   4.558   2.778
 9658TIP3    H253170   0.661   4.524   2.649
 9659TIP3   OH253171   1.179   5.017   2.497
 9659TIP3    H153172   1.155   5.021   2.405
 9659TIP3    H253173   1.110   5.065   2.543
 9660TIP3   OH253174   1.365   4.023   2.732
 9660TIP3    H153175   1.327   4.054   2.815
 9660TIP3    H253176   1.434   3.963   2.759
 9661TIP3   OH253177   0.018   5.035   2.287
 9661TIP3    H153178   0.023   5.046   2.192
 9661TIP3    H253179   0.045   5.120   2.323
 9662TIP3   OH253180   1.326   5.409   2.562
 9662TIP3    H153181   1.361   5.321   2.572
 9662TIP3    H253182   1.400   5.467   2.582
 9663TIP3   OH253183   1.419   5.150   2.578
 9663TIP3    H153184   1.343   5.096   2.555
 9663TIP3    H253185   1.444   5.120   2.666
 9664TIP3   OH253186   1.049   4.712   2.309
 9664TIP3    H153187   0.967   4.761   2.305
 9664TIP3    H253188   1.097   4.739   2.230
 9665TIP3   OH253189   1.096   4.645   1.959
 9665TIP3    H153190   1.158   4.657   2.031
 9665TIP3    H253191   1.136   4.580   1.902
 9666TIP3   OH253192   1.465   4.721   2.351
 9666TIP3    H153193   1.394   4.730   2.415
 9666TIP3    H253194   1.512   4.642   2.378
 9667TIP3   OH253195   0.514   4.785   2.526
 9667TIP3    H153196   0.465   4.734   2.461
 9667TIP3    H253197   0.555   4.719   2.582
 9668TIP3   OH253198   1.315   4.674   2.123
 9668TIP3    H153199   1.368   4.707   2.196
 9668TIP3    H253200   1.373   4.679   2.047
 9669TIP3   OH253201   0.972   5.199   2.567
 9669TIP3    H153202   1.006   5.270   2.622
 9669TIP3    H253203   0.969   5.237   2.479
 9670TIP3   OH253204   1.668   3.806   2.200
 9670TIP3    H153205   1.593   3.842   2.247
 9670TIP3    H253206   1.705   3.880   2.152
 9671TIP3   OH253207   0.329   4.653   2.347
 9671TIP3    H153208   0.301   4.744   2.343
 9671TIP3    H253209   0.353   4.631   2.257
 9672TIP3   OH253210   1.851   5.249   1.928
 9672TIP3    H153211   1.833   5.339   1.954
 9672TIP3    H253212   1.946   5.239   1.939
 9673TIP3   OH253213   1.038   5.565   2.305
 9673TIP3    H153214   1.014   5.589   2.216
 9673TIP3    H253215   0.995   5.629   2.360
 9674TIP3   OH253216   0.527   5.409   2.608
 9674TIP3    H153217   0.539   5.420   2.702
 9674TIP3    H253218   0.578   5.331   2.587
 9675TIP3   OH253219   1.329   5.536   2.025
 9675TIP3    H153220   1.385   5.465   1.994
 9675TIP3    H253221   1.330   5.527   2.121
 9676TIP3   OH253222   1.305   5.515   2.303
 9676TIP3    H153223   1.211   5.534   2.303
 9676TIP3    H253224   1.319   5.463   2.382
 9677TIP3   OH253225   1.465   4.672   1.892
 9677TIP3    H153226   1.438   4.713   1.810
 9677TIP3    H253227   1.560   4.685   1.895
 9678TIP3   OH253228   0.997   4.094   2.044
 9678TIP3    H153229   0.949   4.082   2.127
 9678TIP3    H253230   0.952   4.036   1.983
 9679TIP3   OH253231   0.637   4.341   2.594
 9679TIP3    H153232   0.543   4.347   2.613
 9679TIP3    H253233   0.641   4.323   2.500
 9680TIP3   OH253234   1.072   4.440   2.373
 9680TIP3    H153235   1.055   4.533   2.353
 9680TIP3    H253236   1.158   4.422   2.334
 9681TIP3   OH253237   1.342   4.496   2.610
 9681TIP3    H153238   1.289   4.567   2.574
 9681TIP3    H253239   1.341   4.510   2.704
 9682TIP3   OH253240   0.690   4.172   1.905
 9682TIP3    H153241   0.659   4.161   1.994
 9682TIP3    H253242   0.626   4.230   1.864
 9683TIP3   OH253243   0.119   4.151   2.763
 9683TIP3    H153244   0.067   4.073   2.784
 9683TIP3    H253245   0.069   4.196   2.695
 9684TIP3   OH253246   0.240   4.173   2.236
 9684TIP3    H153247   0.259   4.213   2.151
 9684TIP3    H253248   0.236   4.247   2.296
 9685TIP3   OH253249   0.840   4.183   2.706
 9685TIP3    H153250   0.769   4.244   2.689
 9685TIP3    H253251   0.896   4.228   2.769
 9686TIP3   OH253252   0.358   4.333   2.610
 9686TIP3    H153253   0.306   4.342   2.530
 9686TIP3    H253254   0.374   4.239   2.617
 9687TIP3   OH253255   0.645   4.291   2.322
 9687TIP3    H153256   0.739   4.284   2.338
 9687TIP3    H253257   0.638   4.349   2.247
 9688TIP3   OH253258   1.258   4.115   2.968
 9688TIP3    H153259   1.255   4.210   2.978
 9688TIP3    H253260   1.234   4.080   3.054
 9689TIP3   OH253261   0.628   4.441   2.094
 9689TIP3    H153262   0.547   4.486   2.071
 9689TIP3    H253263   0.696   4.486   2.044
 9690TIP3   OH253264   0.998   4.323   2.893
 9690TIP3    H153265   0.958   4.392   2.944
 9690TIP3    H253266   1.092   4.332   2.910
 9691TIP3   OH253267   0.453   4.075   2.634
 9691TIP3    H153268   0.387   4.010   2.612
 9691TIP3    H253269   0.531   4.047   2.585
 9692TIP3   OH253270   0.833   4.886   2.262
 9692TIP3    H153271   0.773   4.849   2.198
 9692TIP3    H253272   0.777   4.929   2.327
 9693TIP3   OH253273   1.250   4.174   2.106
 9693TIP3    H153274   1.157   4.167   2.086
 9693TIP3    H253275   1.260   4.262   2.143
 9694TIP3   OH253276   1.312   4.414   2.232
 9694TIP3    H153277   1.395   4.402   2.278
 9694TIP3    H253278   1.319   4.502   2.194
 9695TIP3   OH253279   0.367   4.887   2.747
 9695TIP3    H153280   0.396   4.857   2.661
 9695TIP3    H253281   0.444   4.875   2.804
 9696TIP3   OH253282   1.060   5.042   2.235
 9696TIP3    H153283   1.032   5.132   2.252
 9696TIP3    H253284   0.980   4.991   2.242
 9697TIP3   OH253285   1.773   4.442   2.132
 9697TIP3    H153286   1.730   4.416   2.051
 9697TIP3    H253287   1.802   4.532   2.116
 9698TIP3   OH253288   1.603   5.227   2.383
 9698TIP3    H153289   1.546   5.209   2.458
 9698TIP3    H253290   1.600   5.147   2.330
 9699TIP3   OH253291   0.696   5.189   2.616
 9699TIP3    H153292   0.791   5.189   2.609
 9699TIP3    H253293   0.678   5.163   2.706
 9700TIP3   OH253294   0.053   4.660   1.951
 9700TIP3    H153295   0.135   4.657   2.001
 9700TIP3    H253296  -0.016   4.651   2.017
 9701TIP3   OH253297   0.640   5.009   2.416
 9701TIP3    H153298   0.652   5.069   2.490
 9701TIP3    H253299   0.589   4.936   2.452
 9702TIP3   OH253300   0.726   5.557   2.485
 9702TIP3    H153301   0.652   5.514   2.528
 9702TIP3    H253302   0.765   5.611   2.554
 9703TIP3   OH253303   1.488   5.075   2.029
 9703TIP3    H153304   1.520   5.043   2.113
 9703TIP3    H253305   1.397   5.044   2.025
 9704TIP3   OH253306   1.828   5.510   2.009
 9704TIP3    H153307   1.845   5.577   1.943
 9704TIP3    H253308   1.775   5.554   2.075
 9705TIP3   OH253309   1.579   4.965   2.263
 9705TIP3    H153310   1.528   4.893   2.300
 9705TIP3    H253311   1.670   4.937   2.272
 9706TIP3   OH253312   0.758   5.155   1.947
 9706TIP3    H153313   0.741   5.070   1.906
 9706TIP3    H253314   0.719   5.149   2.033
 9707TIP3   OH253315   0.621   5.165   2.187
 9707TIP3    H153316   0.628   5.111   2.265
 9707TIP3    H253317   0.647   5.253   2.215
 9708TIP3   OH253318   0.265   4.914   2.317
 9708TIP3    H153319   0.175   4.947   2.319
 9708TIP3    H253320   0.310   4.969   2.253
 9709TIP3   OH253321   1.220   4.050   2.350
 9709TIP3    H153322   1.233   4.091   2.264
 9709TIP3    H253323   1.250   4.116   2.413
 9710TIP3   OH253324   0.967   5.296   2.305
 9710TIP3    H153325   0.876   5.317   2.281
 9710TIP3    H253326   1.010   5.381   2.312
 9711TIP3   OH253327   0.898   4.240   2.430
 9711TIP3    H153328   0.962   4.310   2.415
 9711TIP3    H253329   0.899   4.226   2.525
 9712TIP3   OH253330   1.022   3.904   2.469
 9712TIP3    H153331   1.077   3.874   2.541
 9712TIP3    H253332   1.079   3.964   2.420
 9713TIP3   OH253333   0.722   5.415   2.252
 9713TIP3    H153334   0.732   5.481   2.183
 9713TIP3    H253335   0.722   5.465   2.333
 9714TIP3   OH253336   0.603   4.071   2.150
 9714TIP3    H153337   0.581   4.143   2.210
 9714TIP3    H253338   0.685   4.035   2.185
 9715TIP3   OH253339   0.367   5.078   2.112
 9715TIP3    H153340   0.448   5.121   2.138
 9715TIP3    H253341   0.393   5.017   2.043
 9716TIP3   OH253342   0.277   4.326   2.010
 9716TIP3    H153343   0.303   4.415   2.034
 9716TIP3    H253344   0.297   4.320   1.916
 9717TIP3   OH253345   0.238   3.736   2.777
 9717TIP3    H153346   0.251   3.801   2.708
 9717TIP3    H253347   0.160   3.766   2.824
 9718TIP3   OH253348   0.098   5.287   2.375
 9718TIP3    H153349   0.167   5.317   2.434
 9718TIP3    H253350   0.097   5.352   2.304
 9719TIP3   OH253351   0.969   5.336   1.894
 9719TIP3    H153352   0.901   5.273   1.918
 9719TIP3    H253353   1.048   5.283   1.885
 9720TIP3   OH253354   1.476   5.329   1.921
 9720TIP3    H153355   1.497   5.247   1.967
 9720TIP3    H253356   1.546   5.338   1.856
 9721TIP3   OH253357   0.434   4.904   1.904
 9721TIP3    H153358   0.411   4.818   1.940
 9721TIP3    H253359   0.530   4.901   1.897
 9722TIP3   OH253360   1.221   5.005   2.010
 9722TIP3    H153361   1.166   5.012   2.089
 9722TIP3    H253362   1.174   4.943   1.954
 9723TIP3   OH253363   0.648   4.776   2.092
 9723TIP3    H153364   0.561   4.736   2.093
 9723TIP3    H253365   0.703   4.713   2.047
 9724TIP3   OH253366   0.816   4.603   1.960
 9724TIP3    H153367   0.807   4.628   1.868
 9724TIP3    H253368   0.910   4.611   1.978
 9725TIP3   OH253369   1.727   4.779   1.839
 9725TIP3    H153370   1.723   4.755   1.747
 9725TIP3    H253371   1.712   4.873   1.841
 9726TIP3   OH253372   0.789   5.619   2.079
 9726TIP3    H153373   0.880   5.603   2.053
 9726TIP3    H253374   0.762   5.695   2.027
 9727TIP3   OH253375   0.104   5.129   2.036
 9727TIP3    H153376   0.191   5.128   2.074
 9727TIP3    H253377   0.117   5.107   1.944
 9728TIP3   OH253378   0.157   5.660   2.473
 9728TIP3    H153379   0.063   5.679   2.472
 9728TIP3    H253380   0.162   5.565   2.468
 9729TIP3   OH253381   0.251   5.407   2.589
 9729TIP3    H153382   0.342   5.391   2.565
 9729TIP3    H253383   0.255   5.447   2.675
 9730TIP3   OH253384   1.832   4.866   2.299
 9730TIP3    H153385   1.898   4.932   2.318
 9730TIP3    H253386   1.833   4.808   2.376
 9731TIP3   OH253387   1.818   4.683   2.512
 9731TIP3    H153388   1.744   4.630   2.541
 9731TIP3    H253389   1.858   4.715   2.593
 9732TIP3   OH253390   1.845   4.699   2.078
 9732TIP3    H153391   1.799   4.731   2.000
 9732TIP3    H253392   1.828   4.766   2.145
 9733TIP3   OH253393   1.660   4.384   1.887
 9733TIP3    H153394   1.653   4.411   1.795
 9733TIP3    H253395   1.636   4.292   1.887
 9734TIP3   OH253396   1.617   4.500   2.598
 9734TIP3    H153397   1.633   4.448   2.520
 9734TIP3    H253398   1.522   4.500   2.609
 9735TIP3   OH253399   0.129   4.764   2.829
 9735TIP3    H153400   0.131   4.686   2.774
 9735TIP3    H253401   0.214   4.806   2.814
 9736TIP3   OH253402   1.601   4.117   1.867
 9736TIP3    H153403   1.639   4.076   1.945
 9736TIP3    H253404   1.509   4.091   1.869
 9737TIP3   OH253405   1.585   4.398   2.335
 9737TIP3    H153406   1.591   4.305   2.356
 9737TIP3    H253407   1.646   4.411   2.263
 9738TIP3   OH253408   1.638   4.132   2.383
 9738TIP3    H153409   1.709   4.093   2.435
 9738TIP3    H253410   1.573   4.063   2.374
 9739TIP3   OH253411   7.674   4.461   2.777
 9739TIP3    H153412   7.638   4.394   2.719
 9739TIP3    H253413   7.624   4.453   2.858
 9740TIP3   OH253414   1.775   4.008   2.054
 9740TIP3    H153415   1.818   3.965   1.980
 9740TIP3    H253416   1.836   4.076   2.081
 9741TIP3   OH253417   0.030   4.003   2.214
 9741TIP3    H153418  -0.041   4.050   2.256
 9741TIP3    H253419   0.106   4.061   2.222
 9742TIP3   OH253420   1.528   5.596   2.561
 9742TIP3    H153421   1.607   5.547   2.537
 9742TIP3    H253422   1.507   5.647   2.483
 9743TIP3   OH253423   0.305   5.506   2.842
 9743TIP3    H153424   0.263   5.486   2.926
 9743TIP3    H253425   0.397   5.484   2.856
 9744TIP3   OH253426   0.574   5.410   2.878
 9744TIP3    H153427   0.575   5.317   2.901
 9744TIP3    H253428   0.661   5.442   2.901
 9745TIP3   OH253429   0.276   3.886   2.529
 9745TIP3    H153430   0.191   3.841   2.527
 9745TIP3    H253431   0.284   3.925   2.442
 9746TIP3   OH253432   0.205   3.802   2.113
 9746TIP3    H153433   0.271   3.859   2.075
 9746TIP3    H253434   0.141   3.861   2.152
 9747TIP3   OH253435   0.780   3.928   2.606
 9747TIP3    H153436   0.860   3.915   2.556
 9747TIP3    H253437   0.790   4.015   2.646
 9748TIP3   OH253438   1.209   3.810   2.637
 9748TIP3    H153439   1.269   3.878   2.667
 9748TIP3    H253440   1.232   3.734   2.691
 9749TIP3   OH253441   1.461   3.912   2.348
 9749TIP3    H153442   1.381   3.964   2.355
 9749TIP3    H253443   1.432   3.822   2.365
 9750TIP3   OH253444   0.096   5.496   2.186
 9750TIP3    H153445   0.016   5.485   2.134
 9750TIP3    H253446   0.110   5.591   2.189
 9751TIP3   OH253447   0.403   3.957   1.990
 9751TIP3    H153448   0.455   3.896   1.937
 9751TIP3    H253449   0.466   3.998   2.049
 9752TIP3   OH253450   0.852   4.027   2.271
 9752TIP3    H153451   0.889   3.954   2.320
 9752TIP3    H253452   0.865   4.103   2.327
 9753TIP3   OH253453   1.050   5.565   2.021
 9753TIP3    H153454   1.146   5.564   2.017
 9753TIP3    H253455   1.024   5.482   1.980
 9754TIP3   OH253456   1.728   5.475   2.412
 9754TIP3    H153457   1.692   5.387   2.397
 9754TIP3    H253458   1.726   5.516   2.326
 9755TIP3   OH253459   0.315   5.483   1.965
 9755TIP3    H153460   0.274   5.463   2.050
 9755TIP3    H253461   0.385   5.418   1.956
 9756TIP3   OH253462   3.112   4.812   2.534
 9756TIP3    H153463   3.083   4.899   2.507
 9756TIP3    H253464   3.058   4.752   2.482
 9757TIP3   OH253465   3.253   4.973   2.717
 9757TIP3    H153466   3.199   4.911   2.668
 9757TIP3    H253467   3.193   5.013   2.779
 9758TIP3   OH253468   1.951   4.485   2.364
 9758TIP3    H153469   1.909   4.558   2.411
 9758TIP3    H253470   1.890   4.464   2.293
 9759TIP3   OH253471   1.903   4.755   2.765
 9759TIP3    H153472   1.934   4.691   2.829
 9759TIP3    H253473   1.914   4.840   2.807
 9760TIP3   OH253474   3.070   5.440   2.791
 9760TIP3    H153475   3.120   5.415   2.713
 9760TIP3    H253476   2.994   5.382   2.791
 9761TIP3   OH253477   2.913   4.872   2.880
 9761TIP3    H153478   2.874   4.865   2.793
 9761TIP3    H253479   2.872   4.800   2.929
 9762TIP3   OH253480   2.354   4.201   2.747
 9762TIP3    H153481   2.399   4.249   2.678
 9762TIP3    H253482   2.279   4.161   2.704
 9763TIP3   OH253483   3.263   4.221   2.567
 9763TIP3    H153484   3.300   4.138   2.598
 9763TIP3    H253485   3.338   4.268   2.530
 9764TIP3   OH253486   2.614   4.559   2.627
 9764TIP3    H153487   2.669   4.500   2.678
 9764TIP3    H253488   2.551   4.502   2.584
 9765TIP3   OH253489   3.021   5.049   2.438
 9765TIP3    H153490   3.018   5.048   2.342
 9765TIP3    H253491   3.000   5.139   2.462
 9766TIP3   OH253492   2.023   5.073   2.312
 9766TIP3    H153493   1.992   5.138   2.248
 9766TIP3    H253494   2.058   5.125   2.384
 9767TIP3   OH253495   2.599   3.847   2.795
 9767TIP3    H153496   2.593   3.757   2.828
 9767TIP3    H253497   2.539   3.897   2.851
 9768TIP3   OH253498   3.233   5.401   2.557
 9768TIP3    H153499   3.281   5.319   2.549
 9768TIP3    H253500   3.299   5.466   2.580
 9769TIP3   OH253501   3.354   5.157   2.530
 9769TIP3    H153502   3.388   5.103   2.459
 9769TIP3    H253503   3.330   5.095   2.599
 9770TIP3   OH253504   2.978   4.675   2.332
 9770TIP3    H153505   2.907   4.733   2.303
 9770TIP3    H253506   3.042   4.677   2.261
 9771TIP3   OH253507   3.023   4.618   1.965
 9771TIP3    H153508   3.080   4.629   2.041
 9771TIP3    H253509   3.057   4.542   1.920
 9772TIP3   OH253510   3.345   4.724   2.404
 9772TIP3    H153511   3.276   4.753   2.463
 9772TIP3    H253512   3.407   4.678   2.461
 9773TIP3   OH253513   2.510   4.791   2.511
 9773TIP3    H153514   2.455   4.754   2.442
 9773TIP3    H253515   2.561   4.717   2.544
 9774TIP3   OH253516   2.571   4.695   2.865
 9774TIP3    H153517   2.601   4.661   2.781
 9774TIP3    H253518   2.648   4.692   2.921
 9775TIP3   OH253519   3.217   4.634   2.173
 9775TIP3    H153520   3.263   4.669   2.249
 9775TIP3    H253521   3.276   4.651   2.099
 9776TIP3   OH253522   2.979   5.322   2.482
 9776TIP3    H153523   3.067   5.347   2.508
 9776TIP3    H253524   2.943   5.401   2.442
 9777TIP3   OH253525   2.350   4.671   2.318
 9777TIP3    H153526   2.291   4.740   2.286
 9777TIP3    H253527   2.292   4.596   2.332
 9778TIP3   OH253528   3.741   5.281   1.995
 9778TIP3    H153529   3.754   5.374   2.010
 9778TIP3    H253530   3.825   5.250   1.960
 9779TIP3   OH253531   2.923   5.579   2.366
 9779TIP3    H153532   2.859   5.594   2.296
 9779TIP3    H253533   2.924   5.660   2.416
 9780TIP3   OH253534   2.315   5.429   2.579
 9780TIP3    H153535   2.346   5.368   2.646
 9780TIP3    H253536   2.247   5.381   2.533
 9781TIP3   OH253537   3.233   5.539   2.037
 9781TIP3    H153538   3.291   5.465   2.015
 9781TIP3    H253539   3.239   5.545   2.132
 9782TIP3   OH253540   3.196   5.552   2.316
 9782TIP3    H153541   3.101   5.558   2.323
 9782TIP3    H253542   3.223   5.496   2.389
 9783TIP3   OH253543   2.414   3.995   2.943
 9783TIP3    H153544   2.340   3.934   2.942
 9783TIP3    H253545   2.389   4.065   2.883
 9784TIP3   OH253546   3.377   4.670   1.951
 9784TIP3    H153547   3.351   4.703   1.865
 9784TIP3    H253548   3.463   4.709   1.967
 9785TIP3   OH253549   2.921   4.009   2.055
 9785TIP3    H153550   2.865   4.019   2.132
 9785TIP3    H253551   2.861   3.980   1.986
 9786TIP3   OH253552   2.435   4.369   2.543
 9786TIP3    H153553   2.342   4.386   2.528
 9786TIP3    H253554   2.468   4.336   2.460
 9787TIP3   OH253555   2.995   4.418   2.438
 9787TIP3    H153556   2.983   4.507   2.406
 9787TIP3    H253557   3.072   4.386   2.392
 9788TIP3   OH253558   2.609   4.121   1.927
 9788TIP3    H153559   2.576   4.100   2.015
 9788TIP3    H253560   2.547   4.185   1.893
 9789TIP3   OH253561   1.842   4.005   2.527
 9789TIP3    H153562   1.852   4.047   2.613
 9789TIP3    H253563   1.843   3.911   2.546
 9790TIP3   OH253564   1.943   4.218   2.119
 9790TIP3    H153565   2.011   4.258   2.065
 9790TIP3    H253566   1.881   4.288   2.136
 9791TIP3   OH253567   2.732   4.143   2.688
 9791TIP3    H153568   2.648   4.098   2.679
 9791TIP3    H253569   2.794   4.074   2.712
 9792TIP3   OH253570   2.170   4.383   2.497
 9792TIP3    H153571   2.093   4.418   2.451
 9792TIP3    H253572   2.145   4.294   2.521
 9793TIP3   OH253573   2.535   4.291   2.301
 9793TIP3    H153574   2.626   4.289   2.330
 9793TIP3    H253575   2.537   4.339   2.218
 9794TIP3   OH253576   2.544   4.409   2.053
 9794TIP3    H153577   2.493   4.384   1.976
 9794TIP3    H253578   2.619   4.456   2.017
 9795TIP3   OH253579   2.690   4.378   2.822
 9795TIP3    H153580   2.712   4.295   2.779
 9795TIP3    H253581   2.752   4.385   2.894
 9796TIP3   OH253582   2.166   4.102   2.561
 9796TIP3    H153583   2.147   4.019   2.605
 9796TIP3    H253584   2.138   4.088   2.470
 9797TIP3   OH253585   2.776   4.853   2.248
 9797TIP3    H153586   2.703   4.811   2.203
 9797TIP3    H253587   2.735   4.912   2.310
 9798TIP3   OH253588   3.163   4.102   2.147
 9798TIP3    H153589   3.073   4.095   2.116
 9798TIP3    H253590   3.175   4.195   2.168
 9799TIP3   OH253591   3.218   4.359   2.265
 9799TIP3    H153592   3.301   4.350   2.311
 9799TIP3    H253593   3.222   4.446   2.225
 9800TIP3   OH253594   2.379   4.855   2.750
 9800TIP3    H153595   2.406   4.846   2.659
 9800TIP3    H253596   2.436   4.795   2.798
 9801TIP3   OH253597   2.973   5.024   2.159
 9801TIP3    H153598   2.936   5.112   2.156
 9801TIP3    H253599   2.900   4.967   2.182
 9802TIP3   OH253600   3.574   5.284   2.220
 9802TIP3    H153601   3.505   5.222   2.194
 9802TIP3    H253602   3.637   5.279   2.148
 9803TIP3   OH253603   2.642   5.231   2.597
 9803TIP3    H153604   2.643   5.315   2.551
 9803TIP3    H253605   2.567   5.236   2.655
 9804TIP3   OH253606   2.113   4.651   2.061
 9804TIP3    H153607   2.149   4.724   2.112
 9804TIP3    H253608   2.018   4.659   2.073
 9805TIP3   OH253609   2.629   5.023   2.409
 9805TIP3    H153610   2.645   5.089   2.476
 9805TIP3    H253611   2.583   4.953   2.455
 9806TIP3   OH253612   2.573   5.486   2.500
 9806TIP3    H153613   2.480   5.479   2.521
 9806TIP3    H253614   2.598   5.574   2.528
 9807TIP3   OH253615   3.390   5.096   2.095
 9807TIP3    H153616   3.400   5.051   2.178
 9807TIP3    H253617   3.312   5.057   2.056
 9808TIP3   OH253618   3.773   5.539   2.083
 9808TIP3    H153619   3.833   5.613   2.088
 9808TIP3    H253620   3.690   5.574   2.116
 9809TIP3   OH253621   3.454   4.970   2.331
 9809TIP3    H153622   3.417   4.884   2.351
 9809TIP3    H253623   3.548   4.960   2.347
 9810TIP3   OH253624   2.686   5.173   1.916
 9810TIP3    H153625   2.693   5.084   1.881
 9810TIP3    H253626   2.654   5.161   2.005
 9811TIP3   OH253627   2.571   5.156   2.172
 9811TIP3    H153628   2.592   5.105   2.251
 9811TIP3    H253629   2.590   5.247   2.197
 9812TIP3   OH253630   2.193   4.875   2.209
 9812TIP3    H153631   2.128   4.928   2.256
 9812TIP3    H253632   2.246   4.938   2.162
 9813TIP3   OH253633   3.093   4.056   2.416
 9813TIP3    H153634   3.127   4.072   2.328
 9813TIP3    H253635   3.144   4.114   2.473
 9814TIP3   OH253636   2.879   5.280   2.161
 9814TIP3    H153637   2.799   5.310   2.204
 9814TIP3    H253638   2.923   5.361   2.133
 9815TIP3   OH253639   2.777   4.253   2.432
 9815TIP3    H153640   2.853   4.311   2.433
 9815TIP3    H253641   2.767   4.224   2.523
 9816TIP3   OH253642   2.898   3.882   2.488
 9816TIP3    H153643   2.899   3.885   2.583
 9816TIP3    H253644   2.970   3.940   2.461
 9817TIP3   OH253645   2.648   5.408   2.249
 9817TIP3    H153646   2.665   5.492   2.206
 9817TIP3    H253647   2.621   5.431   2.338
 9818TIP3   OH253648   2.505   4.045   2.171
 9818TIP3    H153649   2.488   4.124   2.223
 9818TIP3    H253650   2.583   4.007   2.211
 9819TIP3   OH253651   2.332   5.069   2.066
 9819TIP3    H153652   2.403   5.114   2.112
 9819TIP3    H253653   2.377   5.006   2.010
 9820TIP3   OH253654   2.108   4.381   1.966
 9820TIP3    H153655   2.126   4.456   2.024
 9820TIP3    H253656   2.113   4.417   1.878
 9821TIP3   OH253657   2.213   3.812   2.912
 9821TIP3    H153658   2.175   3.833   2.827
 9821TIP3    H253659   2.196   3.719   2.924
 9822TIP3   OH253660   2.088   5.305   2.463
 9822TIP3    H153661   2.024   5.331   2.530
 9822TIP3    H253662   2.053   5.341   2.381
 9823TIP3   OH253663   2.890   5.345   1.840
 9823TIP3    H153664   2.824   5.284   1.874
 9823TIP3    H253665   2.971   5.295   1.837
 9824TIP3   OH253666   3.372   5.325   1.934
 9824TIP3    H153667   3.396   5.252   1.991
 9824TIP3    H253668   3.437   5.323   1.864
 9825TIP3   OH253669   2.468   4.879   1.928
 9825TIP3    H153670   2.495   4.824   2.002
 9825TIP3    H253671   2.549   4.894   1.879
 9826TIP3   OH253672   3.163   4.990   1.968
 9826TIP3    H153673   3.098   4.995   2.038
 9826TIP3    H253674   3.125   4.931   1.903
 9827TIP3   OH253675   2.558   4.723   2.135
 9827TIP3    H153676   2.493   4.686   2.195
 9827TIP3    H253677   2.601   4.646   2.096
 9828TIP3   OH253678   2.743   4.577   1.968
 9828TIP3    H153679   2.731   4.610   1.879
 9828TIP3    H253680   2.836   4.592   1.987
 9829TIP3   OH253681   3.628   4.781   1.953
 9829TIP3    H153682   3.636   4.754   1.861
 9829TIP3    H253683   3.631   4.876   1.951
 9830TIP3   OH253684   2.748   5.647   2.149
 9830TIP3    H153685   2.822   5.611   2.102
 9830TIP3    H253686   2.707   5.707   2.087
 9831TIP3   OH253687   2.128   5.187   1.926
 9831TIP3    H153688   2.197   5.158   1.985
 9831TIP3    H253689   2.091   5.106   1.891
 9832TIP3   OH253690   1.880   5.589   2.612
 9832TIP3    H153691   1.831   5.556   2.537
 9832TIP3    H253692   1.907   5.511   2.660
 9833TIP3   OH253693   1.981   5.355   2.719
 9833TIP3    H153694   2.056   5.297   2.732
 9833TIP3    H253695   1.911   5.315   2.770
 9834TIP3   OH253696   3.828   4.682   2.130
 9834TIP3    H153697   3.759   4.724   2.078
 9834TIP3    H253698   3.837   4.738   2.207
 9835TIP3   OH253699   3.396   4.394   1.921
 9835TIP3    H153700   3.402   4.484   1.952
 9835TIP3    H253701   3.441   4.394   1.837
 9836TIP3   OH253702   3.650   4.547   2.545
 9836TIP3    H153703   3.657   4.572   2.637
 9836TIP3    H253704   3.738   4.557   2.510
 9837TIP3   OH253705   3.457   4.119   1.933
 9837TIP3    H153706   3.438   4.212   1.944
 9837TIP3    H253707   3.374   4.081   1.904
 9838TIP3   OH253708   3.489   4.342   2.460
 9838TIP3    H153709   3.548   4.271   2.484
 9838TIP3    H253710   3.535   4.421   2.486
 9839TIP3   OH253711   1.870   4.100   2.785
 9839TIP3    H153712   1.921   4.152   2.846
 9839TIP3    H253713   1.803   4.058   2.840
 9840TIP3   OH253714   3.675   4.008   2.062
 9840TIP3    H153715   3.716   3.961   1.990
 9840TIP3    H253716   3.603   4.056   2.021
 9841TIP3   OH253717   2.026   4.042   2.322
 9841TIP3    H153718   1.953   4.034   2.383
 9841TIP3    H253719   1.997   4.107   2.258
 9842TIP3   OH253720   3.420   5.601   2.584
 9842TIP3    H153721   3.478   5.559   2.520
 9842TIP3    H253722   3.465   5.682   2.608
 9843TIP3   OH253723   2.862   3.916   2.763
 9843TIP3    H153724   2.773   3.890   2.788
 9843TIP3    H253725   2.917   3.842   2.789
 9844TIP3   OH253726   2.119   3.847   2.655
 9844TIP3    H153727   2.030   3.825   2.628
 9844TIP3    H253728   2.171   3.771   2.629
 9845TIP3   OH253729   2.087   3.823   2.156
 9845TIP3    H153730   2.155   3.862   2.101
 9845TIP3    H253731   2.065   3.891   2.219
 9846TIP3   OH253732   2.632   3.787   2.526
 9846TIP3    H153733   2.723   3.809   2.508
 9846TIP3    H253734   2.619   3.811   2.618
 9847TIP3   OH253735   1.997   5.390   2.213
 9847TIP3    H153736   1.923   5.406   2.155
 9847TIP3    H253737   2.051   5.468   2.205
 9848TIP3   OH253738   2.299   3.944   2.010
 9848TIP3    H153739   2.347   3.877   1.962
 9848TIP3    H253740   2.363   3.978   2.073
 9849TIP3   OH253741   2.766   4.022   2.282
 9849TIP3    H153742   2.796   3.959   2.347
 9849TIP3    H253743   2.770   4.107   2.326
 9850TIP3   OH253744   2.959   5.524   2.035
 9850TIP3    H153745   3.054   5.536   2.031
 9850TIP3    H253746   2.939   5.471   1.958
 9851TIP3   OH253747   3.589   5.499   2.389
 9851TIP3    H153748   3.584   5.415   2.345
 9851TIP3    H253749   3.584   5.564   2.319
 9852TIP3   OH253750   2.155   5.472   1.915
 9852TIP3    H153751   2.132   5.516   1.997
 9852TIP3    H253752   2.151   5.378   1.936
 9853TIP3   OH253753   5.099   4.969   2.878
 9853TIP3    H153754   5.056   4.896   2.924
 9853TIP3    H253755   5.135   5.023   2.948
 9854TIP3   OH253756   5.023   5.535   2.929
 9854TIP3    H153757   4.985   5.473   2.866
 9854TIP3    H253758   5.045   5.482   3.005
 9855TIP3   OH253759   4.638   4.890   2.979
 9855TIP3    H153760   4.709   4.835   2.946
 9855TIP3    H253761   4.675   4.933   3.056
 9856TIP3   OH253762   4.285   4.279   2.579
 9856TIP3    H153763   4.344   4.347   2.547
 9856TIP3    H253764   4.261   4.229   2.501
 9857TIP3   OH253765   5.172   4.303   2.467
 9857TIP3    H153766   5.254   4.255   2.456
 9857TIP3    H253767   5.199   4.388   2.502
 9858TIP3   OH253768   4.977   5.053   2.425
 9858TIP3    H153769   4.946   5.019   2.340
 9858TIP3    H253770   4.947   5.144   2.427
 9859TIP3   OH253771   4.083   4.230   2.758
 9859TIP3    H153772   4.108   4.274   2.839
 9859TIP3    H253773   4.155   4.248   2.697
 9860TIP3   OH253774   5.026   5.370   2.681
 9860TIP3    H153775   5.051   5.278   2.676
 9860TIP3    H253776   4.965   5.383   2.608
 9861TIP3   OH253777   5.116   5.118   2.651
 9861TIP3    H153778   5.074   5.076   2.576
 9861TIP3    H253779   5.107   5.055   2.722
 9862TIP3   OH253780   5.202   4.779   2.449
 9862TIP3    H153781   5.161   4.820   2.525
 9862TIP3    H253782   5.254   4.707   2.486
 9863TIP3   OH253783   4.378   4.669   2.356
 9863TIP3    H153784   4.283   4.673   2.368
 9863TIP3    H253785   4.407   4.601   2.416
 9864TIP3   OH253786   4.897   5.332   2.416
 9864TIP3    H153787   4.877   5.426   2.412
 9864TIP3    H253788   4.854   5.294   2.340
 9865TIP3   OH253789   5.470   3.817   2.202
 9865TIP3    H153790   5.387   3.859   2.227
 9865TIP3    H253791   5.527   3.889   2.177
 9866TIP3   OH253792   5.574   5.283   2.007
 9866TIP3    H153793   5.595   5.376   2.015
 9866TIP3    H253794   5.660   5.239   2.005
 9867TIP3   OH253795   4.877   5.597   2.345
 9867TIP3    H153796   4.861   5.595   2.250
 9867TIP3    H253797   4.825   5.670   2.377
 9868TIP3   OH253798   4.143   5.499   2.566
 9868TIP3    H153799   4.187   5.455   2.638
 9868TIP3    H253800   4.104   5.428   2.514
 9869TIP3   OH253801   5.151   5.530   2.055
 9869TIP3    H153802   5.190   5.452   2.017
 9869TIP3    H253803   5.170   5.524   2.149
 9870TIP3   OH253804   5.136   5.505   2.336
 9870TIP3    H153805   5.046   5.537   2.342
 9870TIP3    H253806   5.132   5.416   2.372
 9871TIP3   OH253807   5.197   4.579   1.902
 9871TIP3    H153808   5.217   4.634   1.826
 9871TIP3    H253809   5.280   4.537   1.923
 9872TIP3   OH253810   4.739   4.120   2.022
 9872TIP3    H153811   4.704   4.090   2.106
 9872TIP3    H253812   4.662   4.142   1.970
 9873TIP3   OH253813   4.490   4.170   1.912
 9873TIP3    H153814   4.420   4.160   1.976
 9873TIP3    H253815   4.494   4.264   1.894
 9874TIP3   OH253816   3.676   4.154   2.544
 9874TIP3    H153817   3.745   4.125   2.604
 9874TIP3    H253818   3.631   4.073   2.518
 9875TIP3   OH253819   4.473   4.099   2.683
 9875TIP3    H153820   4.395   4.146   2.657
 9875TIP3    H253821   4.543   4.164   2.678
 9876TIP3   OH253822   4.459   4.297   2.285
 9876TIP3    H153823   4.475   4.353   2.361
 9876TIP3    H253824   4.407   4.352   2.226
 9877TIP3   OH253825   4.307   4.436   2.106
 9877TIP3    H153826   4.234   4.498   2.096
 9877TIP3    H253827   4.359   4.449   2.027
 9878TIP3   OH253828   4.198   4.101   2.391
 9878TIP3    H153829   4.150   4.028   2.429
 9878TIP3    H253830   4.251   4.062   2.321
 9879TIP3   OH253831   4.613   4.874   2.182
 9879TIP3    H153832   4.553   4.830   2.122
 9879TIP3    H253833   4.556   4.916   2.247
 9880TIP3   OH253834   4.984   4.196   2.101
 9880TIP3    H153835   4.898   4.166   2.072
 9880TIP3    H253836   5.000   4.276   2.051
 9881TIP3   OH253837   4.855   4.991   2.175
 9881TIP3    H153838   4.830   5.084   2.174
 9881TIP3    H253839   4.772   4.944   2.175
 9882TIP3   OH253840   5.540   4.467   2.169
 9882TIP3    H153841   5.494   4.445   2.088
 9882TIP3    H253842   5.587   4.549   2.148
 9883TIP3   OH253843   5.465   5.228   2.262
 9883TIP3    H153844   5.406   5.153   2.271
 9883TIP3    H253845   5.473   5.241   2.167
 9884TIP3   OH253846   4.324   5.197   2.489
 9884TIP3    H153847   4.366   5.280   2.467
 9884TIP3    H253848   4.232   5.210   2.463
 9885TIP3   OH253849   4.094   4.618   2.110
 9885TIP3    H153850   4.118   4.650   2.197
 9885TIP3    H253851   3.999   4.633   2.105
 9886TIP3   OH253852   4.427   4.972   2.358
 9886TIP3    H153853   4.392   5.034   2.422
 9886TIP3    H253854   4.390   4.888   2.383
 9887TIP3   OH253855   4.394   5.459   2.440
 9887TIP3    H153856   4.312   5.500   2.470
 9887TIP3    H253857   4.463   5.514   2.478
 9888TIP3   OH253858   5.254   5.069   2.042
 9888TIP3    H153859   5.271   5.028   2.127
 9888TIP3    H253860   5.171   5.030   2.013
 9889TIP3   OH253861   5.645   5.544   2.075
 9889TIP3    H153862   5.706   5.618   2.073
 9889TIP3    H253863   5.565   5.580   2.112
 9890TIP3   OH253864   5.334   4.967   2.284
 9890TIP3    H153865   5.276   4.912   2.336
 9890TIP3    H253866   5.419   4.926   2.291
 9891TIP3   OH253867   4.587   5.183   1.908
 9891TIP3    H153868   4.604   5.105   1.855
 9891TIP3    H253869   4.537   5.151   1.983
 9892TIP3   OH253870   4.436   5.144   2.136
 9892TIP3    H153871   4.430   5.088   2.214
 9892TIP3    H253872   4.463   5.229   2.170
 9893TIP3   OH253873   5.010   4.105   2.357
 9893TIP3    H153874   5.001   4.137   2.267
 9893TIP3    H253875   5.057   4.176   2.403
 9894TIP3   OH253876   4.774   5.256   2.182
 9894TIP3    H153877   4.687   5.291   2.202
 9894TIP3    H253878   4.795   5.293   2.096
 9895TIP3   OH253879   4.793   3.952   2.459
 9895TIP3    H153880   4.814   3.963   2.551
 9895TIP3    H253881   4.865   3.996   2.412
 9896TIP3   OH253882   4.535   5.387   2.219
 9896TIP3    H153883   4.553   5.470   2.174
 9896TIP3    H253884   4.484   5.411   2.296
 9897TIP3   OH253885   4.358   4.075   2.158
 9897TIP3    H153886   4.390   4.153   2.202
 9897TIP3    H253887   4.432   4.013   2.162
 9898TIP3   OH253888   4.223   5.114   1.965
 9898TIP3    H153889   4.289   5.137   2.030
 9898TIP3    H253890   4.259   5.038   1.919
 9899TIP3   OH253891   4.073   5.283   2.397
 9899TIP3    H153892   4.018   5.209   2.372
 9899TIP3    H253893   4.064   5.345   2.325
 9900TIP3   OH253894   4.801   5.347   1.915
 9900TIP3    H153895   4.725   5.290   1.908
 9900TIP3    H253896   4.871   5.299   1.871
 9901TIP3   OH253897   5.249   5.315   1.921
 9901TIP3    H153898   5.266   5.232   1.965
 9901TIP3    H253899   5.319   5.323   1.856
 9902TIP3   OH253900   4.341   4.892   1.850
 9902TIP3    H153901   4.353   4.846   1.933
 9902TIP3    H253902   4.396   4.845   1.788
 9903TIP3   OH253903   5.012   4.981   1.943
 9903TIP3    H153904   4.952   4.968   2.017
 9903TIP3    H253905   4.985   4.916   1.879
 9904TIP3   OH253906   4.426   4.722   2.055
 9904TIP3    H153907   4.393   4.684   2.137
 9904TIP3    H253908   4.452   4.646   2.002
 9905TIP3   OH253909   5.557   4.808   1.856
 9905TIP3    H153910   5.529   4.772   1.772
 9905TIP3    H253911   5.519   4.896   1.858
 9906TIP3   OH253912   4.616   5.627   2.112
 9906TIP3    H153913   4.710   5.611   2.097
 9906TIP3    H253914   4.593   5.695   2.049
 9907TIP3   OH253915   3.971   5.171   1.888
 9907TIP3    H153916   4.058   5.162   1.927
 9907TIP3    H253917   3.948   5.083   1.859
 9908TIP3   OH253918   3.750   5.565   2.606
 9908TIP3    H153919   3.705   5.529   2.530
 9908TIP3    H253920   3.775   5.489   2.658
 9909TIP3   OH253921   3.839   5.333   2.729
 9909TIP3    H153922   3.845   5.253   2.676
 9909TIP3    H253923   3.914   5.327   2.788
 9910TIP3   OH253924   5.590   4.869   2.313
 9910TIP3    H153925   5.649   4.945   2.313
 9910TIP3    H253926   5.607   4.826   2.396
 9911TIP3   OH253927   5.653   4.775   2.564
 9911TIP3    H153928   5.592   4.756   2.635
 9911TIP3    H253929   5.731   4.810   2.608
 9912TIP3   OH253930   5.655   4.710   2.095
 9912TIP3    H153931   5.614   4.743   2.014
 9912TIP3    H253932   5.621   4.767   2.164
 9913TIP3   OH253933   5.416   4.401   1.924
 9913TIP3    H153934   5.406   4.406   1.828
 9913TIP3    H253935   5.422   4.307   1.942
 9914TIP3   OH253936   5.348   4.580   2.580
 9914TIP3    H153937   5.411   4.522   2.537
 9914TIP3    H253938   5.396   4.617   2.655
 9915TIP3   OH253939   5.425   4.124   1.938
 9915TIP3    H153940   5.464   4.085   2.017
 9915TIP3    H253941   5.334   4.093   1.939
 9916TIP3   OH253942   5.507   4.395   2.435
 9916TIP3    H153943   5.479   4.304   2.428
 9916TIP3    H253944   5.522   4.423   2.344
 9917TIP3   OH253945   5.392   4.133   2.423
 9917TIP3    H153946   5.463   4.077   2.454
 9917TIP3    H253947   5.338   4.076   2.368
 9918TIP3   OH253948   3.887   4.047   2.693
 9918TIP3    H153949   3.853   4.004   2.772
 9918TIP3    H253950   3.954   4.107   2.726
 9919TIP3   OH253951   5.630   4.030   2.132
 9919TIP3    H153952   5.703   4.044   2.071
 9919TIP3    H253953   5.670   4.040   2.219
 9920TIP3   OH253954   5.427   5.565   2.645
 9920TIP3    H153955   5.444   5.531   2.557
 9920TIP3    H253956   5.473   5.649   2.647
 9921TIP3   OH253957   4.065   5.273   2.874
 9921TIP3    H153958   4.101   5.222   2.946
 9921TIP3    H253959   4.141   5.305   2.826
 9922TIP3   OH253960   4.293   5.344   2.736
 9922TIP3    H153961   4.324   5.275   2.678
 9922TIP3    H253962   4.372   5.374   2.783
 9923TIP3   OH253963   4.923   4.013   2.696
 9923TIP3    H153964   4.988   4.078   2.668
 9923TIP3    H253965   4.972   3.931   2.703
 9924TIP3   OH253966   5.369   3.900   2.687
 9924TIP3    H153967   5.436   3.914   2.621
 9924TIP3    H253968   5.336   3.988   2.708
 9925TIP3   OH253969   5.563   3.924   2.495
 9925TIP3    H153970   5.565   3.832   2.471
 9925TIP3    H253971   5.639   3.962   2.451
 9926TIP3   OH253972   4.027   3.906   2.491
 9926TIP3    H153973   3.970   3.950   2.554
 9926TIP3    H253974   4.061   3.830   2.538
 9927TIP3   OH253975   3.991   3.820   2.228
 9927TIP3    H153976   4.026   3.889   2.172
 9927TIP3    H253977   4.000   3.854   2.317
 9928TIP3   OH253978   4.513   3.856   2.544
 9928TIP3    H153979   4.603   3.871   2.513
 9928TIP3    H253980   4.494   3.932   2.598
 9929TIP3   OH253981   5.093   3.800   2.682
 9929TIP3    H153982   5.189   3.806   2.681
 9929TIP3    H253983   5.075   3.706   2.685
 9930TIP3   OH253984   5.231   3.942   2.293
 9930TIP3    H153985   5.153   3.994   2.313
 9930TIP3    H253986   5.201   3.851   2.300
 9931TIP3   OH253987   4.020   5.465   2.196
 9931TIP3    H153988   3.931   5.453   2.162
 9931TIP3    H253989   4.030   5.560   2.203
 9932TIP3   OH253990   4.109   4.020   2.053
 9932TIP3    H153991   4.135   3.964   1.979
 9932TIP3    H253992   4.192   4.046   2.094
 9933TIP3   OH253993   4.626   4.069   2.265
 9933TIP3    H153994   4.669   4.028   2.340
 9933TIP3    H253995   4.582   4.146   2.301
 9934TIP3   OH253996   4.878   5.562   2.069
 9934TIP3    H153997   4.973   5.563   2.060
 9934TIP3    H253998   4.850   5.494   2.008
 9935TIP3   OH253999   5.501   5.479   2.391
 9935TIP3    H154000   5.488   5.392   2.353
 9935TIP3    H254001   5.476   5.540   2.321
 9936TIP3   OH254002   4.173   5.506   1.958
 9936TIP3    H154003   4.141   5.472   2.041
 9936TIP3    H254004   4.248   5.451   1.937
 9937TIP3   OH254005   6.875   4.891   2.617
 9937TIP3    H154006   6.854   4.964   2.559
 9937TIP3    H254007   6.801   4.886   2.678
 9938TIP3   OH254008   7.092   4.941   2.783
 9938TIP3    H154009   7.020   4.916   2.725
 9938TIP3    H254010   7.078   5.034   2.799
 9939TIP3   OH254011   5.719   4.500   2.595
 9939TIP3    H154012   5.701   4.590   2.569
 9939TIP3    H254013   5.655   4.448   2.546
 9940TIP3   OH254014   5.882   4.855   2.718
 9940TIP3    H154015   5.826   4.820   2.787
 9940TIP3    H254016   5.966   4.811   2.729
 9941TIP3   OH254017   6.792   5.583   2.691
 9941TIP3    H154018   6.829   5.510   2.742
 9941TIP3    H254019   6.712   5.607   2.738
 9942TIP3   OH254020   6.987   4.414   2.901
 9942TIP3    H154021   7.024   4.338   2.946
 9942TIP3    H254022   6.909   4.381   2.857
 9943TIP3   OH254023   5.908   4.465   2.793
 9943TIP3    H154024   5.970   4.413   2.743
 9943TIP3    H254025   5.835   4.479   2.733
 9944TIP3   OH254026   6.873   5.112   2.452
 9944TIP3    H154027   6.961   5.138   2.480
 9944TIP3    H254028   6.825   5.195   2.445
 9945TIP3   OH254029   5.720   5.114   2.279
 9945TIP3    H154030   5.750   5.114   2.188
 9945TIP3    H254031   5.634   5.156   2.276
 9946TIP3   OH254032   6.439   3.829   2.709
 9946TIP3    H154033   6.470   3.838   2.799
 9946TIP3    H254034   6.391   3.910   2.691
 9947TIP3   OH254035   7.064   5.451   2.546
 9947TIP3    H154036   7.091   5.361   2.533
 9947TIP3    H254037   7.082   5.469   2.638
 9948TIP3   OH254038   7.120   5.182   2.552
 9948TIP3    H154039   7.186   5.114   2.534
 9948TIP3    H254040   7.109   5.181   2.647
 9949TIP3   OH254041   7.049   4.805   2.403
 9949TIP3    H154042   6.990   4.824   2.476
 9949TIP3    H254043   7.103   4.732   2.435
 9950TIP3   OH254044   6.326   5.087   2.750
 9950TIP3    H154045   6.293   5.139   2.677
 9950TIP3    H254046   6.353   5.004   2.710
 9951TIP3   OH254047   6.921   4.640   2.203
 9951TIP3    H154048   6.959   4.701   2.265
 9951TIP3    H254049   6.962   4.661   2.119
 9952TIP3   OH254050   6.800   5.387   2.435
 9952TIP3    H154051   6.868   5.411   2.498
 9952TIP3    H254052   6.761   5.471   2.410
 9953TIP3   OH254053   7.486   3.731   2.212
 9953TIP3    H154054   7.480   3.811   2.161
 9953TIP3    H254055   7.518   3.759   2.298
 9954TIP3   OH254056   7.527   5.227   2.090
 9954TIP3    H154057   7.525   5.320   2.067
 9954TIP3    H254058   7.616   5.199   2.069
 9955TIP3   OH254059   6.754   5.629   2.296
 9955TIP3    H154060   6.741   5.589   2.210
 9955TIP3    H254061   6.723   5.719   2.285
 9956TIP3   OH254062   6.069   5.398   2.545
 9956TIP3    H154063   6.125   5.320   2.545
 9956TIP3    H254064   5.987   5.369   2.505
 9957TIP3   OH254065   7.019   5.526   2.030
 9957TIP3    H154066   7.066   5.446   2.008
 9957TIP3    H254067   7.034   5.537   2.124
 9958TIP3   OH254068   7.028   5.585   2.304
 9958TIP3    H154069   6.935   5.604   2.315
 9958TIP3    H254070   7.052   5.538   2.384
 9959TIP3   OH254071   6.313   4.062   2.625
 9959TIP3    H154072   6.285   4.048   2.534
 9959TIP3    H254073   6.243   4.115   2.663
 9960TIP3   OH254074   7.035   4.700   1.957
 9960TIP3    H154075   7.007   4.789   1.935
 9960TIP3    H254076   7.130   4.706   1.963
 9961TIP3   OH254077   6.612   4.091   2.062
 9961TIP3    H154078   6.536   4.145   2.043
 9961TIP3    H254079   6.585   4.002   2.041
 9962TIP3   OH254080   6.360   4.157   1.967
 9962TIP3    H154081   6.318   4.154   2.053
 9962TIP3    H254082   6.302   4.210   1.913
 9963TIP3   OH254083   6.552   4.212   2.589
 9963TIP3    H154084   6.473   4.161   2.606
 9963TIP3    H254085   6.612   4.150   2.548
 9964TIP3   OH254086   6.201   4.398   2.090
 9964TIP3    H154087   6.108   4.407   2.067
 9964TIP3    H254088   6.247   4.451   2.025
 9965TIP3   OH254089   6.760   4.350   2.730
 9965TIP3    H154090   6.822   4.318   2.664
 9965TIP3    H254091   6.675   4.315   2.701
 9966TIP3   OH254092   6.879   4.142   2.042
 9966TIP3    H154093   6.786   4.129   2.060
 9966TIP3    H254094   6.905   4.214   2.100
 9967TIP3   OH254095   6.928   4.362   2.206
 9967TIP3    H154096   7.006   4.348   2.260
 9967TIP3    H254097   6.919   4.457   2.201
 9968TIP3   OH254098   6.864   5.044   2.173
 9968TIP3    H154099   6.803   5.118   2.168
 9968TIP3    H254100   6.868   5.023   2.266
 9969TIP3   OH254101   7.423   4.408   2.182
 9969TIP3    H154102   7.383   4.379   2.100
 9969TIP3    H254103   7.452   4.497   2.165
 9970TIP3   OH254104   7.383   5.247   2.334
 9970TIP3    H154105   7.324   5.172   2.337
 9970TIP3    H254106   7.430   5.237   2.250
 9971TIP3   OH254107   6.222   5.173   2.512
 9971TIP3    H154108   6.287   5.231   2.472
 9971TIP3    H254109   6.229   5.092   2.461
 9972TIP3   OH254110   5.927   4.720   2.056
 9972TIP3    H154111   5.968   4.777   2.121
 9972TIP3    H254112   5.834   4.723   2.076
 9973TIP3   OH254113   6.336   5.420   2.454
 9973TIP3    H154114   6.248   5.448   2.478
 9973TIP3    H254115   6.394   5.479   2.502
 9974TIP3   OH254116   7.134   5.102   2.123
 9974TIP3    H154117   7.169   5.071   2.206
 9974TIP3    H254118   7.040   5.084   2.129
 9975TIP3   OH254119   7.536   5.498   2.041
 9975TIP3    H154120   7.543   5.540   1.956
 9975TIP3    H254121   7.477   5.554   2.092
 9976TIP3   OH254122   7.250   4.993   2.350
 9976TIP3    H154123   7.181   4.930   2.366
 9976TIP3    H254124   7.330   4.941   2.341
 9977TIP3   OH254125   6.451   5.145   1.936
 9977TIP3    H154126   6.447   5.059   1.893
 9977TIP3    H254127   6.398   5.134   2.016
 9978TIP3   OH254128   6.290   5.113   2.163
 9978TIP3    H154129   6.289   5.050   2.235
 9978TIP3    H254130   6.342   5.186   2.195
 9979TIP3   OH254131   6.033   4.889   2.244
 9979TIP3    H154132   5.983   4.963   2.276
 9979TIP3    H254133   6.117   4.895   2.289
 9980TIP3   OH254134   6.701   5.260   2.204
 9980TIP3    H154135   6.607   5.278   2.203
 9980TIP3    H254136   6.734   5.306   2.282
 9981TIP3   OH254137   6.434   5.341   2.215
 9981TIP3    H154138   6.441   5.422   2.164
 9981TIP3    H254139   6.405   5.371   2.302
 9982TIP3   OH254140   6.240   4.160   2.216
 9982TIP3    H154141   6.216   4.248   2.188
 9982TIP3    H254142   6.158   4.120   2.244
 9983TIP3   OH254143   7.162   4.558   2.750
 9983TIP3    H154144   7.096   4.510   2.799
 9983TIP3    H254145   7.244   4.540   2.796
 9984TIP3   OH254146   6.072   5.127   1.990
 9984TIP3    H154147   6.143   5.137   2.054
 9984TIP3    H254148   6.092   5.045   1.946
 9985TIP3   OH254149   5.940   4.447   2.022
 9985TIP3    H154150   5.936   4.540   2.044
 9985TIP3    H254151   5.859   4.411   2.059
 9986TIP3   OH254152   5.838   5.310   2.433
 9986TIP3    H154153   5.855   5.362   2.354
 9986TIP3    H254154   5.800   5.229   2.401
 9987TIP3   OH254155   6.654   5.325   1.883
 9987TIP3    H154156   6.588   5.262   1.911
 9987TIP3    H254157   6.733   5.272   1.871
 9988TIP3   OH254158   7.141   5.300   1.930
 9988TIP3    H154159   7.155   5.232   1.995
 9988TIP3    H254160   7.211   5.288   1.866
 9989TIP3   OH254161   6.158   4.884   1.890
 9989TIP3    H154162   6.141   4.811   1.949
 9989TIP3    H254163   6.253   4.882   1.876
 9990TIP3   OH254164   6.908   4.947   1.919
 9990TIP3    H154165   6.878   4.967   2.008
 9990TIP3    H254166   6.832   4.904   1.878
 9991TIP3   OH254167   6.327   4.532   1.885
 9991TIP3    H154168   6.286   4.459   1.838
 9991TIP3    H254169   6.370   4.584   1.817
 9992TIP3   OH254170   7.307   4.765   1.950
 9992TIP3    H154171   7.309   4.754   1.854
 9992TIP3    H254172   7.328   4.857   1.964
 9993TIP3   OH254173   6.475   5.576   2.083
 9993TIP3    H154174   6.569   5.563   2.070
 9993TIP3    H254175   6.457   5.662   2.043
 9994TIP3   OH254176   5.801   5.128   2.013
 9994TIP3    H154177   5.896   5.140   2.015
 9994TIP3    H254178   5.787   5.068   1.939
 9995TIP3   OH254179   5.740   5.560   2.515
 9995TIP3    H154180   5.656   5.551   2.469
 9995TIP3    H254181   5.781   5.475   2.506
 9996TIP3   OH254182   7.489   4.851   2.333
 9996TIP3    H154183   7.566   4.908   2.332
 9996TIP3    H254184   7.506   4.791   2.406
 9997TIP3   OH254185   7.480   4.645   2.527
 9997TIP3    H154186   7.386   4.631   2.514
 9997TIP3    H254187   7.496   4.613   2.616
 9998TIP3   OH254188   7.433   5.015   3.054
 9998TIP3    H154189   7.512   4.968   3.079
 9998TIP3    H254190   7.410   5.067   3.132
 9999TIP3   OH254191   7.501   4.667   2.122
 9999TIP3    H154192   7.432   4.693   2.061
 9999TIP3    H254193   7.497   4.732   2.192
10000TIP3   OH254194   7.304   4.342   1.947
10000TIP3    H154195   7.263   4.375   1.867
10000TIP3    H254196   7.298   4.247   1.940
10001TIP3   OH254197   7.207   4.596   2.487
10001TIP3    H154198   7.188   4.516   2.438
10001TIP3    H254199   7.182   4.576   2.577
10002TIP3   OH254200   7.298   4.069   1.930
10002TIP3    H154201   7.365   4.027   1.985
10002TIP3    H254202   7.217   4.023   1.951
10003TIP3   OH254203   7.183   4.365   2.333
10003TIP3    H154204   7.197   4.278   2.370
10003TIP3    H254205   7.260   4.380   2.278
10004TIP3   OH254206   7.239   4.110   2.425
10004TIP3    H154207   7.288   4.081   2.502
10004TIP3    H254208   7.152   4.071   2.436
10005TIP3   OH254209   7.510   3.938   2.039
10005TIP3    H154210   7.544   3.908   1.955
10005TIP3    H254211   7.586   3.972   2.085
10006TIP3   OH254212   7.213   5.722   2.567
10006TIP3    H154213   7.242   5.645   2.519
10006TIP3    H254214   7.232   5.701   2.659
10007TIP3   OH254215   6.367   5.329   2.903
10007TIP3    H154216   6.344   5.241   2.872
10007TIP3    H254217   6.350   5.327   2.997
10008TIP3   OH254218   7.446   4.022   2.601
10008TIP3    H154219   7.444   3.935   2.560
10008TIP3    H254220   7.503   4.011   2.676
10009TIP3   OH254221   6.546   3.841   2.455
10009TIP3    H154222   6.613   3.910   2.452
10009TIP3    H254223   6.520   3.836   2.547
10010TIP3   OH254224   5.869   5.470   2.216
10010TIP3    H154225   5.786   5.465   2.168
10010TIP3    H254226   5.890   5.564   2.219
10011TIP3   OH254227   5.913   4.042   2.027
10011TIP3    H154228   5.935   3.949   2.020
10011TIP3    H254229   5.947   4.068   2.112
10012TIP3   OH254230   6.743   5.534   2.039
10012TIP3    H154231   6.838   5.536   2.027
10012TIP3    H254232   6.715   5.455   1.991
10013TIP3   OH254233   7.354   5.527   2.404
10013TIP3    H154234   7.351   5.433   2.388
10013TIP3    H254235   7.358   5.567   2.317
10014TIP3   OH254236   5.971   5.423   1.954
10014TIP3    H154237   5.959   5.422   2.049
10014TIP3    H254238   6.064   5.405   1.941
10015TIP3   OH254239   7.617   4.445   2.386
10015TIP3    H154240   7.580   4.522   2.430
10015TIP3    H254241   7.558   4.428   2.313
10016TIP3   OH254242   7.568   5.205   2.538
10016TIP3    H154243   7.641   5.215   2.477
10016TIP3    H254244   7.490   5.214   2.484
10017TIP3   OH254245   7.609   4.259   2.594
10017TIP3    H154246   7.612   4.306   2.511
10017TIP3    H254247   7.548   4.187   2.578
10018TIP3   OH254248   7.559   5.659   2.533
10018TIP3    H154249   7.484   5.631   2.480
10018TIP3    H254250   7.590   5.579   2.576
10019TIP3   OH254251   7.659   5.437   2.646
10019TIP3    H154252   7.613   5.358   2.617
10019TIP3    H254253   7.751   5.420   2.626
10020TIP3   OH254254   7.635   4.824   3.042
10020TIP3    H154255   7.588   4.747   3.074
10020TIP3    H254256   7.695   4.789   2.976
10021TIP3   OH254257   7.489   4.151   2.294
10021TIP3    H154258   7.406   4.129   2.336
10021TIP3    H254259   7.472   4.235   2.250
10022TIP3   OH254260   1.176   6.700   2.519
10022TIP3    H154261   1.156   6.793   2.530
10022TIP3    H254262   1.110   6.669   2.456
10023TIP3   OH254263   1.454   6.908   2.786
10023TIP3    H154264   1.398   6.842   2.826
10023TIP3    H254265   1.518   6.930   2.854
10024TIP3   OH254266   0.233   6.456   2.432
10024TIP3    H154267   0.244   6.491   2.521
10024TIP3    H254268   0.138   6.456   2.419
10025TIP3   OH254269   0.274   6.534   2.687
10025TIP3    H154270   0.278   6.458   2.744
10025TIP3    H254271   0.281   6.609   2.746
10026TIP3   OH254272   1.214   6.420   3.285
10026TIP3    H154273   1.134   6.368   3.276
10026TIP3    H254274   1.200   6.497   3.231
10027TIP3   OH254275   0.591   6.154   2.677
10027TIP3    H154276   0.561   6.233   2.633
10027TIP3    H254277   0.567   6.083   2.618
10028TIP3   OH254278   1.387   6.180   2.446
10028TIP3    H154279   1.387   6.167   2.541
10028TIP3    H254280   1.479   6.193   2.423
10029TIP3   OH254281   0.281   6.277   2.801
10029TIP3    H154282   0.340   6.219   2.848
10029TIP3    H254283   0.273   6.239   2.714
10030TIP3   OH254284   1.146   6.976   2.470
10030TIP3    H154285   1.135   6.961   2.376
10030TIP3    H254286   1.240   6.986   2.482
10031TIP3   OH254287   1.410   6.103   2.713
10031TIP3    H154288   1.408   6.105   2.809
10031TIP3    H254289   1.437   6.013   2.691
10032TIP3   OH254290   0.437   6.069   2.895
10032TIP3    H154291   0.478   5.995   2.939
10032TIP3    H254292   0.497   6.090   2.823
10033TIP3   OH254293   0.124   6.951   2.136
10033TIP3    H154294   0.029   6.943   2.135
10033TIP3    H254295   0.140   7.031   2.187
10034TIP3   OH254296   1.416   6.993   2.525
10034TIP3    H154297   1.483   6.954   2.469
10034TIP3    H254298   1.433   6.958   2.612
10035TIP3   OH254299   1.005   6.622   2.317
10035TIP3    H154300   0.936   6.688   2.320
10035TIP3    H254301   1.044   6.632   2.230
10036TIP3   OH254302   1.136   6.492   1.998
10036TIP3    H154303   1.201   6.516   2.065
10036TIP3    H254304   1.172   6.413   1.958
10037TIP3   OH254305   1.427   6.639   2.430
10037TIP3    H154306   1.340   6.664   2.462
10037TIP3    H254307   1.465   6.589   2.502
10038TIP3   OH254308   0.569   6.656   2.513
10038TIP3    H154309   0.522   6.640   2.431
10038TIP3    H254310   0.560   6.574   2.562
10039TIP3   OH254311   1.342   6.535   2.178
10039TIP3    H154312   1.379   6.574   2.258
10039TIP3    H254313   1.401   6.563   2.108
10040TIP3   OH254314   1.141   7.255   2.500
10040TIP3    H154315   1.115   7.164   2.489
10040TIP3    H254316   1.069   7.305   2.460
10041TIP3   OH254317   1.700   5.667   2.191
10041TIP3    H154318   1.617   5.688   2.235
10041TIP3    H254319   1.730   5.751   2.155
10042TIP3   OH254320   0.427   6.582   2.281
10042TIP3    H154321   0.376   6.632   2.217
10042TIP3    H254322   0.361   6.532   2.329
10043TIP3   OH254323   1.828   7.119   2.036
10043TIP3    H154324   1.836   7.214   2.050
10043TIP3    H254325   1.916   7.092   2.010
10044TIP3   OH254326   0.095   6.907   2.981
10044TIP3    H154327   0.081   6.982   3.038
10044TIP3    H254328   0.100   6.944   2.893
10045TIP3   OH254329   1.316   7.364   2.077
10045TIP3    H154330   1.372   7.298   2.036
10045TIP3    H254331   1.324   7.347   2.171
10046TIP3   OH254332   1.359   7.308   2.344
10046TIP3    H154333   1.284   7.290   2.400
10046TIP3    H254334   1.421   7.237   2.363
10047TIP3   OH254335   1.486   6.610   1.954
10047TIP3    H154336   1.448   6.598   1.867
10047TIP3    H254337   1.579   6.628   1.937
10048TIP3   OH254338   0.910   6.004   2.047
10048TIP3    H154339   0.883   5.989   2.137
10048TIP3    H254340   0.871   5.933   1.997
10049TIP3   OH254341   0.505   6.361   2.514
10049TIP3    H154342   0.412   6.380   2.498
10049TIP3    H254343   0.535   6.319   2.433
10050TIP3   OH254344   1.049   6.379   2.441
10050TIP3    H154345   1.022   6.463   2.405
10050TIP3    H254346   1.106   6.341   2.374
10051TIP3   OH254347   1.223   6.406   2.666
10051TIP3    H154348   1.194   6.481   2.717
10051TIP3    H254349   1.171   6.409   2.586
10052TIP3   OH254350   0.592   6.042   1.966
10052TIP3    H154351   0.576   6.004   2.052
10052TIP3    H254352   0.627   6.129   1.983
10053TIP3   OH254353   0.148   5.903   2.640
10053TIP3    H154354   0.189   5.989   2.631
10053TIP3    H254355   0.143   5.870   2.550
10054TIP3   OH254356   0.208   6.204   2.315
10054TIP3    H154357   0.211   6.211   2.219
10054TIP3    H254358   0.211   6.295   2.346
10055TIP3   OH254359   0.850   6.115   2.752
10055TIP3    H154360   0.760   6.141   2.731
10055TIP3    H254361   0.841   6.031   2.796
10056TIP3   OH254362   0.287   6.130   2.568
10056TIP3    H154363   0.255   6.157   2.481
10056TIP3    H254364   0.361   6.073   2.550
10057TIP3   OH254365   0.624   6.220   2.304
10057TIP3    H154366   0.708   6.215   2.348
10057TIP3    H254367   0.644   6.256   2.217
10058TIP3   OH254368   0.661   6.300   2.037
10058TIP3    H154369   0.598   6.327   1.970
10058TIP3    H254370   0.732   6.363   2.030
10059TIP3   OH254371   0.492   5.957   2.509
10059TIP3    H154372   0.473   5.870   2.545
10059TIP3    H254373   0.507   5.941   2.416
10060TIP3   OH254374   0.821   6.826   2.301
10060TIP3    H154375   0.756   6.778   2.252
10060TIP3    H254376   0.772   6.868   2.372
10061TIP3   OH254377   1.176   6.063   2.098
10061TIP3    H154378   1.082   6.050   2.083
10061TIP3    H254379   1.182   6.148   2.140
10062TIP3   OH254380   1.231   6.290   2.250
10062TIP3    H154381   1.288   6.254   2.318
10062TIP3    H254382   1.275   6.370   2.221
10063TIP3   OH254383   1.053   6.934   2.203
10063TIP3    H154384   1.038   7.029   2.196
10063TIP3    H254385   0.970   6.899   2.235
10064TIP3   OH254386   1.763   6.295   2.112
10064TIP3    H154387   1.828   6.239   2.070
10064TIP3    H254388   1.794   6.384   2.097
10065TIP3   OH254389   1.656   7.120   2.269
10065TIP3    H154390   1.630   7.030   2.290
10065TIP3    H254391   1.712   7.111   2.191
10066TIP3   OH254392   1.533   6.584   2.922
10066TIP3    H154393   1.460   6.645   2.930
10066TIP3    H254394   1.582   6.593   3.003
10067TIP3   OH254395   0.149   6.521   1.976
10067TIP3    H154396   0.198   6.583   2.030
10067TIP3    H254397   0.059   6.525   2.008
10068TIP3   OH254398   0.657   6.920   2.501
10068TIP3    H154399   0.651   6.973   2.581
10068TIP3    H254400   0.619   6.835   2.526
10069TIP3   OH254401   1.487   6.932   2.062
10069TIP3    H154402   1.508   6.902   2.150
10069TIP3    H254403   1.402   6.892   2.043
10070TIP3   OH254404   1.867   7.381   2.111
10070TIP3    H154405   1.946   7.431   2.091
10070TIP3    H254406   1.802   7.447   2.135
10071TIP3   OH254407   1.570   6.849   2.318
10071TIP3    H154408   1.518   6.778   2.355
10071TIP3    H254409   1.655   6.809   2.299
10072TIP3   OH254410   0.793   7.042   1.883
10072TIP3    H154411   0.788   6.947   1.872
10072TIP3    H254412   0.735   7.078   1.817
10073TIP3   OH254413   0.293   6.732   2.091
10073TIP3    H154414   0.236   6.807   2.110
10073TIP3    H254415   0.361   6.768   2.034
10074TIP3   OH254416   1.305   5.947   2.317
10074TIP3    H154417   1.256   5.979   2.241
10074TIP3    H254418   1.325   6.025   2.368
10075TIP3   OH254419   1.000   7.202   2.206
10075TIP3    H154420   0.974   7.258   2.279
10075TIP3    H254421   1.014   7.262   2.133
10076TIP3   OH254422   0.858   6.177   2.461
10076TIP3    H154423   0.922   6.248   2.457
10076TIP3    H254424   0.856   6.152   2.553
10077TIP3   OH254425   0.968   5.778   2.477
10077TIP3    H154426   0.919   5.750   2.554
10077TIP3    H254427   1.055   5.801   2.511
10078TIP3   OH254428   0.564   5.960   2.228
10078TIP3    H154429   0.562   6.051   2.258
10078TIP3    H254430   0.652   5.929   2.251
10079TIP3   OH254431   1.492   6.486   2.661
10079TIP3    H154432   1.504   6.528   2.746
10079TIP3    H254433   1.404   6.448   2.665
10080TIP3   OH254434   0.212   6.252   2.047
10080TIP3    H154435   0.187   6.339   2.013
10080TIP3    H254436   0.243   6.205   1.970
10081TIP3   OH254437   0.134   5.737   2.850
10081TIP3    H154438   0.155   5.789   2.772
10081TIP3    H254439   0.194   5.662   2.845
10082TIP3   OH254440   0.159   7.190   2.263
10082TIP3    H154441   0.160   7.203   2.358
10082TIP3    H254442   0.112   7.266   2.228
10083TIP3   OH254443   1.012   7.205   1.884
10083TIP3    H154444   0.940   7.144   1.899
10083TIP3    H254445   1.089   7.149   1.874
10084TIP3   OH254446   1.473   7.184   1.943
10084TIP3    H154447   1.501   7.105   1.990
10084TIP3    H254448   1.539   7.195   1.874
10085TIP3   OH254449   0.537   6.795   1.957
10085TIP3    H154450   0.573   6.749   2.032
10085TIP3    H254451   0.610   6.802   1.895
10086TIP3   OH254452   1.229   6.851   2.004
10086TIP3    H154453   1.163   6.869   2.072
10086TIP3    H254454   1.187   6.788   1.946
10087TIP3   OH254455   0.663   6.655   2.155
10087TIP3    H154456   0.597   6.606   2.203
10087TIP3    H254457   0.723   6.588   2.122
10088TIP3   OH254458   0.854   6.495   2.016
10088TIP3    H154459   0.845   6.515   1.923
10088TIP3    H254460   0.949   6.487   2.030
10089TIP3   OH254461   1.746   6.668   1.846
10089TIP3    H154462   1.729   6.637   1.757
10089TIP3    H254463   1.732   6.762   1.841
10090TIP3   OH254464   0.774   7.478   2.084
10090TIP3    H154465   0.869   7.474   2.075
10090TIP3    H254466   0.760   7.512   2.173
10091TIP3   OH254467   0.236   6.987   1.887
10091TIP3    H154468   0.193   6.986   1.973
10091TIP3    H254469   0.204   6.909   1.843
10092TIP3   OH254470   0.004   7.656   2.344
10092TIP3    H154471  -0.067   7.637   2.406
10092TIP3    H254472   0.073   7.693   2.399
10093TIP3   OH254473   0.157   7.282   2.518
10093TIP3    H154474   0.084   7.308   2.575
10093TIP3    H254475   0.208   7.362   2.506
10094TIP3   OH254476   1.817   6.735   2.267
10094TIP3    H154477   1.878   6.809   2.268
10094TIP3    H254478   1.849   6.677   2.336
10095TIP3   OH254479   1.911   6.554   2.450
10095TIP3    H154480   1.839   6.500   2.483
10095TIP3    H254481   1.970   6.564   2.525
10096TIP3   OH254482   1.860   6.550   2.064
10096TIP3    H154483   1.820   6.584   1.985
10096TIP3    H254484   1.841   6.615   2.132
10097TIP3   OH254485   1.543   6.282   1.932
10097TIP3    H154486   1.604   6.310   2.001
10097TIP3    H254487   1.567   6.192   1.914
10098TIP3   OH254488   1.716   6.380   2.545
10098TIP3    H154489   1.690   6.320   2.475
10098TIP3    H254490   1.634   6.417   2.577
10099TIP3   OH254491   1.579   6.017   1.885
10099TIP3    H154492   1.619   5.965   1.956
10099TIP3    H254493   1.487   5.990   1.886
10100TIP3   OH254494   1.647   6.202   2.349
10100TIP3    H154495   1.662   6.108   2.351
10100TIP3    H254496   1.683   6.231   2.266
10101TIP3   OH254497   1.675   5.927   2.386
10101TIP3    H154498   1.699   5.900   2.474
10101TIP3    H254499   1.600   5.872   2.363
10102TIP3   OH254500   0.179   5.996   2.978
10102TIP3    H154501   0.163   5.906   2.948
10102TIP3    H254502   0.266   6.017   2.946
10103TIP3   OH254503   0.084   6.259   2.992
10103TIP3    H154504   0.098   6.165   3.007
10103TIP3    H254505   0.143   6.281   2.920
10104TIP3   OH254506   1.782   5.886   2.031
10104TIP3    H154507   1.822   5.828   1.967
10104TIP3    H254508   1.835   5.965   2.029
10105TIP3   OH254509   0.091   5.959   2.365
10105TIP3    H154510   0.001   5.978   2.394
10105TIP3    H254511   0.128   6.045   2.345
10106TIP3   OH254512   1.562   7.529   2.589
10106TIP3    H154513   1.606   7.465   2.532
10106TIP3    H254514   1.600   7.515   2.675
10107TIP3   OH254515   1.507   5.851   2.665
10107TIP3    H154516   1.603   5.859   2.669
10107TIP3    H254517   1.491   5.759   2.647
10108TIP3   OH254518   1.776   5.846   2.630
10108TIP3    H154519   1.820   5.761   2.631
10108TIP3    H254520   1.844   5.909   2.653
10109TIP3   OH254521   0.415   5.702   2.567
10109TIP3    H154522   0.325   5.693   2.535
10109TIP3    H254523   0.445   5.612   2.579
10110TIP3   OH254524   0.105   5.778   2.159
10110TIP3    H154525   0.189   5.799   2.119
10110TIP3    H254526   0.105   5.828   2.241
10111TIP3   OH254527   0.832   5.698   2.707
10111TIP3    H154528   0.845   5.626   2.770
10111TIP3    H254529   0.805   5.772   2.760
10112TIP3   OH254530   1.468   5.733   2.326
10112TIP3    H154531   1.409   5.809   2.325
10112TIP3    H254532   1.412   5.658   2.309
10113TIP3   OH254533   0.050   7.433   2.184
10113TIP3    H154534   0.130   7.464   2.141
10113TIP3    H254535   0.030   7.501   2.248
10114TIP3   OH254536   0.352   5.849   2.059
10114TIP3    H154537   0.396   5.794   1.995
10114TIP3    H254538   0.419   5.867   2.126
10115TIP3   OH254539   0.832   5.949   2.305
10115TIP3    H154540   0.872   5.878   2.355
10115TIP3    H254541   0.843   6.027   2.361
10116TIP3   OH254542   1.045   7.427   2.037
10116TIP3    H154543   1.138   7.428   2.057
10116TIP3    H254544   1.035   7.361   1.969
10117TIP3   OH254545   1.681   7.356   2.409
10117TIP3    H154546   1.673   7.269   2.370
10117TIP3    H254547   1.693   7.415   2.335
10118TIP3   OH254548   0.336   7.419   1.843
10118TIP3    H154549   0.304   7.462   1.923
10118TIP3    H254550   0.430   7.410   1.858
10119TIP3   OH254551   3.110   6.637   2.547
10119TIP3    H154552   3.106   6.732   2.542
10119TIP3    H254553   3.044   6.606   2.485
10120TIP3   OH254554   3.329   6.892   2.817
10120TIP3    H154555   3.342   6.807   2.859
10120TIP3    H254556   3.301   6.950   2.888
10121TIP3   OH254557   2.065   6.411   2.272
10121TIP3    H154558   2.011   6.467   2.327
10121TIP3    H254559   2.015   6.402   2.191
10122TIP3   OH254560   2.078   6.558   2.671
10122TIP3    H154561   2.171   6.539   2.667
10122TIP3    H254562   2.072   6.635   2.728
10123TIP3   OH254563   3.087   7.386   2.717
10123TIP3    H154564   3.153   7.368   2.650
10123TIP3    H254565   3.129   7.361   2.800
10124TIP3   OH254566   3.100   6.377   3.005
10124TIP3    H154567   3.036   6.308   3.025
10124TIP3    H254568   3.094   6.389   2.910
10125TIP3   OH254569   2.522   5.998   2.713
10125TIP3    H154570   2.465   6.049   2.771
10125TIP3    H254571   2.467   5.980   2.636
10126TIP3   OH254572   3.266   6.051   2.608
10126TIP3    H154573   3.318   6.000   2.671
10126TIP3    H254574   3.293   6.141   2.623
10127TIP3   OH254575   2.148   6.231   2.757
10127TIP3    H154576   2.196   6.201   2.834
10127TIP3    H254577   2.216   6.248   2.692
10128TIP3   OH254578   2.351   6.502   2.680
10128TIP3    H154579   2.407   6.495   2.758
10128TIP3    H254580   2.360   6.418   2.637
10129TIP3   OH254581   3.084   6.893   2.447
10129TIP3    H154582   3.061   6.880   2.355
10129TIP3    H254583   3.033   6.970   2.474
10130TIP3   OH254584   3.433   5.941   2.798
10130TIP3    H154585   3.509   5.902   2.754
10130TIP3    H254586   3.467   6.021   2.838
10131TIP3   OH254587   2.326   6.105   2.932
10131TIP3    H154588   2.272   6.049   2.987
10131TIP3    H254589   2.390   6.144   2.992
10132TIP3   OH254590   2.002   6.935   2.295
10132TIP3    H154591   2.010   7.022   2.255
10132TIP3    H254592   1.996   6.952   2.389
10133TIP3   OH254593   3.224   7.248   2.502
10133TIP3    H154594   3.266   7.165   2.525
10133TIP3    H254595   3.295   7.313   2.509
10134TIP3   OH254596   3.319   6.998   2.562
10134TIP3    H154597   3.247   6.945   2.527
10134TIP3    H254598   3.332   6.963   2.651
10135TIP3   OH254599   2.953   6.560   2.331
10135TIP3    H154600   2.875   6.614   2.312
10135TIP3    H254601   3.009   6.572   2.255
10136TIP3   OH254602   2.985   6.465   1.957
10136TIP3    H154603   3.039   6.485   2.034
10136TIP3    H254604   3.033   6.396   1.912
10137TIP3   OH254605   3.323   6.600   2.370
10137TIP3    H154606   3.261   6.616   2.441
10137TIP3    H254607   3.391   6.544   2.408
10138TIP3   OH254608   2.436   6.687   2.483
10138TIP3    H154609   2.400   6.641   2.408
10138TIP3    H254610   2.409   6.634   2.559
10139TIP3   OH254611   3.185   6.498   2.153
10139TIP3    H154612   3.233   6.538   2.225
10139TIP3    H254613   3.237   6.520   2.075
10140TIP3   OH254614   2.971   7.138   2.504
10140TIP3    H154615   3.058   7.177   2.509
10140TIP3    H254616   2.921   7.198   2.448
10141TIP3   OH254617   3.551   5.682   2.183
10141TIP3    H154618   3.472   5.716   2.224
10141TIP3    H254619   3.579   5.751   2.123
10142TIP3   OH254620   2.313   6.551   2.270
10142TIP3    H154621   2.264   6.627   2.238
10142TIP3    H254622   2.247   6.481   2.275
10143TIP3   OH254623   3.718   7.106   1.949
10143TIP3    H154624   3.705   7.195   1.980
10143TIP3    H254625   3.809   7.086   1.971
10144TIP3   OH254626   1.925   7.225   2.755
10144TIP3    H154627   2.008   7.233   2.801
10144TIP3    H254628   1.867   7.184   2.819
10145TIP3   OH254629   2.857   7.353   2.383
10145TIP3    H154630   2.786   7.350   2.319
10145TIP3    H254631   2.852   7.441   2.420
10146TIP3   OH254632   2.308   7.487   2.553
10146TIP3    H154633   2.396   7.525   2.560
10146TIP3    H254634   2.276   7.482   2.643
10147TIP3   OH254635   3.189   7.410   2.016
10147TIP3    H154636   3.249   7.339   1.990
10147TIP3    H254637   3.163   7.387   2.106
10148TIP3   OH254638   3.099   7.312   2.258
10148TIP3    H154639   3.023   7.353   2.300
10148TIP3    H254640   3.158   7.290   2.330
10149TIP3   OH254641   3.322   6.560   1.924
10149TIP3    H154642   3.293   6.582   1.836
10149TIP3    H254643   3.413   6.589   1.927
10150TIP3   OH254644   2.874   5.980   2.027
10150TIP3    H154645   2.843   5.987   2.117
10150TIP3    H254646   2.825   5.906   1.991
10151TIP3   OH254647   2.350   6.252   2.565
10151TIP3    H154648   2.273   6.229   2.513
10151TIP3    H254649   2.424   6.234   2.507
10152TIP3   OH254650   3.016   6.325   2.462
10152TIP3    H154651   2.987   6.406   2.420
10152TIP3    H254652   3.083   6.289   2.404
10153TIP3   OH254653   3.107   6.415   2.722
10153TIP3    H154654   3.113   6.504   2.688
10153TIP3    H254655   3.062   6.366   2.652
10154TIP3   OH254656   2.510   6.044   1.921
10154TIP3    H154657   2.508   6.106   1.994
10154TIP3    H254658   2.419   6.034   1.895
10155TIP3   OH254659   1.952   6.061   2.646
10155TIP3    H154660   2.029   6.115   2.663
10155TIP3    H254661   1.952   6.050   2.551
10156TIP3   OH254662   2.081   5.908   2.153
10156TIP3    H154663   2.170   5.885   2.127
10156TIP3    H254664   2.056   5.980   2.095
10157TIP3   OH254665   2.792   5.985   2.677
10157TIP3    H154666   2.701   6.002   2.700
10157TIP3    H254667   2.838   5.986   2.761
10158TIP3   OH254668   2.121   6.198   2.434
10158TIP3    H154669   2.107   6.270   2.372
10158TIP3    H254670   2.067   6.126   2.400
10159TIP3   OH254671   2.533   6.199   2.366
10159TIP3    H154672   2.623   6.202   2.397
10159TIP3    H254673   2.536   6.236   2.278
10160TIP3   OH254674   2.518   6.262   2.095
10160TIP3    H154675   2.429   6.286   2.069
10160TIP3    H254676   2.574   6.324   2.048
10161TIP3   OH254677   2.405   5.865   2.495
10161TIP3    H154678   2.481   5.808   2.508
10161TIP3    H254679   2.409   5.889   2.402
10162TIP3   OH254680   2.741   6.732   2.260
10162TIP3    H154681   2.670   6.701   2.204
10162TIP3    H254682   2.699   6.790   2.323
10163TIP3   OH254683   3.130   6.083   2.015
10163TIP3    H154684   3.043   6.044   2.025
10163TIP3    H254685   3.151   6.118   2.101
10164TIP3   OH254686   3.197   6.230   2.255
10164TIP3    H154687   3.289   6.218   2.276
10164TIP3    H254688   3.192   6.317   2.216
10165TIP3   OH254689   2.967   6.871   2.188
10165TIP3    H154690   2.943   6.963   2.178
10165TIP3    H254691   2.885   6.826   2.210
10166TIP3   OH254692   3.622   6.290   2.088
10166TIP3    H154693   3.595   6.285   1.996
10166TIP3    H254694   3.649   6.382   2.099
10167TIP3   OH254695   3.483   7.085   2.353
10167TIP3    H154696   3.439   7.061   2.435
10167TIP3    H254697   3.474   7.007   2.298
10168TIP3   OH254698   3.391   6.637   2.932
10168TIP3    H154699   3.372   6.564   2.991
10168TIP3    H254700   3.451   6.600   2.867
10169TIP3   OH254701   2.591   7.134   2.592
10169TIP3    H154702   2.564   7.187   2.517
10169TIP3    H254703   2.557   7.181   2.668
10170TIP3   OH254704   2.129   6.547   1.990
10170TIP3    H154705   2.154   6.625   2.040
10170TIP3    H254706   2.034   6.539   2.004
10171TIP3   OH254707   2.594   6.906   2.419
10171TIP3    H154708   2.597   6.970   2.490
10171TIP3    H254709   2.535   6.838   2.451
10172TIP3   OH254710   2.494   7.320   2.408
10172TIP3    H154711   2.400   7.331   2.425
10172TIP3    H254712   2.534   7.398   2.446
10173TIP3   OH254713   3.354   6.938   2.010
10173TIP3    H154714   3.382   6.902   2.094
10173TIP3    H254715   3.267   6.900   1.995
10174TIP3   OH254716   3.688   7.368   2.034
10174TIP3    H154717   3.721   7.450   1.998
10174TIP3    H254718   3.601   7.390   2.067
10175TIP3   OH254719   3.441   6.823   2.243
10175TIP3    H154720   3.391   6.755   2.289
10175TIP3    H254721   3.532   6.799   2.255
10176TIP3   OH254722   2.672   7.042   1.917
10176TIP3    H154723   2.683   6.956   1.877
10176TIP3    H254724   2.642   7.023   2.006
10177TIP3   OH254725   2.565   7.030   2.171
10177TIP3    H154726   2.575   6.987   2.256
10177TIP3    H254727   2.598   7.119   2.185
10178TIP3   OH254728   2.172   6.761   2.164
10178TIP3    H154729   2.108   6.810   2.215
10178TIP3    H254730   2.230   6.828   2.127
10179TIP3   OH254731   3.132   5.981   2.386
10179TIP3    H154732   3.138   6.062   2.335
10179TIP3    H254733   3.176   6.001   2.468
10180TIP3   OH254734   2.901   7.134   2.160
10180TIP3    H154735   2.823   7.189   2.160
10180TIP3    H254736   2.973   7.194   2.181
10181TIP3   OH254737   2.790   6.167   2.466
10181TIP3    H154738   2.865   6.226   2.472
10181TIP3    H254739   2.793   6.117   2.547
10182TIP3   OH254740   2.912   5.834   2.478
10182TIP3    H154741   2.886   5.887   2.553
10182TIP3    H254742   2.993   5.876   2.447
10183TIP3   OH254743   2.660   7.295   2.192
10183TIP3    H154744   2.656   7.375   2.139
10183TIP3    H254745   2.591   7.307   2.258
10184TIP3   OH254746   2.495   5.949   2.240
10184TIP3    H154747   2.481   6.038   2.273
10184TIP3    H254748   2.590   5.939   2.240
10185TIP3   OH254749   3.357   6.299   2.693
10185TIP3    H154750   3.276   6.342   2.722
10185TIP3    H254751   3.397   6.268   2.773
10186TIP3   OH254752   2.322   6.960   2.050
10186TIP3    H154753   2.394   7.002   2.097
10186TIP3    H254754   2.365   6.906   1.983
10187TIP3   OH254755   2.258   6.303   2.011
10187TIP3    H154756   2.217   6.390   2.016
10187TIP3    H254757   2.185   6.243   2.001
10188TIP3   OH254758   1.971   7.066   2.532
10188TIP3    H154759   1.952   7.112   2.613
10188TIP3    H254760   1.977   7.135   2.466
10189TIP3   OH254761   2.869   7.223   1.856
10189TIP3    H154762   2.800   7.164   1.886
10189TIP3    H254763   2.949   7.170   1.860
10190TIP3   OH254764   3.345   7.202   1.927
10190TIP3    H154765   3.367   7.120   1.970
10190TIP3    H254766   3.414   7.214   1.861
10191TIP3   OH254767   2.445   6.773   1.893
10191TIP3    H154768   2.465   6.719   1.970
10191TIP3    H254769   2.530   6.785   1.850
10192TIP3   OH254770   3.100   6.850   1.949
10192TIP3    H154771   3.052   6.848   2.031
10192TIP3    H254772   3.052   6.791   1.891
10193TIP3   OH254773   2.530   6.623   2.111
10193TIP3    H154774   2.464   6.585   2.168
10193TIP3    H254775   2.579   6.549   2.077
10194TIP3   OH254776   2.694   6.444   1.974
10194TIP3    H154777   2.682   6.480   1.886
10194TIP3    H254778   2.789   6.447   1.988
10195TIP3   OH254779   3.582   6.661   1.868
10195TIP3    H154780   3.574   6.629   1.778
10195TIP3    H254781   3.573   6.756   1.861
10196TIP3   OH254782   2.671   7.544   2.071
10196TIP3    H154783   2.760   7.529   2.039
10196TIP3    H254784   2.647   7.629   2.036
10197TIP3   OH254785   2.076   7.032   1.946
10197TIP3    H154786   2.160   7.019   1.990
10197TIP3    H254787   2.059   6.948   1.903
10198TIP3   OH254788   1.913   7.406   2.550
10198TIP3    H154789   1.829   7.381   2.510
10198TIP3    H254790   1.920   7.350   2.628
10199TIP3   OH254791   3.700   6.743   2.283
10199TIP3    H154792   3.766   6.812   2.288
10199TIP3    H254793   3.722   6.684   2.354
10200TIP3   OH254794   3.745   6.542   2.464
10200TIP3    H154795   3.661   6.502   2.489
10200TIP3    H254796   3.793   6.551   2.546
10201TIP3   OH254797   3.779   6.868   3.006
10201TIP3    H154798   3.692   6.855   2.970
10201TIP3    H254799   3.771   6.948   3.058
10202TIP3   OH254800   3.701   6.552   2.088
10202TIP3    H154801   3.656   6.591   2.013
10202TIP3    H254802   3.693   6.618   2.157
10203TIP3   OH254803   3.559   6.265   1.818
10203TIP3    H154804   3.479   6.290   1.771
10203TIP3    H254805   3.560   6.170   1.814
10204TIP3   OH254806   3.493   6.410   2.482
10204TIP3    H154807   3.491   6.337   2.421
10204TIP3    H254808   3.453   6.376   2.562
10205TIP3   OH254809   3.514   5.994   1.794
10205TIP3    H154810   3.543   5.949   1.874
10205TIP3    H254811   3.420   5.976   1.789
10206TIP3   OH254812   3.469   6.196   2.303
10206TIP3    H154813   3.506   6.114   2.335
10206TIP3    H254814   3.524   6.220   2.228
10207TIP3   OH254815   3.482   6.189   2.914
10207TIP3    H154816   3.576   6.208   2.913
10207TIP3    H254817   3.447   6.246   2.981
10208TIP3   OH254818   3.562   5.942   2.392
10208TIP3    H154819   3.580   5.906   2.479
10208TIP3    H254820   3.487   5.891   2.359
10209TIP3   OH254821   3.641   5.871   2.006
10209TIP3    H154822   3.696   5.816   1.950
10209TIP3    H254823   3.701   5.937   2.041
10210TIP3   OH254824   1.946   5.994   2.375
10210TIP3    H154825   1.855   5.969   2.362
10210TIP3    H254826   1.992   5.956   2.301
10211TIP3   OH254827   3.420   7.433   2.534
10211TIP3    H154828   3.490   7.406   2.474
10211TIP3    H254829   3.464   7.440   2.619
10212TIP3   OH254830   3.619   5.806   2.631
10212TIP3    H154831   3.659   5.719   2.624
10212TIP3    H254832   3.687   5.861   2.668
10213TIP3   OH254833   2.119   5.627   2.144
10213TIP3    H154834   2.205   5.667   2.134
10213TIP3    H254835   2.060   5.700   2.162
10214TIP3   OH254836   2.648   5.746   2.565
10214TIP3    H154837   2.734   5.754   2.524
10214TIP3    H254838   2.649   5.810   2.636
10215TIP3   OH254839   3.333   5.795   2.313
10215TIP3    H154840   3.264   5.858   2.331
10215TIP3    H254841   3.290   5.710   2.321
10216TIP3   OH254842   2.007   7.224   2.297
10216TIP3    H154843   1.946   7.263   2.234
10216TIP3    H254844   2.065   7.296   2.322
10217TIP3   OH254845   2.327   5.797   2.082
10217TIP3    H154846   2.373   5.762   2.005
10217TIP3    H254847   2.394   5.846   2.129
10218TIP3   OH254848   2.770   5.969   2.278
10218TIP3    H154849   2.813   5.900   2.329
10218TIP3    H254850   2.774   6.047   2.335
10219TIP3   OH254851   2.916   7.466   1.977
10219TIP3    H154852   3.011   7.465   1.989
10219TIP3    H254853   2.896   7.382   1.937
10220TIP3   OH254854   3.595   7.338   2.342
10220TIP3    H154855   3.564   7.248   2.340
10220TIP3    H254856   3.548   7.381   2.270
10221TIP3   OH254857   2.229   7.386   1.872
10221TIP3    H154858   2.199   7.417   1.958
10221TIP3    H254859   2.301   7.325   1.892
10222TIP3   OH254860   4.784   6.619   2.500
10222TIP3    H154861   4.833   6.701   2.508
10222TIP3    H254862   4.696   6.647   2.473
10223TIP3   OH254863   4.354   6.885   2.733
10223TIP3    H154864   4.380   6.933   2.655
10223TIP3    H254865   4.436   6.859   2.775
10224TIP3   OH254866   3.895   6.334   2.356
10224TIP3    H154867   3.849   6.411   2.390
10224TIP3    H254868   3.847   6.311   2.276
10225TIP3   OH254869   3.908   6.557   2.685
10225TIP3    H154870   3.931   6.477   2.732
10225TIP3    H254871   3.983   6.614   2.697
10226TIP3   OH254872   4.333   5.996   2.603
10226TIP3    H154873   4.332   6.092   2.595
10226TIP3    H254874   4.255   5.968   2.556
10227TIP3   OH254875   5.170   6.088   2.587
10227TIP3    H154876   5.232   6.086   2.659
10227TIP3    H254877   5.216   6.135   2.517
10228TIP3   OH254878   3.996   6.321   2.802
10228TIP3    H154879   4.042   6.265   2.864
10228TIP3    H254880   4.012   6.280   2.717
10229TIP3   OH254881   4.350   6.496   2.726
10229TIP3    H154882   4.445   6.510   2.737
10229TIP3    H254883   4.344   6.410   2.684
10230TIP3   OH254884   4.853   6.888   2.478
10230TIP3    H154885   4.757   6.890   2.479
10230TIP3    H254886   4.878   6.980   2.481
10231TIP3   OH254887   5.333   6.090   2.820
10231TIP3    H154888   5.407   6.063   2.874
10231TIP3    H254889   5.329   6.185   2.830
10232TIP3   OH254890   3.898   6.937   2.266
10232TIP3    H154891   3.908   6.983   2.183
10232TIP3    H254892   3.897   7.007   2.332
10233TIP3   OH254893   4.549   5.692   2.810
10233TIP3    H154894   4.539   5.604   2.848
10233TIP3    H254895   4.471   5.739   2.839
10234TIP3   OH254896   4.985   7.212   2.764
10234TIP3    H154897   4.987   7.201   2.669
10234TIP3    H254898   5.048   7.282   2.781
10235TIP3   OH254899   4.882   6.411   2.066
10235TIP3    H154900   4.874   6.407   2.162
10235TIP3    H254901   4.944   6.342   2.044
10236TIP3   OH254902   4.417   6.607   2.473
10236TIP3    H154903   4.356   6.578   2.405
10236TIP3    H254904   4.380   6.572   2.554
10237TIP3   OH254905   4.719   7.256   2.712
10237TIP3    H154906   4.801   7.232   2.755
10237TIP3    H254907   4.736   7.244   2.619
10238TIP3   OH254908   5.438   5.674   2.202
10238TIP3    H154909   5.364   5.709   2.251
10238TIP3    H254910   5.468   5.748   2.149
10239TIP3   OH254911   4.242   6.532   2.274
10239TIP3    H154912   4.176   6.598   2.253
10239TIP3    H254913   4.199   6.448   2.257
10240TIP3   OH254914   5.590   7.107   1.980
10240TIP3    H154915   5.592   7.202   1.987
10240TIP3    H254916   5.680   7.084   1.955
10241TIP3   OH254917   4.789   7.476   2.343
10241TIP3    H154918   4.829   7.398   2.382
10241TIP3    H254919   4.735   7.513   2.412
10242TIP3   OH254920   4.157   7.120   2.511
10242TIP3    H154921   4.146   7.126   2.605
10242TIP3    H254922   4.069   7.131   2.475
10243TIP3   OH254923   5.072   7.340   2.072
10243TIP3    H154924   5.002   7.275   2.081
10243TIP3    H254925   5.099   7.359   2.162
10244TIP3   OH254926   5.135   7.373   2.340
10244TIP3    H154927   5.069   7.314   2.376
10244TIP3    H254928   5.193   7.392   2.413
10245TIP3   OH254929   4.340   5.865   2.846
10245TIP3    H154930   4.249   5.858   2.873
10245TIP3    H254931   4.336   5.906   2.760
10246TIP3   OH254932   4.786   5.972   2.047
10246TIP3    H154933   4.721   5.985   2.117
10246TIP3    H254934   4.746   5.909   1.988
10247TIP3   OH254935   4.314   6.274   2.563
10247TIP3    H154936   4.218   6.265   2.564
10247TIP3    H254937   4.337   6.272   2.470
10248TIP3   OH254938   4.873   6.405   2.348
10248TIP3    H154939   4.844   6.478   2.401
10248TIP3    H254940   4.959   6.382   2.383
10249TIP3   OH254941   4.471   6.042   1.926
10249TIP3    H154942   4.434   6.028   2.013
10249TIP3    H254943   4.410   6.101   1.882
10250TIP3   OH254944   3.827   5.926   2.746
10250TIP3    H154945   3.847   5.966   2.831
10250TIP3    H254946   3.902   5.869   2.728
10251TIP3   OH254947   3.797   6.080   2.093
10251TIP3    H154948   3.879   6.120   2.065
10251TIP3    H254949   3.734   6.151   2.092
10252TIP3   OH254950   4.603   5.926   2.663
10252TIP3    H154951   4.515   5.953   2.636
10252TIP3    H254952   4.587   5.852   2.721
10253TIP3   OH254953   4.048   6.215   2.552
10253TIP3    H154954   3.994   6.254   2.484
10253TIP3    H254955   4.045   6.121   2.535
10254TIP3   OH254956   4.386   6.245   2.299
10254TIP3    H154957   4.481   6.243   2.311
10254TIP3    H254958   4.375   6.280   2.210
10255TIP3   OH254959   4.373   6.328   2.039
10255TIP3    H154960   4.332   6.296   1.958
10255TIP3    H254961   4.459   6.361   2.011
10256TIP3   OH254962   4.616   6.571   2.742
10256TIP3    H154963   4.608   6.656   2.785
10256TIP3    H254964   4.684   6.583   2.677
10257TIP3   OH254965   4.067   5.945   2.491
10257TIP3    H154966   4.046   5.868   2.544
10257TIP3    H254967   4.002   5.943   2.420
10258TIP3   OH254968   4.590   6.854   2.188
10258TIP3    H154969   4.546   6.775   2.158
10258TIP3    H254970   4.596   6.844   2.283
10259TIP3   OH254971   5.018   6.004   2.185
10259TIP3    H154972   4.936   6.000   2.135
10259TIP3    H254973   5.054   6.090   2.164
10260TIP3   OH254974   5.147   6.248   2.141
10260TIP3    H154975   5.202   6.228   2.216
10260TIP3    H254976   5.208   6.259   2.068
10261TIP3   OH254977   4.151   6.689   2.745
10261TIP3    H154978   4.208   6.763   2.726
10261TIP3    H254979   4.208   6.612   2.737
10262TIP3   OH254980   4.835   6.913   2.073
10262TIP3    H154981   4.849   7.004   2.101
10262TIP3    H254982   4.752   6.889   2.114
10263TIP3   OH254983   5.535   6.275   2.075
10263TIP3    H154984   5.459   6.297   2.022
10263TIP3    H254985   5.557   6.356   2.121
10264TIP3   OH254986   5.514   7.066   2.248
10264TIP3    H154987   5.599   7.030   2.273
10264TIP3    H254988   5.521   7.079   2.153
10265TIP3   OH254989   4.415   7.035   2.500
10265TIP3    H154990   4.459   7.119   2.483
10265TIP3    H254991   4.322   7.054   2.490
10266TIP3   OH254992   3.971   6.511   2.054
10266TIP3    H154993   4.011   6.587   2.094
10266TIP3    H254994   3.877   6.521   2.071
10267TIP3   OH254995   4.578   6.822   2.459
10267TIP3    H154996   4.525   6.899   2.479
10267TIP3    H254997   4.518   6.748   2.469
10268TIP3   OH254998   4.489   7.309   2.484
10268TIP3    H154999   4.453   7.289   2.570
10268TIP3    H255000   4.539   7.390   2.497
10269TIP3   OH255001   5.594   7.377   2.026
10269TIP3    H155002   5.614   7.443   1.960
10269TIP3    H255003   5.516   7.411   2.072
10270TIP3   OH255004   4.605   7.028   1.857
10270TIP3    H155005   4.604   6.938   1.824
10270TIP3    H255006   4.552   7.025   1.936
10271TIP3   OH255007   4.472   7.084   2.101
10271TIP3    H155008   4.514   7.007   2.140
10271TIP3    H255009   4.518   7.159   2.140
10272TIP3   OH255010   4.072   6.734   2.187
10272TIP3    H155011   4.008   6.788   2.233
10272TIP3    H255012   4.135   6.796   2.151
10273TIP3   OH255013   5.012   5.917   2.444
10273TIP3    H155014   5.016   5.951   2.355
10273TIP3    H255015   5.063   5.979   2.496
10274TIP3   OH255016   4.862   7.175   2.154
10274TIP3    H155017   4.776   7.216   2.147
10274TIP3    H255018   4.880   7.174   2.248
10275TIP3   OH255019   4.654   6.232   2.381
10275TIP3    H155020   4.729   6.285   2.352
10275TIP3    H255021   4.640   6.258   2.472
10276TIP3   OH255022   4.755   5.825   2.459
10276TIP3    H155023   4.713   5.872   2.532
10276TIP3    H255024   4.845   5.858   2.459
10277TIP3   OH255025   4.606   7.296   2.225
10277TIP3    H155026   4.670   7.367   2.233
10277TIP3    H255027   4.572   7.285   2.314
10278TIP3   OH255028   4.354   5.994   2.172
10278TIP3    H155029   4.334   6.073   2.223
10278TIP3    H255030   4.438   5.964   2.208
10279TIP3   OH255031   4.229   6.933   2.068
10279TIP3    H155032   4.300   6.991   2.096
10279TIP3    H255033   4.269   6.876   2.002
10280TIP3   OH255034   4.005   6.235   2.016
10280TIP3    H155035   4.011   6.323   2.053
10280TIP3    H255036   4.023   6.247   1.922
10281TIP3   OH255037   3.899   7.169   2.423
10281TIP3    H155038   3.846   7.204   2.494
10281TIP3    H255039   3.895   7.235   2.354
10282TIP3   OH255040   4.781   7.233   1.860
10282TIP3    H155041   4.718   7.161   1.864
10282TIP3    H255042   4.864   7.190   1.842
10283TIP3   OH255043   5.231   7.146   1.941
10283TIP3    H155044   5.200   7.220   1.993
10283TIP3    H255045   5.285   7.185   1.872
10284TIP3   OH255046   4.345   6.752   1.900
10284TIP3    H155047   4.380   6.701   1.974
10284TIP3    H255048   4.420   6.763   1.841
10285TIP3   OH255049   4.914   6.854   1.820
10285TIP3    H155050   4.872   6.871   1.904
10285TIP3    H255051   4.935   6.760   1.823
10286TIP3   OH255052   4.456   6.626   2.117
10286TIP3    H155053   4.391   6.580   2.171
10286TIP3    H255054   4.510   6.557   2.080
10287TIP3   OH255055   4.615   6.447   1.979
10287TIP3    H155056   4.620   6.470   1.886
10287TIP3    H255057   4.706   6.434   2.005
10288TIP3   OH255058   5.453   6.664   2.013
10288TIP3    H155059   5.450   6.629   1.924
10288TIP3    H255060   5.436   6.758   2.002
10289TIP3   OH255061   4.590   7.600   1.932
10289TIP3    H155062   4.671   7.561   1.966
10289TIP3    H255063   4.605   7.694   1.938
10290TIP3   OH255064   3.977   7.006   1.990
10290TIP3    H155065   4.066   6.992   2.023
10290TIP3    H255066   3.954   6.923   1.949
10291TIP3   OH255067   3.818   7.473   2.428
10291TIP3    H155068   3.733   7.446   2.393
10291TIP3    H255069   3.825   7.428   2.512
10292TIP3   OH255070   3.792   7.322   2.653
10292TIP3    H155071   3.848   7.298   2.727
10292TIP3    H255072   3.714   7.360   2.693
10293TIP3   OH255073   5.603   6.514   2.193
10293TIP3    H155074   5.547   6.579   2.150
10293TIP3    H255075   5.593   6.532   2.287
10294TIP3   OH255076   5.308   6.268   1.905
10294TIP3    H155077   5.330   6.297   1.816
10294TIP3    H255078   5.330   6.175   1.906
10295TIP3   OH255079   4.041   6.803   2.980
10295TIP3    H155080   3.948   6.823   2.989
10295TIP3    H255081   4.049   6.764   2.893
10296TIP3   OH255082   5.366   6.002   1.882
10296TIP3    H155083   5.417   5.953   1.947
10296TIP3    H255084   5.278   5.966   1.889
10297TIP3   OH255085   5.308   6.181   2.359
10297TIP3    H155086   5.374   6.111   2.366
10297TIP3    H255087   5.343   6.253   2.410
10298TIP3   OH255088   5.452   5.930   2.418
10298TIP3    H155089   5.487   5.884   2.494
10298TIP3    H255090   5.373   5.881   2.394
10299TIP3   OH255091   3.747   6.243   2.913
10299TIP3    H155092   3.792   6.163   2.944
10299TIP3    H255093   3.816   6.293   2.870
10300TIP3   OH255094   5.548   5.866   2.039
10300TIP3    H155095   5.587   5.824   1.962
10300TIP3    H255096   5.611   5.934   2.063
10301TIP3   OH255097   3.846   5.928   2.314
10301TIP3    H155098   3.759   5.924   2.354
10301TIP3    H255099   3.836   5.987   2.240
10302TIP3   OH255100   5.307   7.439   2.537
10302TIP3    H155101   5.388   7.399   2.504
10302TIP3    H255102   5.337   7.505   2.599
10303TIP3   OH255103   4.197   7.120   2.790
10303TIP3    H155104   4.226   7.029   2.792
10303TIP3    H255105   4.276   7.171   2.776
10304TIP3   OH255106   4.443   7.244   2.750
10304TIP3    H155107   4.536   7.220   2.740
10304TIP3    H255108   4.439   7.293   2.832
10305TIP3   OH255109   5.592   5.783   2.611
10305TIP3    H155110   5.663   5.723   2.588
10305TIP3    H255111   5.637   5.863   2.638
10306TIP3   OH255112   3.984   5.718   2.622
10306TIP3    H155113   3.900   5.672   2.619
10306TIP3    H255114   4.050   5.650   2.608
10307TIP3   OH255115   3.957   5.739   2.141
10307TIP3    H155116   4.022   5.791   2.093
10307TIP3    H255117   3.925   5.798   2.210
10308TIP3   OH255118   4.588   5.614   2.547
10308TIP3    H155119   4.643   5.682   2.508
10308TIP3    H255120   4.581   5.639   2.639
10309TIP3   OH255121   5.236   5.760   2.370
10309TIP3    H155122   5.157   5.808   2.396
10309TIP3    H255123   5.208   5.668   2.368
10310TIP3   OH255124   3.917   7.360   2.194
10310TIP3    H155125   3.836   7.355   2.143
10310TIP3    H255126   3.895   7.418   2.268
10311TIP3   OH255127   4.152   5.892   2.009
10311TIP3    H155128   4.207   5.836   1.954
10311TIP3    H255129   4.213   5.929   2.073
10312TIP3   OH255130   4.616   5.980   2.268
10312TIP3    H155131   4.655   5.915   2.326
10312TIP3    H255132   4.631   6.064   2.312
10313TIP3   OH255133   4.811   7.463   2.007
10313TIP3    H155134   4.901   7.462   2.040
10313TIP3    H255135   4.802   7.382   1.958
10314TIP3   OH255136   5.498   7.319   2.369
10314TIP3    H155137   5.495   7.229   2.336
10314TIP3    H255138   5.466   7.372   2.296
10315TIP3   OH255139   4.061   7.344   1.947
10315TIP3    H155140   4.018   7.338   2.032
10315TIP3    H255141   4.137   7.287   1.954
10316TIP3   OH255142   6.945   6.801   2.604
10316TIP3    H155143   6.920   6.730   2.663
10316TIP3    H255144   6.876   6.867   2.615
10317TIP3   OH255145   6.884   6.581   2.758
10317TIP3    H155146   6.814   6.553   2.817
10317TIP3    H255147   6.893   6.509   2.696
10318TIP3   OH255148   5.748   6.585   2.664
10318TIP3    H155149   5.697   6.643   2.720
10318TIP3    H255150   5.693   6.571   2.587
10319TIP3   OH255151   6.247   6.107   2.685
10319TIP3    H155152   6.248   6.175   2.618
10319TIP3    H255153   6.211   6.030   2.641
10320TIP3   OH255154   7.078   6.142   2.585
10320TIP3    H155155   7.100   6.121   2.675
10320TIP3    H255156   7.141   6.093   2.533
10321TIP3   OH255157   6.016   6.254   2.737
10321TIP3    H155158   6.100   6.210   2.747
10321TIP3    H255159   5.987   6.233   2.648
10322TIP3   OH255160   7.144   6.085   2.842
10322TIP3    H155161   7.141   6.005   2.894
10322TIP3    H255162   7.184   6.150   2.900
10323TIP3   OH255163   5.787   7.005   2.269
10323TIP3    H155164   5.801   7.085   2.219
10323TIP3    H255165   5.819   7.026   2.357
10324TIP3   OH255166   6.694   6.617   2.371
10324TIP3    H155167   6.623   6.678   2.349
10324TIP3    H255168   6.761   6.631   2.305
10325TIP3   OH255169   6.713   6.534   1.960
10325TIP3    H155170   6.766   6.568   2.033
10325TIP3    H255171   6.769   6.468   1.919
10326TIP3   OH255172   7.068   6.692   2.382
10326TIP3    H155173   7.027   6.736   2.456
10326TIP3    H255174   7.101   6.610   2.417
10327TIP3   OH255175   6.470   7.096   2.767
10327TIP3    H155176   6.558   7.059   2.760
10327TIP3    H255177   6.414   7.022   2.791
10328TIP3   OH255178   6.896   6.627   2.175
10328TIP3    H155179   6.960   6.653   2.241
10328TIP3    H255180   6.940   6.642   2.091
10329TIP3   OH255181   7.380   5.682   2.175
10329TIP3    H155182   7.293   5.720   2.175
10329TIP3    H255183   7.439   5.756   2.165
10330TIP3   OH255184   6.072   6.550   2.252
10330TIP3    H155185   6.035   6.638   2.255
10330TIP3    H255186   6.004   6.497   2.210
10331TIP3   OH255187   7.439   7.145   1.957
10331TIP3    H155188   7.454   7.235   1.986
10331TIP3    H255189   7.468   7.144   1.866
10332TIP3   OH255190   5.801   7.044   2.999
10332TIP3    H155191   5.856   6.977   3.040
10332TIP3    H255192   5.838   7.127   3.029
10333TIP3   OH255193   6.085   7.261   2.579
10333TIP3    H155194   6.055   7.272   2.669
10333TIP3    H255195   6.027   7.194   2.543
10334TIP3   OH255196   6.837   7.238   2.052
10334TIP3    H155197   6.928   7.252   2.026
10334TIP3    H255198   6.842   7.189   2.134
10335TIP3   OH255199   7.014   6.636   1.928
10335TIP3    H155200   7.012   6.649   1.834
10335TIP3    H255201   7.062   6.554   1.940
10336TIP3   OH255202   6.660   5.868   2.164
10336TIP3    H155203   6.588   5.896   2.221
10336TIP3    H255204   6.618   5.842   2.082
10337TIP3   OH255205   6.246   6.313   2.507
10337TIP3    H155206   6.171   6.328   2.449
10337TIP3    H255207   6.321   6.345   2.458
10338TIP3   OH255208   6.836   6.366   2.279
10338TIP3    H155209   6.864   6.445   2.232
10338TIP3    H255210   6.896   6.298   2.248
10339TIP3   OH255211   6.897   6.346   2.603
10339TIP3    H155212   6.955   6.271   2.596
10339TIP3    H255213   6.825   6.316   2.659
10340TIP3   OH255214   6.360   6.048   1.926
10340TIP3    H155215   6.327   6.034   2.015
10340TIP3    H255216   6.291   6.098   1.882
10341TIP3   OH255217   5.699   6.041   2.614
10341TIP3    H155218   5.640   6.116   2.605
10341TIP3    H255219   5.728   6.022   2.525
10342TIP3   OH255220   5.716   6.077   2.098
10342TIP3    H155221   5.794   6.122   2.066
10342TIP3    H255222   5.647   6.142   2.092
10343TIP3   OH255223   6.523   6.124   2.686
10343TIP3    H155224   6.429   6.111   2.694
10343TIP3    H255225   6.562   6.050   2.733
10344TIP3   OH255226   5.983   6.137   2.484
10344TIP3    H155227   5.922   6.119   2.413
10344TIP3    H255228   6.033   6.056   2.495
10345TIP3   OH255229   6.468   6.348   2.339
10345TIP3    H155230   6.513   6.264   2.349
10345TIP3    H255231   6.413   6.337   2.261
10346TIP3   OH255232   6.292   6.285   2.126
10346TIP3    H155233   6.206   6.290   2.085
10346TIP3    H255234   6.350   6.333   2.066
10347TIP3   OH255235   6.627   6.376   2.677
10347TIP3    H155236   6.579   6.295   2.696
10347TIP3    H255237   6.642   6.416   2.762
10348TIP3   OH255238   6.133   5.904   2.526
10348TIP3    H155239   6.082   5.828   2.553
10348TIP3    H255240   6.204   5.869   2.473
10349TIP3   OH255241   6.496   6.783   2.281
10349TIP3    H155242   6.422   6.740   2.238
10349TIP3    H255243   6.456   6.840   2.346
10350TIP3   OH255244   6.921   5.951   2.115
10350TIP3    H155245   6.831   5.933   2.144
10350TIP3    H255246   6.938   6.040   2.144
10351TIP3   OH255247   7.036   6.205   2.178
10351TIP3    H155248   7.110   6.210   2.238
10351TIP3    H255249   7.066   6.249   2.098
10352TIP3   OH255250   6.832   6.913   2.104
10352TIP3    H155251   6.832   6.981   2.171
10352TIP3    H255252   6.794   6.836   2.148
10353TIP3   OH255253   7.497   6.310   2.192
10353TIP3    H155254   7.469   6.246   2.126
10353TIP3    H255255   7.523   6.387   2.141
10354TIP3   OH255256   7.377   7.115   2.236
10354TIP3    H155257   7.326   7.035   2.250
10354TIP3    H255258   7.393   7.116   2.142
10355TIP3   OH255259   6.358   7.251   2.554
10355TIP3    H155260   6.390   7.205   2.631
10355TIP3    H255261   6.264   7.259   2.568
10356TIP3   OH255262   5.846   6.535   2.072
10356TIP3    H155263   5.872   6.624   2.097
10356TIP3    H255264   5.761   6.522   2.114
10357TIP3   OH255265   6.419   6.988   2.446
10357TIP3    H155266   6.496   7.041   2.424
10357TIP3    H255267   6.354   7.052   2.475
10358TIP3   OH255268   7.095   6.986   2.059
10358TIP3    H155269   7.137   6.951   2.137
10358TIP3    H255270   7.004   6.956   2.065
10359TIP3   OH255271   7.488   7.408   2.043
10359TIP3    H155272   7.562   7.410   2.103
10359TIP3    H255273   7.414   7.441   2.095
10360TIP3   OH255274   7.246   6.865   2.256
10360TIP3    H155275   7.182   6.811   2.302
10360TIP3    H255276   7.325   6.810   2.251
10361TIP3   OH255277   6.443   7.036   1.892
10361TIP3    H155278   6.459   6.950   1.852
10361TIP3    H255279   6.471   7.025   1.983
10362TIP3   OH255280   6.527   7.022   2.146
10362TIP3    H155281   6.522   6.934   2.182
10362TIP3    H255282   6.555   7.076   2.220
10363TIP3   OH255283   5.926   6.783   2.173
10363TIP3    H155284   5.862   6.840   2.217
10363TIP3    H255285   5.985   6.844   2.128
10364TIP3   OH255286   6.869   6.022   2.450
10364TIP3    H155287   6.882   5.931   2.476
10364TIP3    H255288   6.943   6.069   2.490
10365TIP3   OH255289   6.637   6.161   2.443
10365TIP3    H155290   6.718   6.111   2.434
10365TIP3    H255291   6.605   6.141   2.531
10366TIP3   OH255292   6.635   5.827   2.542
10366TIP3    H155293   6.630   5.857   2.633
10366TIP3    H255294   6.725   5.796   2.532
10367TIP3   OH255295   6.262   6.006   2.180
10367TIP3    H155296   6.264   6.101   2.189
10367TIP3    H255297   6.328   5.974   2.242
10368TIP3   OH255298   6.073   6.970   2.029
10368TIP3    H155299   6.116   7.053   2.006
10368TIP3    H255300   6.126   6.903   1.987
10369TIP3   OH255301   5.888   6.267   1.997
10369TIP3    H155302   5.870   6.357   2.023
10369TIP3    H255303   5.843   6.257   1.913
10370TIP3   OH255304   6.057   5.607   2.850
10370TIP3    H155305   6.040   5.643   2.764
10370TIP3    H255306   6.152   5.602   2.856
10371TIP3   OH255307   5.856   7.115   2.511
10371TIP3    H155308   5.823   7.096   2.599
10371TIP3    H255309   5.817   7.199   2.488
10372TIP3   OH255310   6.604   7.262   1.906
10372TIP3    H155311   6.559   7.178   1.907
10372TIP3    H255312   6.684   7.247   1.958
10373TIP3   OH255313   7.099   7.234   1.945
10373TIP3    H155314   7.115   7.152   1.991
10373TIP3    H255315   7.167   7.237   1.877
10374TIP3   OH255316   6.209   6.769   1.910
10374TIP3    H155317   6.233   6.725   1.992
10374TIP3    H255318   6.292   6.778   1.862
10375TIP3   OH255319   6.762   6.959   1.838
10375TIP3    H155320   6.779   6.944   1.931
10375TIP3    H255321   6.753   6.871   1.801
10376TIP3   OH255322   6.305   6.642   2.137
10376TIP3    H155323   6.233   6.598   2.184
10376TIP3    H255324   6.352   6.572   2.094
10377TIP3   OH255325   6.444   6.462   1.977
10377TIP3    H155326   6.426   6.478   1.884
10377TIP3    H255327   6.537   6.484   1.986
10378TIP3   OH255328   7.361   6.615   1.895
10378TIP3    H155329   7.297   6.549   1.922
10378TIP3    H255330   7.321   6.698   1.919
10379TIP3   OH255331   5.838   7.021   1.898
10379TIP3    H155332   5.911   7.009   1.959
10379TIP3    H255333   5.819   6.933   1.866
10380TIP3   OH255334   5.719   7.355   2.528
10380TIP3    H155335   5.640   7.350   2.475
10380TIP3    H255336   5.695   7.314   2.611
10381TIP3   OH255337   5.746   7.184   2.761
10381TIP3    H155338   5.732   7.128   2.837
10381TIP3    H255339   5.830   7.225   2.776
10382TIP3   OH255340   7.481   6.709   2.287
10382TIP3    H155341   7.550   6.761   2.329
10382TIP3    H255342   7.452   6.648   2.355
10383TIP3   OH255343   7.413   6.549   2.503
10383TIP3    H155344   7.324   6.514   2.493
10383TIP3    H255345   7.426   6.553   2.598
10384TIP3   OH255346   7.569   6.553   2.069
10384TIP3    H155347   7.504   6.569   2.000
10384TIP3    H255348   7.542   6.609   2.142
10385TIP3   OH255349   7.380   6.143   2.008
10385TIP3    H155350   7.323   6.216   1.985
10385TIP3    H255351   7.332   6.065   1.980
10386TIP3   OH255352   7.154   6.444   2.479
10386TIP3    H155353   7.188   6.371   2.428
10386TIP3    H255354   7.077   6.410   2.523
10387TIP3   OH255355   5.738   6.766   2.913
10387TIP3    H155356   5.742   6.861   2.903
10387TIP3    H255357   5.792   6.748   2.990
10388TIP3   OH255358   7.237   5.918   1.938
10388TIP3    H155359   7.213   5.876   2.021
10388TIP3    H255360   7.154   5.925   1.890
10389TIP3   OH255361   7.267   6.234   2.337
10389TIP3    H155362   7.285   6.145   2.365
10389TIP3    H255363   7.346   6.262   2.291
10390TIP3   OH255364   7.263   6.267   3.017
10390TIP3    H155365   7.352   6.302   3.004
10390TIP3    H255366   7.275   6.192   3.075
10391TIP3   OH255367   7.226   5.956   2.426
10391TIP3    H155368   7.219   5.881   2.485
10391TIP3    H255369   7.193   5.923   2.342
10392TIP3   OH255370   7.526   5.912   2.141
10392TIP3    H155371   7.615   5.883   2.121
10392TIP3    H255372   7.513   5.987   2.083
10393TIP3   OH255373   5.721   5.965   2.345
10393TIP3    H155374   5.629   5.946   2.358
10393TIP3    H255375   5.725   6.010   2.260
10394TIP3   OH255376   6.511   7.354   2.850
10394TIP3    H155377   6.502   7.262   2.824
10394TIP3    H255378   6.424   7.379   2.882
10395TIP3   OH255379   7.284   5.658   2.832
10395TIP3    H155380   7.249   5.708   2.906
10395TIP3    H255381   7.232   5.577   2.831
10396TIP3   OH255382   5.998   5.663   2.579
10396TIP3    H155383   5.907   5.651   2.555
10396TIP3    H255384   6.038   5.577   2.565
10397TIP3   OH255385   5.841   5.745   2.162
10397TIP3    H155386   5.912   5.788   2.113
10397TIP3    H255387   5.813   5.811   2.225
10398TIP3   OH255388   6.466   5.610   2.592
10398TIP3    H155389   6.526   5.675   2.556
10398TIP3    H255390   6.488   5.605   2.685
10399TIP3   OH255391   6.927   5.770   2.547
10399TIP3    H155392   7.020   5.750   2.552
10399TIP3    H255393   6.885   5.701   2.599
10400TIP3   OH255394   7.137   5.812   2.196
10400TIP3    H155395   7.060   5.862   2.169
10400TIP3    H255396   7.102   5.733   2.237
10401TIP3   OH255397   5.810   7.258   2.159
10401TIP3    H155398   5.734   7.300   2.120
10401TIP3    H255399   5.876   7.327   2.164
10402TIP3   OH255400   6.063   5.860   2.030
10402TIP3    H155401   6.112   5.793   1.982
10402TIP3    H255402   6.129   5.904   2.084
10403TIP3   OH255403   6.473   5.952   2.356
10403TIP3    H155404   6.507   5.887   2.417
10403TIP3    H255405   6.521   6.032   2.375
10404TIP3   OH255406   7.383   7.355   2.380
10404TIP3    H155407   7.387   7.267   2.342
10404TIP3    H255408   7.333   7.406   2.316
10405TIP3   OH255409   6.060   7.405   1.917
10405TIP3    H155410   6.036   7.425   2.007
10405TIP3    H255411   6.107   7.322   1.923
10406TIP3   OH255412   7.645   6.434   2.393
10406TIP3    H155413   7.569   6.470   2.439
10406TIP3    H255414   7.607   6.374   2.328
10407TIP3   OH255415   7.494   7.561   2.526
10407TIP3    H155416   7.448   7.497   2.472
10407TIP3    H255417   7.546   7.509   2.587
10408TIP3   OH255418   7.615   7.356   2.672
10408TIP3    H155419   7.629   7.345   2.766
10408TIP3    H255420   7.554   7.286   2.649
10409TIP3   OH255421   7.623   6.668   3.018
10409TIP3    H155422   7.661   6.754   3.000
10409TIP3    H255423   7.694   6.617   3.057
10410TIP3   OH255424   7.513   6.390   2.977
10410TIP3    H155425   7.541   6.481   2.981
10410TIP3    H255426   7.595   6.340   2.980
10411TIP3   OH255427   7.500   5.986   2.406
10411TIP3    H155428   7.408   5.972   2.429
10411TIP3    H255429   7.506   5.959   2.314
10412TIP3   OH255430   1.680   7.563   2.217
10412TIP3    H155431   1.587   7.561   2.239
10412TIP3    H255432   1.704   7.655   2.221
10413TIP3   OH255433   0.307   7.510   2.485
10413TIP3    H155434   0.261   7.594   2.483
10413TIP3    H255435   0.343   7.505   2.573
10414TIP3   OH255436   1.669   7.479   2.831
10414TIP3    H155437   1.642   7.410   2.891
10414TIP3    H255438   1.764   7.485   2.843
10415TIP3   OH255439   0.483   7.574   2.272
10415TIP3    H155440   0.430   7.564   2.351
10415TIP3    H255441   0.573   7.575   2.304
10416TIP3   OH255442   0.286   7.544   2.081
10416TIP3    H155443   0.236   7.626   2.081
10416TIP3    H255444   0.359   7.561   2.140
10417TIP3   OH255445   1.431   7.576   2.349
10417TIP3    H155446   1.391   7.491   2.332
10417TIP3    H255447   1.467   7.569   2.437
10418TIP3   OH255448   2.606   7.371   2.775
10418TIP3    H155449   2.662   7.420   2.836
10418TIP3    H255450   2.525   7.356   2.824
10419TIP3   OH255451   3.470   7.505   2.160
10419TIP3    H155452   3.389   7.523   2.208
10419TIP3    H255453   3.499   7.592   2.131
10420TIP3   OH255454   3.569   7.456   2.767
10420TIP3    H155455   3.547   7.550   2.766
10420TIP3    H255456   3.524   7.422   2.843
10421TIP3   OH255457   2.103   7.489   2.378
10421TIP3    H155458   2.033   7.463   2.438
10421TIP3    H255459   2.182   7.488   2.432
10422TIP3   OH255460   2.111   7.516   2.100
10422TIP3    H155461   2.129   7.608   2.079
10422TIP3    H255462   2.121   7.511   2.195
10423TIP3   OH255463   2.587   7.533   2.550
10423TIP3    H155464   2.673   7.566   2.523
10423TIP3    H255465   2.604   7.491   2.634
10424TIP3   OH255466   3.400   7.435   2.984
10424TIP3    H155467   3.373   7.520   3.020
10424TIP3    H255468   3.318   7.389   2.968
10425TIP3   OH255469   3.275   7.597   2.352
10425TIP3    H155470   3.190   7.632   2.379
10425TIP3    H255471   3.309   7.551   2.429
10426TIP3   OH255472   4.628   7.500   2.810
10426TIP3    H155473   4.672   7.422   2.778
10426TIP3    H255474   4.569   7.468   2.878
10427TIP3   OH255475   5.370   7.468   2.165
10427TIP3    H155476   5.288   7.448   2.211
10427TIP3    H255477   5.364   7.562   2.146
10428TIP3   OH255478   4.448   7.384   2.987
10428TIP3    H155479   4.375   7.446   2.984
10428TIP3    H255480   4.423   7.321   3.056
10429TIP3   OH255481   3.970   7.551   2.875
10429TIP3    H155482   3.933   7.580   2.792
10429TIP3    H255483   3.961   7.456   2.875
10430TIP3   OH255484   3.877   7.658   2.639
10430TIP3    H155485   3.860   7.617   2.555
10430TIP3    H255486   3.875   7.752   2.621
10431TIP3   OH255487   3.754   7.622   1.971
10431TIP3    H155488   3.801   7.689   1.922
10431TIP3    H255489   3.684   7.670   2.016
10432TIP3   OH255490   4.606   7.552   2.534
10432TIP3    H155491   4.573   7.641   2.517
10432TIP3    H255492   4.622   7.551   2.629
10433TIP3   OH255493   5.029   7.627   2.306
10433TIP3    H155494   4.936   7.606   2.304
10433TIP3    H255495   5.073   7.544   2.327
10434TIP3   OH255496   6.480   7.584   2.700
10434TIP3    H155497   6.521   7.505   2.737
10434TIP3    H255498   6.401   7.597   2.752
10435TIP3   OH255499   7.259   7.512   2.189
10435TIP3    H155500   7.165   7.495   2.199
10435TIP3    H255501   7.266   7.607   2.182
10436TIP3   OH255502   6.287   7.581   2.897
10436TIP3    H155503   6.194   7.563   2.882
10436TIP3    H255504   6.295   7.587   2.992
10437TIP3   OH255505   5.955   7.474   2.450
10437TIP3    H155506   5.867   7.442   2.474
10437TIP3    H255507   6.015   7.414   2.495
10438TIP3   OH255508   5.983   7.480   2.174
10438TIP3    H155509   5.957   7.570   2.153
10438TIP3    H255510   5.981   7.476   2.269
10439TIP3   OH255511   6.972   7.491   2.225
10439TIP3    H155512   6.953   7.578   2.260
10439TIP3    H255513   6.915   7.432   2.274
   7.68049   7.68049  10.00000
